  MPI-parallelism will be employed.
------------------------------------------------------------
          Invoking FHI-aims ...
          Version 150427
          Git rev.: 9dd23e0 BL: Update Version stamp
          Compiled on 2015/11/03 at 22:05:20 on host eos03.

          When using FHI-aims, please cite the following reference:

          Volker Blum, Ralf Gehrke, Felix Hanke, Paula Havu,
          Ville Havu, Xinguo Ren, Karsten Reuter, and Matthias Scheffler,
          'Ab Initio Molecular Simulations with Numeric Atom-Centered Orbitals: FHI-aims',
          Computer Physics Communications 180, 2175-2196 (2009)

          For any questions about FHI-aims, please visit the aimsclub website
          with its forums and wiki. Contributions to both the forums and the
          wiki are warmly encouraged - they are for you, and everyone is welcome there.

------------------------------------------------------------

  Date     :  20170309, Time     :  180825.219
  Time zero on CPU 1             :   0.312019000000000E+00  s.
  Internal wall clock time zero  :           258314905.219  s.

  Using       32 parallel tasks.
  Task        0 on host eos399 reporting.
  Task        1 on host eos399 reporting.
  Task        2 on host eos399 reporting.
  Task        3 on host eos399 reporting.
  Task        4 on host eos399 reporting.
  Task        5 on host eos399 reporting.
  Task        6 on host eos399 reporting.
  Task        7 on host eos399 reporting.
  Task        8 on host eos399 reporting.
  Task        9 on host eos399 reporting.
  Task       10 on host eos399 reporting.
  Task       11 on host eos399 reporting.
  Task       12 on host eos399 reporting.
  Task       13 on host eos399 reporting.
  Task       14 on host eos399 reporting.
  Task       15 on host eos399 reporting.
  Task       16 on host eos399 reporting.
  Task       17 on host eos399 reporting.
  Task       18 on host eos399 reporting.
  Task       19 on host eos399 reporting.
  Task       20 on host eos399 reporting.
  Task       21 on host eos399 reporting.
  Task       22 on host eos399 reporting.
  Task       23 on host eos399 reporting.
  Task       24 on host eos399 reporting.
  Task       25 on host eos399 reporting.
  Task       26 on host eos399 reporting.
  Task       27 on host eos399 reporting.
  Task       28 on host eos399 reporting.
  Task       29 on host eos399 reporting.
  Task       30 on host eos399 reporting.
  Task       31 on host eos399 reporting.

  Performing system and environment tests:
  | Environment variable OMP_NUM_THREADS correctly set to 1.
  | Stacksize not measured: no C compiler
  | Checking for scalapack...
  | Testing pdtran()...
  | All pdtran() tests passed.

  Obtaining array dimensions for all initial allocations:
  
  -----------------------------------------------------------------------
  Parsing control.in (first pass over file, find array dimensions only).
  The contents of control.in will be repeated verbatim below
  unless switched off by setting 'verbatim_writeout .false.' .
  in the first line of control.in .
  -----------------------------------------------------------------------
  
  #########################################################################################
  #
  # Input for System
  #
  #########################################################################################
  #
  #
  #  Physical model
  #
    xc                 pbe
    vdw_correction_hirshfeld
    spin               none
    charge             0.
  #
  #  SCF convergence
  #
    occupation_type    gaussian 0.05
    mixer              pulay
      n_max_pulay        10
      charge_mix_param   0.5
    sc_accuracy_rho    1E-4
    sc_accuracy_eev    1E-2
    sc_accuracy_etot   1E-5
    sc_accuracy_forces 1E-4
    sc_iter_limit      1000
  #
  #  ESP charge
  #
    output esp
    esp equal_grid_n 80 80 80
  #
  #
  ################################################################################
  #
  #  FHI-aims code project
  # Volker Blum, Fritz Haber Institute Berlin, 2009
  #
  #  Suggested "tight" defaults for H atom (to be pasted into control.in file)
  #
  ################################################################################
    species        H
  #     global species definitions
      nucleus             1
      mass                1.00794
  #
      l_hartree           6
  #
      cut_pot             4.0  2.0  1.0
      basis_dep_cutoff    1e-4
  #
      radial_base         24 7.0
      radial_multiplier   2
      angular_grids       specified
        division   0.1930   50
        division   0.3175  110
        division   0.4293  194
        division   0.5066  302
        division   0.5626  434
  #      division   0.5922  590
  #      division   0.6227  974
  #      division   0.6868 1202
  #      outer_grid  770
        outer_grid  434
  ################################################################################
  #
  #  Definition of "minimal" basis
  #
  ################################################################################
  #     valence basis states
      valence      1  s   1.
  #     ion occupancy
      ion_occ      1  s   0.5
  ################################################################################
  #
  #  Suggested additional basis functions. For production calculations,
  #  uncomment them one after another (the most important basis functions are
  #  listed first).
  #
  #  Basis constructed for dimers: 0.5 A, 0.7 A, 1.0 A, 1.5 A, 2.5 A
  #
  ################################################################################
  #  "First tier" - improvements: -1014.90 meV to -62.69 meV
       hydro 2 s 2.1
       hydro 2 p 3.5
  #  "Second tier" - improvements: -12.89 meV to -1.83 meV
       hydro 1 s 0.85
       hydro 2 p 3.7
       hydro 2 s 1.2
       hydro 3 d 7
  #  "Third tier" - improvements: -0.25 meV to -0.12 meV
  #     hydro 4 f 11.2
  #     hydro 3 p 4.8
  #     hydro 4 d 9
  #     hydro 3 s 3.2
  ################################################################################
  #
  # For methods that use the localized form of the "resolution of identity" for
  # the two-electron Coulomb operator (RI_method LVL), particularly Hartree-Fock and
  # hybrid density functional calculations, the highest accuracy can be obtained by
  # uncommenting the line beginning with "for_aux"  below, thus adding an extra g radial
  # function to the construction of the product basis set for the expansion.
  # See Ref. New J. Phys. 17, 093020 (2015) for more information, particularly Figs. 1 and 6.
  #
  ################################################################################
  #
  # for_aux hydro 5 g 6.0
  ################################################################################
  #
  #  FHI-aims code project
  # Volker Blum, Fritz Haber Institute Berlin, 2009
  #
  #  Suggested "tight" defaults for C atom (to be pasted into control.in file)
  #
  ################################################################################
    species        C
  #     global species definitions
      nucleus             6
      mass                12.0107
  #
      l_hartree           6
  #
      cut_pot             4.0  2.0  1.0
      basis_dep_cutoff    1e-4
  #
      radial_base         34 7.0
      radial_multiplier   2
      angular_grids specified
        division   0.2187   50
        division   0.4416  110
        division   0.6335  194
        division   0.7727  302
        division   0.8772  434
  #      division   0.9334  590
  #      division   0.9924  770
  #      division   1.0230  974
  #      division   1.5020 1202
  #     outer_grid  974
        outer_grid  434
  ################################################################################
  #
  #  Definition of "minimal" basis
  #
  ################################################################################
  #     valence basis states
      valence      2  s   2.
      valence      2  p   2.
  #     ion occupancy
      ion_occ      2  s   1.
      ion_occ      2  p   1.
  ################################################################################
  #
  #  Suggested additional basis functions. For production calculations,
  #  uncomment them one after another (the most important basis functions are
  #  listed first).
  #
  #  Constructed for dimers: 1.0 A, 1.25 A, 1.5 A, 2.0 A, 3.0 A
  #
  ################################################################################
  #  "First tier" - improvements: -1214.57 meV to -155.61 meV
       hydro 2 p 1.7
       hydro 3 d 6
       hydro 2 s 4.9
  #  "Second tier" - improvements: -67.75 meV to -5.23 meV
       hydro 4 f 9.8
       hydro 3 p 5.2
       hydro 3 s 4.3
       hydro 5 g 14.4
       hydro 3 d 6.2
  #  "Third tier" - improvements: -2.43 meV to -0.60 meV
  #     hydro 2 p 5.6
  #     hydro 2 s 1.4
  #     hydro 3 d 4.9
  #     hydro 4 f 11.2
  #  "Fourth tier" - improvements: -0.39 meV to -0.18 meV
  #     hydro 2 p 2.1
  #     hydro 5 g 16.4
  #     hydro 4 d 13.2
  #     hydro 3 s 13.6
  #     hydro 4 f 17.6
  #  Further basis functions - improvements: -0.08 meV and below
  #     hydro 3 s 2
  #     hydro 3 p 6
  #     hydro 4 d 20
  ################################################################################
  #
  # For methods that use the localized form of the "resolution of identity" for
  # the two-electron Coulomb operator (RI_method LVL), particularly Hartree-Fock and
  # hybrid density functional calculations, the highest accuracy can be obtained by
  # uncommenting the line beginning with "for_aux"  below, thus adding an extra g radial
  # function to the construction of the product basis set for the expansion.
  # See Ref. New J. Phys. 17, 093020 (2015) for more information, particularly Figs. 1 and 6.
  #
  ################################################################################
  #
  # for_aux hydro 5 g 6.0
  ################################################################################
  #
  #  FHI-aims code project
  # Volker Blum, Fritz Haber Institute Berlin, 2009
  #
  #  Suggested "tight" defaults for N atom (to be pasted into control.in file)
  #
  ################################################################################
    species        N
  #     global species definitions
      nucleus             7
      mass                14.0067
  #
      l_hartree           6
  #
      cut_pot             4.0  2.0  1.0
      basis_dep_cutoff    1e-4
  #
      radial_base         35 7.0
      radial_multiplier   2
      angular_grids       specified
        division   0.1841   50
        division   0.3514  110
        division   0.5126  194
        division   0.6292  302
        division   0.6939  434
  #      division   0.7396  590
  #      division   0.7632  770
  #      division   0.8122  974
  #      division   1.1604 1202
  #      outer_grid  974
        outer_grid  434
  ################################################################################
  #
  #  Definition of "minimal" basis
  #
  ################################################################################
  #     valence basis states
      valence      2  s   2.
      valence      2  p   3.
  #     ion occupancy
      ion_occ      2  s   1.
      ion_occ      2  p   2.
  ################################################################################
  #
  #  Suggested additional basis functions. For production calculations,
  #  uncomment them one after another (the most important basis functions are
  #  listed first).
  #
  #  Constructed for dimers: 1.0 A, 1.1 A, 1.5 A, 2.0 A, 3.0 A
  #
  ################################################################################
  #  "First tier" - improvements: -1193.42 meV to -220.60 meV
       hydro 2 p 1.8
       hydro 3 d 6.8
       hydro 3 s 5.8
  #  "Second tier" - improvements: -80.21 meV to -6.86 meV
       hydro 4 f 10.8
       hydro 3 p 5.8
       hydro 1 s 0.8
       hydro 5 g 16
       hydro 3 d 4.9
  #  "Third tier" - improvements: -4.29 meV to -0.53 meV
  #     hydro 3 s 16
  #     ionic 2 p auto
  #     hydro 3 d 6.6
  #     hydro 4 f 11.6
  #  "Fourth tier" - improvements: -0.75 meV to -0.25 meV
  #     hydro 2 p 4.5
  #     hydro 2 s 2.4
  #     hydro 5 g 14.4
  #     hydro 4 d 14.4
  #     hydro 4 f 16.8
  # Further basis functions - -0.21 meV and below
  #     hydro 3 p 14.8
  #     hydro 3 s 4.4
  #     hydro 3 d 19.6
  #     hydro 5 g 12.8
  ################################################################################
  #
  # For methods that use the localized form of the "resolution of identity" for
  # the two-electron Coulomb operator (RI_method LVL), particularly Hartree-Fock and
  # hybrid density functional calculations, the highest accuracy can be obtained by
  # uncommenting the line beginning with "for_aux"  below, thus adding an extra g radial
  # function to the construction of the product basis set for the expansion.
  # See Ref. New J. Phys. 17, 093020 (2015) for more information, particularly Figs. 1 and 6.
  #
  ################################################################################
  #
  # for_aux hydro 5 g 6.0
  ################################################################################
  #
  #  FHI-aims code project
  # Volker Blum, Fritz Haber Institute Berlin, 2009
  #
  #  Suggested "tight" defaults for O atom (to be pasted into control.in file)
  #
  ################################################################################
    species        O
  #     global species definitions
      nucleus             8
      mass                15.9994
  #
      l_hartree           6
  #
      cut_pot             4.0  2.0  1.0
      basis_dep_cutoff    1e-4
  #
      radial_base         36 7.0
      radial_multiplier   2
       angular_grids specified
        division   0.1817   50
        division   0.3417  110
        division   0.4949  194
        division   0.6251  302
        division   0.8014  434
  #      division   0.8507  590
  #      division   0.8762  770
  #      division   0.9023  974
  #      division   1.2339 1202
  #      outer_grid 974
        outer_grid  434
  ################################################################################
  #
  #  Definition of "minimal" basis
  #
  ################################################################################
  #     valence basis states
      valence      2  s   2.
      valence      2  p   4.
  #     ion occupancy
      ion_occ      2  s   1.
      ion_occ      2  p   3.
  ################################################################################
  #
  #  Suggested additional basis functions. For production calculations,
  #  uncomment them one after another (the most important basis functions are
  #  listed first).
  #
  #  Constructed for dimers: 1.0 A, 1.208 A, 1.5 A, 2.0 A, 3.0 A
  #
  ################################################################################
  #  "First tier" - improvements: -699.05 meV to -159.38 meV
       hydro 2 p 1.8
       hydro 3 d 7.6
       hydro 3 s 6.4
  #  "Second tier" - improvements: -49.91 meV to -5.39 meV
       hydro 4 f 11.6
       hydro 3 p 6.2
       hydro 3 d 5.6
       hydro 5 g 17.6
       hydro 1 s 0.75
  #  "Third tier" - improvements: -2.83 meV to -0.50 meV
  #     ionic 2 p auto
  #     hydro 4 f 10.8
  #     hydro 4 d 4.7
  #     hydro 2 s 6.8
  #  "Fourth tier" - improvements: -0.40 meV to -0.12 meV
  #     hydro 3 p 5
  #     hydro 3 s 3.3
  #     hydro 5 g 15.6
  #     hydro 4 f 17.6
  #     hydro 4 d 14
  # Further basis functions - -0.08 meV and below
  #     hydro 3 s 2.1
  #     hydro 4 d 11.6
  #     hydro 3 p 16
  #     hydro 2 s 17.2
  ################################################################################
  #
  # For methods that use the localized form of the "resolution of identity" for
  # the two-electron Coulomb operator (RI_method LVL), particularly Hartree-Fock and
  # hybrid density functional calculations, the highest accuracy can be obtained by
  # uncommenting the line beginning with "for_aux"  below, thus adding an extra g radial
  # function to the construction of the product basis set for the expansion.
  # See Ref. New J. Phys. 17, 093020 (2015) for more information, particularly Figs. 1 and 6.
  #
  ################################################################################
  #
  # for_aux hydro 5 g 6.0
  
  -----------------------------------------------------------------------
  Completed first pass over input file control.in .
  -----------------------------------------------------------------------
  
  
  -----------------------------------------------------------------------
  Parsing geometry.in (first pass over file, find array dimensions only).
  The contents of geometry.in will be repeated verbatim below
  unless switched off by setting 'verbatim_writeout .false.' .
  in the first line of geometry.in .
  -----------------------------------------------------------------------
  
  #
  # This is the geometry file that corresponds to the current relaxation step.
  # If you do not want this file to be written, set the "write_restart_geometry" flag to .false.
  #
  atom       0.33996798      0.63121275      0.49360752 C
  atom      -0.44281802      0.52566810      1.78893466 C
  atom      -0.78228032      1.51723658      2.43549663 O
  atom      -0.24328388      1.22255204     -0.22337460 H
  atom       0.58231327     -0.33956710      0.04399354 H
  atom       1.27015591      1.17888518      0.68935917 H
  atom      -0.74678768     -0.74393811      2.18846645 N
  atom      -1.46350840     -1.00854752      3.42125943 C
  atom      -0.98714416     -2.36830987      3.93796546 C
  atom      -0.71945282     -3.27596455      3.14931606 O
  atom      -0.44304656     -1.56132033      1.66689211 H
  atom      -1.21297585     -0.19319377      4.11396470 H
  atom      -2.98884878     -1.03823821      3.20204481 C
  atom      -3.24478517     -1.80809592      2.46293832 H
  atom      -3.31855079     -0.06061313      2.83087484 H
  atom      -3.52650100     -1.26051308      4.13261221 H
  atom      -0.93085713     -2.57186574      5.29135329 N
  atom      -0.83936669     -1.56490697      6.36489352 C
  atom      -0.12788094     -2.17640670      7.58938318 C
  atom       0.85032132     -1.61429688      8.07128024 O
  atom      -0.54438720     -3.48856838      5.50721869 H
  atom      -0.14897344     -0.76844608      6.05481943 H
  atom      -2.17395477     -0.91679541      6.76848844 C
  atom      -2.02133790     -0.30073566      7.66438320 H
  atom      -2.95027214     -1.66031900      6.98259266 H
  atom      -2.54486400     -0.25564949      5.97728948 H
  atom      -0.58680985     -3.36220948      8.10909443 N
  atom      -1.87322119     -4.02631021      7.93831327 C
  atom      -0.04192524     -3.63937041      8.92205007 H
  atom      -1.74457298     -5.10318587      8.10254383 H
  atom      -2.25514933     -3.88905891      6.92218983 H
  atom      -2.63051527     -3.65423088      8.64658110 H
  
  -----------------------------------------------------------------------
  Completed first pass over input file geometry.in .
  -----------------------------------------------------------------------
  

  Basic array size parameters:
  | Number of species                 :        4
  | Number of atoms                   :       32
  | Max. basis fn. angular momentum   :        4
  | Max. atomic/ionic basis occupied n:        2
  | Max. number of basis fn. types    :        2
  | Max. radial fns per species/type  :        8
  | Max. logarithmic grid size        :     1301
  | Max. radial integration grid size :       73
  | Max. angular integration grid size:      434
  | Max. angular grid division number :        8
  | Radial grid for Hartree potential :     1301
  | Number of spin channels           :        1

------------------------------------------------------------
          Reading file control.in.
------------------------------------------------------------
  XC: Using PBE gradient-corrected functionals.
  Spin treatment: No spin polarisation.
  Charge =   0.000000E+00: Neutral system requested explicitly.
  Occupation type: Gaussian broadening, width =   0.500000E-01 eV.
  Using pulay charge density mixing.
  Pulay mixing - number of memorized iterations:   10
  Charge density mixing - mixing parameter:     0.5000
  Convergence accuracy of self-consistent charge density:  0.1000E-03
  Convergence accuracy of sum of eigenvalues:  0.1000E-01
  Convergence accuracy of total energy:  0.1000E-04
  Convergence accuracy of forces:  0.1000E-03
  Maximum number of s.-c. iterations  :  1000
  Fitting ESP-charges to Potential. 
  | Esp charge output options: 
  | ESP Grid method: 3, cubic grid
  | Number of points in x, ,y, z:  0080 0080 0080
  |
 
  Reading configuration options for species H                   .
  | Found nuclear charge :   1.0000
  | Found atomic mass :    1.00794000000000      amu
  | Found l_max for Hartree potential  :   6
  | Found cutoff potl. onset [A], width [A], scale factor :    4.00000    2.00000    1.00000
  | Threshold for basis-dependent cutoff potential is   0.100000E-03
  | Found data for basic radial integration grid :    24 points, outermost radius =    7.000 A
  | Found multiplier for basic radial grid :   2
  | Found angular grid specification: user-specified.
  | Specified grid contains     6 separate shells.
  | Check grid settings after all constraints further below.
  | Found free-atom valence shell :  1 s   1.000
  | No ionic wave fns used. Skipping ion_occ.
  | Found hydrogenic basis function :  2 s   2.100
  | Found hydrogenic basis function :  2 p   3.500
  | Found hydrogenic basis function :  1 s   0.850
  | Found hydrogenic basis function :  2 p   3.700
  | Found hydrogenic basis function :  2 s   1.200
  | Found hydrogenic basis function :  3 d   7.000
  Species H                   : Missing cutoff potential type.
  Defaulting to exp(1/x)/(1-x)^2 type cutoff potential.
  Species H : No 'logarithmic' tag. Using default grid for free atom:
  | Default logarithmic grid data [bohr] : 0.1000E-03 0.1000E+03 0.1012E+01
  Species H : On-site basis accuracy parameter (for Gram-Schmidt orthonormalisation) not specified.
  Using default value basis_acc =  0.1000000E-03.
  Species H                   : Using default innermost maximum threshold i_radial=  2 for radial functions.
  Species H                   : Default cutoff onset for free atom density etc. : 0.40000000E+01 AA.
  Species H                   : Basic radial grid will be enhanced according to radial_multiplier =   2, to contain    49 grid points.
 
  Reading configuration options for species C                   .
  | Found nuclear charge :   6.0000
  | Found atomic mass :    12.0107000000000      amu
  | Found l_max for Hartree potential  :   6
  | Found cutoff potl. onset [A], width [A], scale factor :    4.00000    2.00000    1.00000
  | Threshold for basis-dependent cutoff potential is   0.100000E-03
  | Found data for basic radial integration grid :    34 points, outermost radius =    7.000 A
  | Found multiplier for basic radial grid :   2
  | Found angular grid specification: user-specified.
  | Specified grid contains     6 separate shells.
  | Check grid settings after all constraints further below.
  | Found free-atom valence shell :  2 s   2.000
  | Found free-atom valence shell :  2 p   2.000
  | No ionic wave fns used. Skipping ion_occ.
  | No ionic wave fns used. Skipping ion_occ.
  | Found hydrogenic basis function :  2 p   1.700
  | Found hydrogenic basis function :  3 d   6.000
  | Found hydrogenic basis function :  2 s   4.900
  | Found hydrogenic basis function :  4 f   9.800
  | Found hydrogenic basis function :  3 p   5.200
  | Found hydrogenic basis function :  3 s   4.300
  | Found hydrogenic basis function :  5 g  14.400
  | Found hydrogenic basis function :  3 d   6.200
  Species C                   : Missing cutoff potential type.
  Defaulting to exp(1/x)/(1-x)^2 type cutoff potential.
  Species C : No 'logarithmic' tag. Using default grid for free atom:
  | Default logarithmic grid data [bohr] : 0.1000E-03 0.1000E+03 0.1012E+01
  Species C : On-site basis accuracy parameter (for Gram-Schmidt orthonormalisation) not specified.
  Using default value basis_acc =  0.1000000E-03.
  Species C                   : Using default innermost maximum threshold i_radial=  2 for radial functions.
  Species C                   : Default cutoff onset for free atom density etc. : 0.40000000E+01 AA.
  Species C                   : Basic radial grid will be enhanced according to radial_multiplier =   2, to contain    69 grid points.
 
  Reading configuration options for species N                   .
  | Found nuclear charge :   7.0000
  | Found atomic mass :    14.0067000000000      amu
  | Found l_max for Hartree potential  :   6
  | Found cutoff potl. onset [A], width [A], scale factor :    4.00000    2.00000    1.00000
  | Threshold for basis-dependent cutoff potential is   0.100000E-03
  | Found data for basic radial integration grid :    35 points, outermost radius =    7.000 A
  | Found multiplier for basic radial grid :   2
  | Found angular grid specification: user-specified.
  | Specified grid contains     6 separate shells.
  | Check grid settings after all constraints further below.
  | Found free-atom valence shell :  2 s   2.000
  | Found free-atom valence shell :  2 p   3.000
  | No ionic wave fns used. Skipping ion_occ.
  | No ionic wave fns used. Skipping ion_occ.
  | Found hydrogenic basis function :  2 p   1.800
  | Found hydrogenic basis function :  3 d   6.800
  | Found hydrogenic basis function :  3 s   5.800
  | Found hydrogenic basis function :  4 f  10.800
  | Found hydrogenic basis function :  3 p   5.800
  | Found hydrogenic basis function :  1 s   0.800
  | Found hydrogenic basis function :  5 g  16.000
  | Found hydrogenic basis function :  3 d   4.900
  Species N                   : Missing cutoff potential type.
  Defaulting to exp(1/x)/(1-x)^2 type cutoff potential.
  Species N : No 'logarithmic' tag. Using default grid for free atom:
  | Default logarithmic grid data [bohr] : 0.1000E-03 0.1000E+03 0.1012E+01
  Species N : On-site basis accuracy parameter (for Gram-Schmidt orthonormalisation) not specified.
  Using default value basis_acc =  0.1000000E-03.
  Species N                   : Using default innermost maximum threshold i_radial=  2 for radial functions.
  Species N                   : Default cutoff onset for free atom density etc. : 0.40000000E+01 AA.
  Species N                   : Basic radial grid will be enhanced according to radial_multiplier =   2, to contain    71 grid points.
 
  Reading configuration options for species O                   .
  | Found nuclear charge :   8.0000
  | Found atomic mass :    15.9994000000000      amu
  | Found l_max for Hartree potential  :   6
  | Found cutoff potl. onset [A], width [A], scale factor :    4.00000    2.00000    1.00000
  | Threshold for basis-dependent cutoff potential is   0.100000E-03
  | Found data for basic radial integration grid :    36 points, outermost radius =    7.000 A
  | Found multiplier for basic radial grid :   2
  | Found angular grid specification: user-specified.
  | Specified grid contains     6 separate shells.
  | Check grid settings after all constraints further below.
  | Found free-atom valence shell :  2 s   2.000
  | Found free-atom valence shell :  2 p   4.000
  | No ionic wave fns used. Skipping ion_occ.
  | No ionic wave fns used. Skipping ion_occ.
  | Found hydrogenic basis function :  2 p   1.800
  | Found hydrogenic basis function :  3 d   7.600
  | Found hydrogenic basis function :  3 s   6.400
  | Found hydrogenic basis function :  4 f  11.600
  | Found hydrogenic basis function :  3 p   6.200
  | Found hydrogenic basis function :  3 d   5.600
  | Found hydrogenic basis function :  5 g  17.600
  | Found hydrogenic basis function :  1 s   0.750
  Species O                   : Missing cutoff potential type.
  Defaulting to exp(1/x)/(1-x)^2 type cutoff potential.
  Species O : No 'logarithmic' tag. Using default grid for free atom:
  | Default logarithmic grid data [bohr] : 0.1000E-03 0.1000E+03 0.1012E+01
  Species O : On-site basis accuracy parameter (for Gram-Schmidt orthonormalisation) not specified.
  Using default value basis_acc =  0.1000000E-03.
  Species O                   : Using default innermost maximum threshold i_radial=  2 for radial functions.
  Species O                   : Default cutoff onset for free atom density etc. : 0.40000000E+01 AA.
  Species O                   : Basic radial grid will be enhanced according to radial_multiplier =   2, to contain    73 grid points.
 
  Finished reading input file 'control.in'. Consistency checks are next.
 
  Target number of points in a grid batch is not set. Defaulting to  100
  Method for grid partitioning is not set. Defaulting to parallel hash+maxmin partitioning.
  Batch size limit is not set. Defaulting to    200
  By default, will store active basis functions for each batch.
  If in need of memory, prune_basis_once .false. can be used to disable this option.
  communication_type for Hartree potential was not specified.
  Defaulting to calc_hartree .
  Pulay mixer: Number of initial linear mixing iterations not set.
  Defaulting to    0 iterations.
  Work space size for distributed Hartree potential not set.
  Defaulting to   0.200000E+03 MB.
  Algorithm-dependent basis array size parameters:
  | n_max_pulay                         :       10
  Geometry relaxation not requested: no relaxation will be performed.
  Handling of forces: Unphysical translation and rotation will be removed from forces.
  No accuracy limit for integral partition fn. given. Defaulting to  0.1000E-14.
  No threshold value for u(r) in integrations given. Defaulting to  0.1000E-05.
  No accuracy for occupation numbers given. Defaulting to  0.1000E-07.
  No threshold value for occupation numbers given. Defaulting to  0.0000E+00.
  No accuracy for fermi level given. Defaulting to  0.1000E-19.
  Maximum # of iterations to find E_F not set. Defaulting to  200.
  Preferred method for the eigenvalue solver ('KS_method') not specified in 'control.in'.
  Calling blacs routine to test compilation state
  Since scalapack support is enabled, defaulting to 'elpa'.
  Preferred method for the MBD eigenvalue solver ('mbd_eigensolver') not specified in 'control.in'.
  Calling blacs routine to test compilation state
  Since scalapack support is enabled, defaulting to 'scaLAPACK'.
  Will not use alltoall communication since running on < 1024 CPUs.
  Threshold for basis singularities not set.
  Default threshold for basis singularities:  0.1000E-04
  partition_type (choice of integration weights) for integrals was not specified.
  | Using a version of the partition function of Stratmann and coworkers ('stratmann_smoother').
  | At each grid point, the set of atoms used to build the partition table is smoothly restricted to
  | only those atoms whose free-atom density would be non-zero at that grid point.
  Partitioning for Hartree potential was not defined. Using partition_type for integrals.
  | Adjusted default value of keyword multip_moments_threshold to:       0.10000000E-11
  | This value may affect high angular momentum components of the Hartree potential in periodic systems.
  No q(lm)/r^(l+1) cutoff set for long-range Hartree potential.
  | Using default value of  0.100000E-09 .
  | Verify using the multipole_threshold keyword.
  Defaulting to new monopole extrapolation.
  Density update method: automatic selection selected.
------------------------------------------------------------


------------------------------------------------------------
          Reading geometry description geometry.in.
------------------------------------------------------------
 * Warning! You did not set the 'relativistic' flag in input file 'control.in'.
 * Since you are not attempting to treat any elements beyond Ca(Z=20), FHI-aims
 * will default to 'relativistic none'.
 * You must ensure that this is really what you want!!
 * For example, DO NOT compute total-energy differences between results from
 * different settings of the 'relativistic' flag.
  Input structure read successfully.
  The structure contains       32 atoms,  and a total of        116.000 electrons.

  Input geometry:
  | No unit cell requested.
  | Atomic structure:
  |       Atom                x [A]            y [A]            z [A]
  |    1: Species C              0.339968         0.631213         0.493608
  |    2: Species C             -0.442818         0.525668         1.788935
  |    3: Species O             -0.782280         1.517237         2.435497
  |    4: Species H             -0.243284         1.222552        -0.223375
  |    5: Species H              0.582313        -0.339567         0.043994
  |    6: Species H              1.270156         1.178885         0.689359
  |    7: Species N             -0.746788        -0.743938         2.188466
  |    8: Species C             -1.463508        -1.008548         3.421259
  |    9: Species C             -0.987144        -2.368310         3.937965
  |   10: Species O             -0.719453        -3.275965         3.149316
  |   11: Species H             -0.443047        -1.561320         1.666892
  |   12: Species H             -1.212976        -0.193194         4.113965
  |   13: Species C             -2.988849        -1.038238         3.202045
  |   14: Species H             -3.244785        -1.808096         2.462938
  |   15: Species H             -3.318551        -0.060613         2.830875
  |   16: Species H             -3.526501        -1.260513         4.132612
  |   17: Species N             -0.930857        -2.571866         5.291353
  |   18: Species C             -0.839367        -1.564907         6.364894
  |   19: Species C             -0.127881        -2.176407         7.589383
  |   20: Species O              0.850321        -1.614297         8.071280
  |   21: Species H             -0.544387        -3.488568         5.507219
  |   22: Species H             -0.148973        -0.768446         6.054819
  |   23: Species C             -2.173955        -0.916795         6.768488
  |   24: Species H             -2.021338        -0.300736         7.664383
  |   25: Species H             -2.950272        -1.660319         6.982593
  |   26: Species H             -2.544864        -0.255649         5.977289
  |   27: Species N             -0.586810        -3.362209         8.109094
  |   28: Species C             -1.873221        -4.026310         7.938313
  |   29: Species H             -0.041925        -3.639370         8.922050
  |   30: Species H             -1.744573        -5.103186         8.102544
  |   31: Species H             -2.255149        -3.889059         6.922190
  |   32: Species H             -2.630515        -3.654231         8.646581
  |

  | The smallest distance between any two atoms is         1.01607684 AA.
  |
  | The first atom of this pair is atom number                      7 .
  | The second atom of this pair is atom number                    11 .

  Number of empty states per atom not set in control.in - providing a guess from actual geometry.
  | Total number of empty states used during s.c.f. cycle:       71
  If you use a very high smearing, use empty_states (per atom!) in control.in to increase this value.

  Structure-dependent array size parameters: 
  | Maximum number of distinct radial functions  :       40
  | Maximum number of basis functions            :      840
  | Number of Kohn-Sham states (occupied + empty):      129
------------------------------------------------------------

------------------------------------------------------------
          Preparing all fixed parts of the calculation.
------------------------------------------------------------
  Determining machine precision:
    2.225073858507201E-308
  Setting up grids for atomic and cluster calculations.

  Creating wave function, potential, and density for free atoms.

  Species: H

  List of occupied orbitals and eigenvalues:
    n    l              occ      energy [Ha]    energy [eV]
    1    0           1.0000        -0.238382        -6.4867


  Species: C

  List of occupied orbitals and eigenvalues:
    n    l              occ      energy [Ha]    energy [eV]
    1    0           2.0000       -10.041232      -273.2358
    2    0           2.0000        -0.504327       -13.7234
    2    1           2.0000        -0.193750        -5.2722


  Species: N

  List of occupied orbitals and eigenvalues:
    n    l              occ      energy [Ha]    energy [eV]
    1    0           2.0000       -14.129007      -384.4699
    2    0           2.0000        -0.681802       -18.5528
    2    1           3.0000        -0.260543        -7.0897


  Species: O

  List of occupied orbitals and eigenvalues:
    n    l              occ      energy [Ha]    energy [eV]
    1    0           2.0000       -18.898576      -514.2564
    2    0           2.0000        -0.878795       -23.9132
    2    1           4.0000        -0.332075        -9.0362

  Creating fixed part of basis set: Ionic, confined, hydrogenic.
 
  H                    hydrogenic:
 
  List of hydrogenic basis orbitals: 
    n    l      effective z      eigenvalue [eV]  inner max. [A]     outer max. [A]     outer radius [A]   
    2    0         2.100000       -14.9965           0.193243           1.317208           5.373006
    2    1         3.500000       -41.6672           0.602369           0.602369           4.056063
    1    0         0.850000        -9.8292           0.624871           0.624871           5.373006
    2    1         3.700000       -46.5653           0.573622           0.573622           3.910002
    2    0         1.200000        -4.5995           0.334980           2.228188           5.505995
    3    2         7.000000       -74.0753           0.680699           0.680699           3.769201
 
 
  C                    hydrogenic:
 
  List of hydrogenic basis orbitals: 
    n    l      effective z      eigenvalue [eV]  inner max. [A]     outer max. [A]     outer radius [A]   
    2    1         1.700000        -9.8152           1.245706           1.245706           5.401630
    3    2         6.000000       -54.4226           0.792453           0.792453           4.178599
    2    0         4.900000       -81.6681           0.082559           0.562749           3.353238
    4    3         9.800000       -81.6681           0.863254           0.863254           4.028125
    3    1         5.200000       -40.8774           0.305389           1.215618           4.898362
    3    0         4.300000       -27.9508           0.091041           1.610311           5.401630
    5    4        14.400000      -112.8510           0.917666           0.917666           3.883070
    3    2         6.200000       -58.1113           0.763917           0.763917           4.077671
 
 
  N                    hydrogenic:
 
  List of hydrogenic basis orbitals: 
    n    l      effective z      eigenvalue [eV]  inner max. [A]     outer max. [A]     outer radius [A]   
    2    1         1.800000       -11.0118           1.177451           1.177451           5.427479
    3    2         6.800000       -69.9029           0.704619           0.704619           3.854246
    3    0         5.800000       -50.8549           0.067388           1.191934           4.629968
    4    3        10.800000       -99.1854           0.786571           0.786571           3.761152
    3    1         5.800000       -50.8549           0.274880           1.094176           4.518138
    1    0         0.800000        -8.7059           0.662839           0.662839           5.361532
    5    4        16.000000      -139.3222           0.825990           0.825990           3.625711
    3    2         4.900000       -36.2967           0.968267           0.968267           4.862000
 
 
  O                    hydrogenic:
 
  List of hydrogenic basis orbitals: 
    n    l      effective z      eigenvalue [eV]  inner max. [A]     outer max. [A]     outer radius [A]   
    2    1         1.800000       -11.0118           1.178562           1.178562           5.432602
    3    2         7.600000       -87.3182           0.624125           0.624125           3.541477
    3    0         6.400000       -61.9209           0.061167           1.081902           4.306578
    4    3        11.600000      -114.4238           0.731631           0.731631           3.585037
    3    1         6.200000       -58.1113           0.255680           1.030270           4.306578
    3    2         5.600000       -47.4081           0.847233           0.847233           4.413171
    5    4        17.600000      -168.5799           0.749740           0.749740           3.372465
    1    0         0.750000        -7.6499           0.705284           0.705284           5.366593
 

  Adding cutoff potential to free-atom effective potential.
  Creating atomic-like basis functions for current effective potential.

  Species H                   :

  List of atomic basis orbitals and eigenvalues:
    n    l      energy [Ha]    energy [eV]    outer radius [A]
    1    0        -0.238382        -6.4867       5.373006


  Species C                   :

  List of atomic basis orbitals and eigenvalues:
    n    l      energy [Ha]    energy [eV]    outer radius [A]
    1    0       -10.041232      -273.2358       1.934409
    2    0        -0.504327       -13.7234       5.271162
    2    1        -0.193750        -5.2722       5.401630


  Species N                   :

  List of atomic basis orbitals and eigenvalues:
    n    l      energy [Ha]    energy [eV]    outer radius [A]
    1    0       -14.129007      -384.4699       1.637919
    2    0        -0.681802       -18.5528       5.168461
    2    1        -0.260543        -7.0897       5.361532


  Species O                   :

  List of atomic basis orbitals and eigenvalues:
    n    l      energy [Ha]    energy [eV]    outer radius [A]
    1    0       -18.898576      -514.2564       1.415765
    2    0        -0.878795       -23.9132       5.048385
    2    1        -0.332075        -9.0362       5.301386

  Assembling full basis from fixed parts.
  | Species H :   atomic orbital   1 s accepted.
  | Species H :    hydro orbital   2 s accepted.
  | Species H :    hydro orbital   1 s accepted.
  | Species H :    hydro orbital   2 s accepted.
  | Species H :    hydro orbital   2 p accepted.
  | Species H :    hydro orbital   2 p accepted.
  | Species H :    hydro orbital   3 d accepted.
  | Species C :   atomic orbital   1 s accepted.
  | Species C :    hydro orbital   2 s accepted.
  | Species C :   atomic orbital   2 s accepted.
  | Species C :    hydro orbital   3 s accepted.
  | Species C :    hydro orbital   3 p accepted.
  | Species C :   atomic orbital   2 p accepted.
  | Species C :    hydro orbital   2 p accepted.
  | Species C :    hydro orbital   3 d accepted.
  | Species C :    hydro orbital   3 d accepted.
  | Species C :    hydro orbital   4 f accepted.
  | Species C :    hydro orbital   5 g accepted.
  | Species N :   atomic orbital   1 s accepted.
  | Species N :    hydro orbital   3 s accepted.
  | Species N :   atomic orbital   2 s accepted.
  | Species N :    hydro orbital   1 s accepted.
  | Species N :    hydro orbital   3 p accepted.
  | Species N :   atomic orbital   2 p accepted.
  | Species N :    hydro orbital   2 p accepted.
  | Species N :    hydro orbital   3 d accepted.
  | Species N :    hydro orbital   3 d accepted.
  | Species N :    hydro orbital   4 f accepted.
  | Species N :    hydro orbital   5 g accepted.
  | Species O :   atomic orbital   1 s accepted.
  | Species O :    hydro orbital   3 s accepted.
  | Species O :   atomic orbital   2 s accepted.
  | Species O :    hydro orbital   1 s accepted.
  | Species O :    hydro orbital   3 p accepted.
  | Species O :   atomic orbital   2 p accepted.
  | Species O :    hydro orbital   2 p accepted.
  | Species O :    hydro orbital   3 d accepted.
  | Species O :    hydro orbital   3 d accepted.
  | Species O :    hydro orbital   4 f accepted.
  | Species O :    hydro orbital   5 g accepted.
 
  Basis size parameters after reduction:
  | Total number of radial functions:       40
  | Total number of basis functions :      840
 
  Testing on-site integration grid accuracy.
  |  Species  Function  <phi|h_atom|phi> (log., in eV)  <phi|h_atom|phi> (rad., in eV)
           1        1                 -6.4869821809                 -6.4870742227
           1        2                 13.5044133542                 13.5041049177
           1        3                 32.7854418792                 32.7779770519
           1        4                 33.7995553101                 33.7152624900 ***
           1        5                 28.8558651799                 28.8558652046
           1        6                 59.6361831893                 59.6362535845
           1        7                 60.2733718049                 60.2733715484
           2        8               -273.2358277112               -273.2358261765
           2        9                -10.7624923123                -10.7625144012
           2       10                 17.4634079027                 17.4634252127
           2       11                 53.0363661832                 53.0366180446
           2       12                 15.0981351967                 15.0981317714
           2       13                  3.8522181899                  3.8522770949
           2       14                 12.1181835661                 12.1206868578
           2       15                 29.4320778347                 29.4320780959
           2       16                 54.8753777694                 54.8752901936
           2       17                 59.3533975461                 59.3533974833
           2       18                 93.4537491195                 93.4537492066
           3       19               -384.4698526889               -384.4698499465
           3       20                 12.5691022037                 12.5690910168
           3       21                -15.7489097511                -15.7489165588
           3       22                 27.0978334940                 27.0985589490
           3       23                 18.5949116966                 18.5949125562
           3       24                  1.2212828291                  1.2212855301
           3       25                 13.4428926797                 13.4434051125
           3       26                 35.9380614500                 35.9380613666
           3       27                 39.9231532098                 39.9231654735
           3       28                 72.9957335806                 72.9957336833
           3       29                116.4231321147                116.4231321431
           4       30               -514.2564144315               -514.2564099626
           4       31                 15.1726678541                 15.1726530877
           4       32                -21.5447785304                -21.5447874973
           4       33                 14.4944558459                 14.4944698284
           4       34                 20.8882174564                 20.8882178906
           4       35                 -2.4850315908                 -2.4850322289
           4       36                 13.8600193195                 13.8599826966
           4       37                 45.8243383616                 45.8243383675
           4       38                 52.1840606465                 52.1840622440
           4       39                 85.4074185510                 85.4074185819
           4       40                142.0983717302                142.0983717339
 * Note: Onsite integrals marked "***" above are less accurate than
 * onsite_accuracy_threshold =    0.03000 eV. Usually, this is harmless.
 * When in doubt, tighten the "radial" and/or "radial_multiplier" flags to check.

  Preparing densities etc. for the partition functions (integrals / Hartree potential).

  Preparations completed.
  max(cpu_time)          :      0.240 s.
  Wall clock time (cpu1) :      0.238 s.
------------------------------------------------------------

------------------------------------------------------------
          Begin self-consistency loop: Initialization.

          Date     :  20170309, Time     :  180826.261
------------------------------------------------------------

  Initializing index lists of integration centers etc. from given atomic structure:
  | Number of centers in hartree potential         :        32
  | Number of centers in hartree multipole         :        32
  | Number of centers in electron density summation:        32
  | Number of centers in basis integrals           :        32
  | Number of centers in integrals                 :        32
  | Number of centers in hamiltonian               :        32
  Using modified Scalapack Eigenvalue solver (ELPA)
  * Using 32 tasks for Scalapack Eigenvalue solver.
  Detailed listing of tasks and assigned k-points:
  (for non-periodic systems, the "k-point" denotes an internal label only)
   Task     0 k-point     1 on eos399
   Task     1 k-point     1 on eos399
   Task     2 k-point     1 on eos399
   Task     3 k-point     1 on eos399
   Task     4 k-point     1 on eos399
   Task     5 k-point     1 on eos399
   Task     6 k-point     1 on eos399
   Task     7 k-point     1 on eos399
   Task     8 k-point     1 on eos399
   Task     9 k-point     1 on eos399
   Task    10 k-point     1 on eos399
   Task    11 k-point     1 on eos399
   Task    12 k-point     1 on eos399
   Task    13 k-point     1 on eos399
   Task    14 k-point     1 on eos399
   Task    15 k-point     1 on eos399
   Task    16 k-point     1 on eos399
   Task    17 k-point     1 on eos399
   Task    18 k-point     1 on eos399
   Task    19 k-point     1 on eos399
   Task    20 k-point     1 on eos399
   Task    21 k-point     1 on eos399
   Task    22 k-point     1 on eos399
   Task    23 k-point     1 on eos399
   Task    24 k-point     1 on eos399
   Task    25 k-point     1 on eos399
   Task    26 k-point     1 on eos399
   Task    27 k-point     1 on eos399
   Task    28 k-point     1 on eos399
   Task    29 k-point     1 on eos399
   Task    30 k-point     1 on eos399
   Task    31 k-point     1 on eos399
  Tasks:    32 split into      8 X      4 BLACS grid
  Calculating blocksize based on n_basis =          840 max_nprow =            8 max_npcol =            4
  Scalapack blocksize set to:           16
  Required Scalapack workspace - INTEGER:            1 REAL:             1
  Partitioning the integration grid into batches with parallel hashing+maxmin method.
  | Number of batches:     5200
  | Maximal batch size:     200
  | Minimal batch size:      12
  | Average batch size:     101.486
  | Standard deviation of batch sizes:      29.473

  Integration load balanced across    32 MPI tasks.
  Work distribution over tasks is as follows:
  Task     0 has      16556 integration points.
  Task     1 has      16551 integration points.
  Task     2 has      16418 integration points.
  Task     3 has      16430 integration points.
  Task     4 has      16479 integration points.
  Task     5 has      16546 integration points.
  Task     6 has      16537 integration points.
  Task     7 has      16548 integration points.
  Task     8 has      16427 integration points.
  Task     9 has      16553 integration points.
  Task    10 has      16480 integration points.
  Task    11 has      16422 integration points.
  Task    12 has      16543 integration points.
  Task    13 has      16544 integration points.
  Task    14 has      16537 integration points.
  Task    15 has      16432 integration points.
  Task    16 has      16419 integration points.
  Task    17 has      16512 integration points.
  Task    18 has      16521 integration points.
  Task    19 has      16422 integration points.
  Task    20 has      16600 integration points.
  Task    21 has      16419 integration points.
  Task    22 has      16470 integration points.
  Task    23 has      16416 integration points.
  Task    24 has      16423 integration points.
  Task    25 has      16550 integration points.
  Task    26 has      16418 integration points.
  Task    27 has      16518 integration points.
  Task    28 has      16596 integration points.
  Task    29 has      16427 integration points.
  Task    30 has      16596 integration points.
  Task    31 has      16418 integration points.
  Initializing partition tables, free-atom densities, potentials, etc. across the integration grid (initialize_grid_storage).
  | initialize_grid_storage: Actual outermost partition radius vs. multipole_radius_free
  | (-- VB: in principle, multipole_radius_free should be larger, hence this output)
  | Species        1: Confinement radius =              6.000000000000000 AA, multipole_radius_free =              6.071692442739658 AA.
  | Species        1: outer_partition_radius set to              6.071692442739658 AA .
  | Species        2: Confinement radius =              6.000000000000000 AA, multipole_radius_free =              6.029870734432609 AA.
  | Species        2: outer_partition_radius set to              6.029870734432609 AA .
  | Species        3: Confinement radius =              6.000000000000000 AA, multipole_radius_free =              6.058726835495003 AA.
  | Species        3: outer_partition_radius set to              6.058726835495003 AA .
  | Species        4: Confinement radius =              6.000000000000000 AA, multipole_radius_free =              6.064445521808699 AA.
  | Species        4: outer_partition_radius set to              6.064445521808699 AA .
  | Original list of interatomic distances with          32 x         32 entries is created.
  | Net number of integration points:   527728
  | of which are non-zero points    :   415851
  Obtaining max. number of non-zero basis functions in each batch (get_n_compute_maxes).
  | Maximal number of non-zero basis functions:      725 in task     0
  | Maximal number of non-zero basis functions:      719 in task     1
  | Maximal number of non-zero basis functions:      710 in task     2
  | Maximal number of non-zero basis functions:      711 in task     3
  | Maximal number of non-zero basis functions:      726 in task     4
  | Maximal number of non-zero basis functions:      727 in task     5
  | Maximal number of non-zero basis functions:      725 in task     6
  | Maximal number of non-zero basis functions:      717 in task     7
  | Maximal number of non-zero basis functions:      707 in task     8
  | Maximal number of non-zero basis functions:      734 in task     9
  | Maximal number of non-zero basis functions:      719 in task    10
  | Maximal number of non-zero basis functions:      732 in task    11
  | Maximal number of non-zero basis functions:      736 in task    12
  | Maximal number of non-zero basis functions:      712 in task    13
  | Maximal number of non-zero basis functions:      722 in task    14
  | Maximal number of non-zero basis functions:      713 in task    15
  | Maximal number of non-zero basis functions:      732 in task    16
  | Maximal number of non-zero basis functions:      717 in task    17
  | Maximal number of non-zero basis functions:      718 in task    18
  | Maximal number of non-zero basis functions:      725 in task    19
  | Maximal number of non-zero basis functions:      726 in task    20
  | Maximal number of non-zero basis functions:      724 in task    21
  | Maximal number of non-zero basis functions:      710 in task    22
  | Maximal number of non-zero basis functions:      718 in task    23
  | Maximal number of non-zero basis functions:      726 in task    24
  | Maximal number of non-zero basis functions:      710 in task    25
  | Maximal number of non-zero basis functions:      731 in task    26
  | Maximal number of non-zero basis functions:      736 in task    27
  | Maximal number of non-zero basis functions:      709 in task    28
  | Maximal number of non-zero basis functions:      735 in task    29
  | Maximal number of non-zero basis functions:      720 in task    30
  | Maximal number of non-zero basis functions:      717 in task    31
  Selecting the method for density update.
  Loop over occupied states selected for charge density update.
  Integrating Hamiltonian matrix: batch-based integration.
  Time summed over all CPUs for integration: real work       20.424 s, elapsed       21.187 s
  Integrating overlap matrix.
  Time summed over all CPUs for integration: real work       12.382 s, elapsed       12.694 s
  Deallocating overlap matrix.

  Updating Kohn-Sham eigenvalues, eigenvectors, occupation numbers, and Fermi level.
  Solving generalized eigenproblem
  Solving real symmetric generalised eigenvalue problem by standard ScaLAPACK.
  Transforming overlap matrix with ScaLAPACK and checking for singularities.
  : Overlap matrix is nonsingular, using Cholesky decomposition
  | Lowest eigenvalue:  0.895161E-04
  Factoring overlap matrix with Cholesky decomposition
  Using Cholesky factor for transformation
  Using 1-stage real ELPA solver
  Determining occupation numbers for Kohn-Sham eigenstates.
  | Chemical potential (Fermi level) in eV                 : -.95343201E+01
  | Error in electron count due to remaining E_F inaccuracy: 0.00000000E+00
  | Maximum occupation number of highest empty state:  0.00E+00

  Writing Kohn-Sham eigenvalues.

  State    Occupation    Eigenvalue [Ha]    Eigenvalue [eV]
      1       2.00000         -18.974664         -516.32688
      2       2.00000         -18.973714         -516.30103
      3       2.00000         -18.973434         -516.29341
      4       2.00000         -14.255993         -387.92531
      5       2.00000         -14.252850         -387.83979
      6       2.00000         -14.251695         -387.80836
      7       2.00000         -10.170887         -276.76393
      8       2.00000         -10.170731         -276.75968
      9       2.00000         -10.170164         -276.74425
     10       2.00000         -10.166438         -276.64285
     11       2.00000         -10.149978         -276.19496
     12       2.00000         -10.147088         -276.11631
     13       2.00000         -10.136372         -275.82470
     14       2.00000         -10.134713         -275.77956
     15       2.00000         -10.134114         -275.76327
     16       2.00000          -1.134270          -30.86505
     17       2.00000          -1.132492          -30.81667
     18       2.00000          -1.128244          -30.70107
     19       2.00000          -1.016469          -27.65953
     20       2.00000          -1.015469          -27.63231
     21       2.00000          -1.001285          -27.24634
     22       2.00000          -0.885480          -24.09513
     23       2.00000          -0.877419          -23.87578
     24       2.00000          -0.841604          -22.90121
     25       2.00000          -0.816093          -22.20703
     26       2.00000          -0.778039          -21.17152
     27       2.00000          -0.764403          -20.80048
     28       2.00000          -0.698199          -18.99897
     29       2.00000          -0.686790          -18.68852
     30       2.00000          -0.681202          -18.53645
     31       2.00000          -0.641215          -17.44835
     32       2.00000          -0.620946          -16.89680
     33       2.00000          -0.609077          -16.57383
     34       2.00000          -0.597464          -16.25783
     35       2.00000          -0.588523          -16.01454
     36       2.00000          -0.576514          -15.68773
     37       2.00000          -0.570770          -15.53143
     38       2.00000          -0.565732          -15.39434
     39       2.00000          -0.556722          -15.14917
     40       2.00000          -0.552978          -15.04730
     41       2.00000          -0.548312          -14.92032
     42       2.00000          -0.547845          -14.90762
     43       2.00000          -0.537892          -14.63680
     44       2.00000          -0.531482          -14.46237
     45       2.00000          -0.523512          -14.24549
     46       2.00000          -0.519226          -14.12885
     47       2.00000          -0.507331          -13.80517
     48       2.00000          -0.500665          -13.62378
     49       2.00000          -0.490942          -13.35922
     50       2.00000          -0.486901          -13.24926
     51       2.00000          -0.478828          -13.02958
     52       2.00000          -0.474120          -12.90145
     53       2.00000          -0.411192          -11.18910
     54       2.00000          -0.403250          -10.97298
     55       2.00000          -0.397646          -10.82049
     56       2.00000          -0.390084          -10.61474
     57       2.00000          -0.384386          -10.45968
     58       2.00000          -0.381563          -10.38285
     59       0.00000          -0.175817           -4.78423
     60       0.00000          -0.160756           -4.37440
     61       0.00000          -0.150836           -4.10445
     62       0.00000          -0.080491           -2.19026
     63       0.00000          -0.066638           -1.81331
     64       0.00000          -0.059868           -1.62910
     65       0.00000          -0.054357           -1.47913
     66       0.00000          -0.042378           -1.15318
     67       0.00000          -0.041036           -1.11666
     68       0.00000          -0.032278           -0.87832
     69       0.00000          -0.031721           -0.86317
     70       0.00000          -0.027509           -0.74856
     71       0.00000          -0.024795           -0.67472
     72       0.00000          -0.013841           -0.37663
     73       0.00000          -0.009993           -0.27193
     74       0.00000          -0.006644           -0.18080
     75       0.00000          -0.005687           -0.15476
     76       0.00000          -0.000464           -0.01264
     77       0.00000           0.002491            0.06778
     78       0.00000           0.004133            0.11246
     79       0.00000           0.006610            0.17986
     80       0.00000           0.009122            0.24822
     81       0.00000           0.018036            0.49077
     82       0.00000           0.020032            0.54510
     83       0.00000           0.032470            0.88355
     84       0.00000           0.038036            1.03501
     85       0.00000           0.044193            1.20256
     86       0.00000           0.049825            1.35582
     87       0.00000           0.057238            1.55752
     88       0.00000           0.062168            1.69167
     89       0.00000           0.067617            1.83996
     90       0.00000           0.075186            2.04590
     91       0.00000           0.077011            2.09559
     92       0.00000           0.081286            2.21191
     93       0.00000           0.088001            2.39464
     94       0.00000           0.094985            2.58467
     95       0.00000           0.100591            2.73722
     96       0.00000           0.101758            2.76899
     97       0.00000           0.108534            2.95337
     98       0.00000           0.113582            3.09073
     99       0.00000           0.118253            3.21782
    100       0.00000           0.125291            3.40934
    101       0.00000           0.130387            3.54802
    102       0.00000           0.132561            3.60717
    103       0.00000           0.134425            3.65789
    104       0.00000           0.143288            3.89907
    105       0.00000           0.147826            4.02254
    106       0.00000           0.154827            4.21307
    107       0.00000           0.157052            4.27362
    108       0.00000           0.158017            4.29985
    109       0.00000           0.163392            4.44611
    110       0.00000           0.167941            4.56991
    111       0.00000           0.174680            4.75329
    112       0.00000           0.178390            4.85425
    113       0.00000           0.183814            5.00184
    114       0.00000           0.185068            5.03597
    115       0.00000           0.195905            5.33084
    116       0.00000           0.201329            5.47843
    117       0.00000           0.209127            5.69063
    118       0.00000           0.210119            5.71762
    119       0.00000           0.215287            5.85825
    120       0.00000           0.218414            5.94335
    121       0.00000           0.221723            6.03339
    122       0.00000           0.227710            6.19630
    123       0.00000           0.231984            6.31260
    124       0.00000           0.236422            6.43338
    125       0.00000           0.240040            6.53181
    126       0.00000           0.246829            6.71656
    127       0.00000           0.252151            6.86138
    128       0.00000           0.261397            7.11297
    129       0.00000           0.269773            7.34089

  Highest occupied state (VBM) at    -10.38285460 eV
  | Occupation number:      2.00000000

  Lowest unoccupied state (CBM) at    -4.78422840 eV
  | Occupation number:      0.00000000

  Overall HOMO-LUMO gap:      5.59862620 eV.
  Calculating total energy contributions from superposition of free atom densities.

  Total energy components:
  | Sum of eigenvalues            :        -437.83081914 Ha      -11913.98276544 eV
  | XC energy correction          :         -98.81599043 Ha       -2688.91991029 eV
  | XC potential correction       :         127.01569110 Ha        3456.27280809 eV
  | Free-atom electrostatic energy:        -333.64496529 Ha       -9078.94143689 eV
  | Hartree energy correction     :           0.00000000 Ha           0.00000000 eV
  | vdW energy correction         :           0.00000000 Ha           0.00000000 eV
  | Entropy correction            :          -0.00000000 Ha          -0.00000000 eV
  | ---------------------------
  | Total energy                  :        -743.27608375 Ha      -20225.57130454 eV
  | Total energy, T -> 0          :        -743.27608375 Ha      -20225.57130454 eV  <-- do not rely on this value for anything but (periodic) metals
  | Electronic free energy        :        -743.27608375 Ha      -20225.57130454 eV

  Derived energy quantities:
  | Kinetic energy                :         735.15729250 Ha       20004.64775409 eV
  | Electrostatic energy          :       -1379.61738582 Ha      -37541.29914833 eV
  | Energy correction for multipole
  | error in Hartree potential    :           0.00000000 Ha           0.00000000 eV
  | Sum of eigenvalues per atom                           :        -372.31196142 eV
  | Total energy (T->0) per atom                          :        -632.04910327 eV  <-- do not rely on this value for anything but (periodic) metals
  | Electronic free energy per atom                       :        -632.04910327 eV
  Initialize hartree_potential_storage
  Max. number of atoms included in rho_multipole:           32

  End scf initialization - timings             :  max(cpu_time)    wall_clock(cpu1)
  | Time for scf. initialization               :        1.784 s           1.785 s
  | Boundary condition initialization          :        0.000 s           0.000 s
  | Integration                                :        1.080 s           1.080 s
  | Solution of K.-S. eqns.                    :        0.076 s           0.077 s
  | Grid partitioning                          :        0.308 s           0.304 s
  | Preloading free-atom quantities on grid    :        0.028 s           0.028 s
  | Free-atom superposition energy             :        0.040 s           0.037 s
  | Total energy evaluation                    :        0.000 s           0.001 s
------------------------------------------------------------

------------------------------------------------------------
          Begin self-consistency iteration #    1

  Date     :  20170309, Time     :  180828.046
------------------------------------------------------------
  Evaluating new KS density.
  Integration grid: deviation in total charge (<rho> - N_e) =   1.421085E-14
  Pulay mixing of updated and previous charge densities.

  Evaluating partitioned Hartree potential by multipole expansion.
  | Analytical far-field extrapolation by fixed multipoles:
  | Hartree multipole sum: apparent total charge =  -0.598306E-04
  Summing up the Hartree potential.
  Time summed over all CPUs for potential: real work        9.466 s, elapsed        9.622 s
  | RMS charge density error from multipole expansion :   0.106423E-01

  Integrating Hamiltonian matrix: batch-based integration.
  Time summed over all CPUs for integration: real work       20.178 s, elapsed       20.769 s

  Updating Kohn-Sham eigenvalues, eigenvectors, occupation numbers, and Fermi level.
  Solving generalized eigenproblem
  Solving real symmetric generalised eigenvalue problem by standard ScaLAPACK.
  Using Cholesky factor for transformation
  Using 2-stage real ELPA solver
  K-Point:    1, Trafo times: 1-stage=     0.021 s, 2-stage=     0.019 s ==> Using 2-stage solver
  Determining occupation numbers for Kohn-Sham eigenstates.
  | Chemical potential (Fermi level) in eV                 : -.38078576E+01
  | Error in electron count due to remaining E_F inaccuracy: 0.00000000E+00
  | Maximum occupation number of highest empty state:  0.00E+00

  Writing Kohn-Sham eigenvalues.

  State    Occupation    Eigenvalue [Ha]    Eigenvalue [eV]
      1       2.00000         -18.634086         -507.05927
      2       2.00000         -18.622305         -506.73871
      3       2.00000         -18.601640         -506.17637
      4       2.00000         -14.005431         -381.10717
      5       2.00000         -13.994902         -380.82066
      6       2.00000         -13.978672         -380.37902
      7       2.00000         -10.066475         -273.92271
      8       2.00000         -10.064958         -273.88144
      9       2.00000         -10.041182         -273.23447
     10       2.00000          -9.974533         -271.42085
     11       2.00000          -9.955274         -270.89679
     12       2.00000          -9.905255         -269.53571
     13       2.00000          -9.846043         -267.92447
     14       2.00000          -9.842055         -267.81593
     15       2.00000          -9.831972         -267.54156
     16       2.00000          -0.977527          -26.59986
     17       2.00000          -0.968672          -26.35890
     18       2.00000          -0.946150          -25.74606
     19       2.00000          -0.878513          -23.90554
     20       2.00000          -0.862194          -23.46150
     21       2.00000          -0.855279          -23.27333
     22       2.00000          -0.739256          -20.11619
     23       2.00000          -0.731132          -19.89510
     24       2.00000          -0.683512          -18.59931
     25       2.00000          -0.681142          -18.53482
     26       2.00000          -0.641069          -17.44436
     27       2.00000          -0.623758          -16.97331
     28       2.00000          -0.572184          -15.56991
     29       2.00000          -0.563331          -15.32902
     30       2.00000          -0.550407          -14.97734
     31       2.00000          -0.512090          -13.93467
     32       2.00000          -0.485066          -13.19932
     33       2.00000          -0.470937          -12.81484
     34       2.00000          -0.459444          -12.50210
     35       2.00000          -0.444498          -12.09541
     36       2.00000          -0.439419          -11.95720
     37       2.00000          -0.434099          -11.81243
     38       2.00000          -0.427649          -11.63693
     39       2.00000          -0.422636          -11.50052
     40       2.00000          -0.407583          -11.09091
     41       2.00000          -0.401735          -10.93178
     42       2.00000          -0.398916          -10.85504
     43       2.00000          -0.392493          -10.68027
     44       2.00000          -0.379998          -10.34027
     45       2.00000          -0.374960          -10.20319
     46       2.00000          -0.364015           -9.90535
     47       2.00000          -0.360820           -9.81841
     48       2.00000          -0.356030           -9.68808
     49       2.00000          -0.352020           -9.57895
     50       2.00000          -0.345709           -9.40723
     51       2.00000          -0.343511           -9.34740
     52       2.00000          -0.321727           -8.75465
     53       2.00000          -0.250614           -6.81955
     54       2.00000          -0.240001           -6.53076
     55       2.00000          -0.233663           -6.35830
     56       2.00000          -0.219717           -5.97882
     57       2.00000          -0.215456           -5.86285
     58       2.00000          -0.199593           -5.43121
     59       0.00000          -0.065219           -1.77471
     60       0.00000          -0.050854           -1.38382
     61       0.00000          -0.037219           -1.01277
     62       0.00000          -0.030133           -0.81995
     63       0.00000          -0.019883           -0.54104
     64       0.00000          -0.014311           -0.38943
     65       0.00000          -0.008512           -0.23162
     66       0.00000           0.001202            0.03271
     67       0.00000           0.009386            0.25541
     68       0.00000           0.011483            0.31247
     69       0.00000           0.019171            0.52168
     70       0.00000           0.028328            0.77084
     71       0.00000           0.029327            0.79802
     72       0.00000           0.040531            1.10290
     73       0.00000           0.045115            1.22764
     74       0.00000           0.050571            1.37610
     75       0.00000           0.057192            1.55628
     76       0.00000           0.059707            1.62472
     77       0.00000           0.064325            1.75036
     78       0.00000           0.071525            1.94630
     79       0.00000           0.076798            2.08979
     80       0.00000           0.080849            2.20001
     81       0.00000           0.085802            2.33479
     82       0.00000           0.092730            2.52332
     83       0.00000           0.098276            2.67422
     84       0.00000           0.099775            2.71501
     85       0.00000           0.103922            2.82786
     86       0.00000           0.106234            2.89076
     87       0.00000           0.117749            3.20410
     88       0.00000           0.123782            3.36828
     89       0.00000           0.136470            3.71354
     90       0.00000           0.143535            3.90578
     91       0.00000           0.146200            3.97830
     92       0.00000           0.147414            4.01135
     93       0.00000           0.152432            4.14787
     94       0.00000           0.154846            4.21356
     95       0.00000           0.161873            4.40479
     96       0.00000           0.169141            4.60255
     97       0.00000           0.170399            4.63679
     98       0.00000           0.179624            4.88782
     99       0.00000           0.183882            5.00369
    100       0.00000           0.186347            5.07076
    101       0.00000           0.188852            5.13892
    102       0.00000           0.195649            5.32388
    103       0.00000           0.200100            5.44500
    104       0.00000           0.204271            5.55850
    105       0.00000           0.208509            5.67381
    106       0.00000           0.210011            5.71470
    107       0.00000           0.216491            5.89102
    108       0.00000           0.220551            6.00150
    109       0.00000           0.223057            6.06968
    110       0.00000           0.227006            6.17714
    111       0.00000           0.233802            6.36207
    112       0.00000           0.234863            6.39094
    113       0.00000           0.246363            6.70389
    114       0.00000           0.249298            6.78374
    115       0.00000           0.250203            6.80836
    116       0.00000           0.261310            7.11061
    117       0.00000           0.266714            7.25764
    118       0.00000           0.270933            7.37247
    119       0.00000           0.274523            7.47015
    120       0.00000           0.279467            7.60467
    121       0.00000           0.287740            7.82981
    122       0.00000           0.290700            7.91034
    123       0.00000           0.294062            8.00184
    124       0.00000           0.300253            8.17031
    125       0.00000           0.311026            8.46345
    126       0.00000           0.319603            8.69683
    127       0.00000           0.325362            8.85355
    128       0.00000           0.329853            8.97575
    129       0.00000           0.339513            9.23861

  Highest occupied state (VBM) at     -5.43120637 eV
  | Occupation number:      2.00000000

  Lowest unoccupied state (CBM) at    -1.77470802 eV
  | Occupation number:      0.00000000

  Overall HOMO-LUMO gap:      3.65649834 eV.

  Total energy components:
  | Sum of eigenvalues            :        -417.78661779 Ha      -11368.55229574 eV
  | XC energy correction          :        -100.74601597 Ha       -2741.43857740 eV
  | XC potential correction       :         129.51863136 Ha        3524.38127793 eV
  | Free-atom electrostatic energy:        -333.64496529 Ha       -9078.94143689 eV
  | Hartree energy correction     :         -20.05114920 Ha        -545.61953058 eV
  | vdW energy correction         :           0.00000000 Ha           0.00000000 eV
  | Entropy correction            :           0.00000000 Ha           0.00000000 eV
  | ---------------------------
  | Total energy                  :        -742.71011689 Ha      -20210.17056268 eV
  | Total energy, T -> 0          :        -742.71011689 Ha      -20210.17056268 eV  <-- do not rely on this value for anything but (periodic) metals
  | Electronic free energy        :        -742.71011689 Ha      -20210.17056268 eV

  Derived energy quantities:
  | Kinetic energy                :         744.01870047 Ha       20245.77893377 eV
  | Electrostatic energy          :       -1385.98280139 Ha      -37714.51091905 eV
  | Energy correction for multipole
  | error in Hartree potential    :          -0.04095959 Ha          -1.11456706 eV
  | Sum of eigenvalues per atom                           :        -355.26725924 eV
  | Total energy (T->0) per atom                          :        -631.56783008 eV  <-- do not rely on this value for anything but (periodic) metals
  | Electronic free energy per atom                       :        -631.56783008 eV

  Self-consistency convergence accuracy:
  | Change of charge density      :  0.9034E+00
  | Change of sum of eigenvalues  :  0.5454E+03 eV
  | Change of total energy        :  0.1540E+02 eV

  End self-consistency iteration #     1       :  max(cpu_time)    wall_clock(cpu1)
  | Time for this iteration                    :        1.468 s           1.465 s
  | Charge density update                      :        0.460 s           0.459 s
[...]
   ----------------------------------------------------------------
   Total forces(  20)            :  0.132721E-02  0.139160E-02  0.136087E-03
  atom #   21
   Hellmann-Feynman              :  0.362954E-02  0.365474E-01 -0.552052E-01
   Ionic forces                  :  0.000000E+00  0.000000E+00  0.000000E+00
   Multipole                     : -0.170873E-01  0.442575E-02  0.376306E-01
   Pulay + GGA                   :  0.120395E-01 -0.519352E-01  0.270088E-01
   Van der Waals                 : -0.159931E-02  0.105748E-01 -0.100023E-01
   ----------------------------------------------------------------
   Total forces(  21)            : -0.301762E-02 -0.387191E-03 -0.568106E-03
  atom #   22
   Hellmann-Feynman              : -0.333807E-02 -0.488708E-01  0.479596E-01
   Ionic forces                  :  0.000000E+00  0.000000E+00  0.000000E+00
   Multipole                     : -0.283383E-01  0.868561E-03 -0.197454E-01
   Pulay + GGA                   :  0.246570E-01  0.509751E-01 -0.347482E-01
   Van der Waals                 :  0.703441E-02 -0.205369E-02  0.551912E-02
   ----------------------------------------------------------------
   Total forces(  22)            :  0.150361E-04  0.919160E-03 -0.101488E-02
  atom #   23
   Hellmann-Feynman              : -0.940795E+00  0.478549E+00  0.283775E+00
   Ionic forces                  :  0.000000E+00  0.000000E+00  0.000000E+00
   Multipole                     :  0.334835E+00 -0.122439E+00 -0.107142E+00
   Pulay + GGA                   :  0.612014E+00 -0.364987E+00 -0.178890E+00
   Van der Waals                 : -0.857013E-02  0.968870E-02  0.336518E-02
   ----------------------------------------------------------------
   Total forces(  23)            : -0.251570E-02  0.812058E-03  0.110818E-02
  atom #   24
   Hellmann-Feynman              :  0.382896E-01 -0.188024E-01 -0.314324E-01
   Ionic forces                  :  0.000000E+00  0.000000E+00  0.000000E+00
   Multipole                     : -0.348107E-01 -0.222987E-02 -0.155892E-01
   Pulay + GGA                   : -0.186629E-02  0.298514E-01  0.490614E-01
   Van der Waals                 : -0.166989E-02 -0.812648E-02 -0.193660E-02
   ----------------------------------------------------------------
   Total forces(  24)            : -0.572475E-04  0.692671E-03  0.103135E-03
  atom #   25
   Hellmann-Feynman              :  0.295292E-01  0.490797E-02  0.173427E-03
   Ionic forces                  :  0.000000E+00  0.000000E+00  0.000000E+00
   Multipole                     :  0.124606E-01  0.251381E-01 -0.845133E-03
   Pulay + GGA                   : -0.371960E-01 -0.443554E-01  0.146776E-01
   Van der Waals                 : -0.602516E-02  0.139996E-01 -0.141148E-01
   ----------------------------------------------------------------
   Total forces(  25)            : -0.123134E-02 -0.309726E-03 -0.108862E-03
  atom #   26
   Hellmann-Feynman              :  0.405974E-01 -0.565251E-02  0.119044E-01
   Ionic forces                  :  0.000000E+00  0.000000E+00  0.000000E+00
   Multipole                     : -0.195619E-01 -0.186650E-01  0.229635E-01
   Pulay + GGA                   : -0.197515E-01  0.236244E-01 -0.492355E-01
   Van der Waals                 : -0.192567E-02  0.142552E-02  0.137499E-01
   ----------------------------------------------------------------
   Total forces(  26)            : -0.641661E-03  0.732399E-03 -0.617847E-03
  atom #   27
   Hellmann-Feynman              :  0.231430E+01 -0.646139E+00 -0.125625E+01
   Ionic forces                  :  0.000000E+00  0.000000E+00  0.000000E+00
   Multipole                     :  0.624845E-01  0.137270E+00  0.202522E-01
   Pulay + GGA                   : -0.237838E+01  0.505564E+00  0.122484E+01
   Van der Waals                 :  0.235784E-02  0.791002E-03  0.101967E-01
   ----------------------------------------------------------------
   Total forces(  27)            :  0.765547E-03 -0.251394E-02 -0.965374E-03
  atom #   28
   Hellmann-Feynman              : -0.201904E+01 -0.119154E+01 -0.326550E+00
   Ionic forces                  :  0.000000E+00  0.000000E+00  0.000000E+00
   Multipole                     :  0.190724E+00  0.705968E-01  0.448898E-01
   Pulay + GGA                   :  0.183052E+01  0.113663E+01  0.264967E+00
   Van der Waals                 : -0.382602E-02 -0.164507E-01  0.176149E-01
   ----------------------------------------------------------------
   Total forces(  28)            : -0.161833E-02 -0.763436E-03  0.922073E-03
  atom #   29
   Hellmann-Feynman              :  0.537659E-02  0.514693E-01 -0.402021E-01
   Ionic forces                  :  0.000000E+00  0.000000E+00  0.000000E+00
   Multipole                     : -0.329773E-01 -0.280761E-01 -0.528718E-02
   Pulay + GGA                   :  0.279588E-01 -0.301538E-01  0.537384E-01
   Van der Waals                 :  0.135447E-02  0.636368E-02 -0.738476E-02
   ----------------------------------------------------------------
   Total forces(  29)            :  0.171264E-02 -0.396844E-03  0.864381E-03
  atom #   30
   Hellmann-Feynman              :  0.379793E-01  0.405873E-01 -0.212258E-02
   Ionic forces                  :  0.000000E+00  0.000000E+00  0.000000E+00
   Multipole                     : -0.378307E-01  0.165859E-01 -0.327894E-02
   Pulay + GGA                   :  0.740278E-03 -0.638427E-01  0.125185E-01
   Van der Waals                 :  0.153607E-04  0.569594E-02 -0.704505E-02
   ----------------------------------------------------------------
   Total forces(  30)            :  0.904295E-03 -0.973554E-03  0.719577E-04
  atom #   31
   Hellmann-Feynman              :  0.302539E-01  0.115482E-01  0.209446E-01
   Ionic forces                  :  0.000000E+00  0.000000E+00  0.000000E+00
   Multipole                     : -0.876411E-02 -0.709958E-02  0.294531E-01
   Pulay + GGA                   : -0.154416E-01  0.881521E-02 -0.497586E-01
   Van der Waals                 : -0.692899E-02 -0.138836E-01 -0.148445E-02
   ----------------------------------------------------------------
   Total forces(  31)            : -0.880883E-03 -0.619714E-03 -0.845428E-03
  atom #   32
   Hellmann-Feynman              :  0.503237E-01 -0.192231E-02 -0.204383E-02
   Ionic forces                  :  0.000000E+00  0.000000E+00  0.000000E+00
   Multipole                     :  0.799785E-02 -0.159502E-01 -0.229384E-01
   Pulay + GGA                   : -0.584023E-01  0.120127E-01  0.314238E-01
   Van der Waals                 :  0.134727E-03  0.570784E-02 -0.562555E-02
   ----------------------------------------------------------------
   Total forces(  32)            :  0.539426E-04 -0.151941E-03  0.815996E-03

  Timings for VdW correction (Tkatchenko-Scheffler 2009 or later):
  | CPU time:        0.124 s, Wall clock time:        0.124 s.
  Removing unitary transformations (pure translations, rotations) from forces on atoms.
  Atomic forces before filtering:
  | Net force on center of mass :  -0.947747E-04  0.732829E-03 -0.380926E-03 eV/A
  | Net torque on center of mass:   0.168590E-02 -0.122749E-02 -0.237812E-02 eV
  Atomic forces after filtering:
  | Net force on center of mass :  -0.686010E-18 -0.165513E-17  0.000000E+00 eV/A
  | Net torque on center of mass:  -0.258148E-17  0.350344E-17  0.184392E-18 eV

  Energy and forces in a compact form:
  | Total energy uncorrected      :         -0.202084939066629E+05 eV
  | Total energy corrected        :         -0.202084939066632E+05 eV  <-- do not rely on this value for anything but (periodic) metals
  | Electronic free energy        :         -0.202084939066634E+05 eV
  Total atomic forces (unitary forces cleaned) [eV/Ang]:
  |   1          0.782306104033660E-04         -0.137414912515144E-03         -0.726034370506119E-03
  |   2          0.167212674357203E-02          0.122984914884192E-02         -0.210169022743205E-02
  |   3         -0.643027044272209E-03          0.241813194508977E-02          0.560420215057034E-03
  |   4          0.135937518615052E-03          0.258135839837074E-03         -0.623151028143220E-03
  |   5         -0.282990322988821E-03         -0.690968776912865E-03          0.391597461937647E-03
  |   6          0.758808151337698E-03         -0.189671969240024E-04         -0.893370468221922E-04
  |   7         -0.871417482898742E-03         -0.247773317539540E-03          0.772449918928212E-03
  |   8          0.140672415412756E-02         -0.443656499487701E-03          0.102857800180934E-02
  |   9         -0.630423659571008E-03          0.932576958620650E-03          0.241466647190727E-02
  |  10          0.593129698609532E-03         -0.160532350535818E-02         -0.250002790858707E-02
  |  11          0.149490769970404E-02         -0.127034193772103E-02         -0.111573488485977E-02
  |  12          0.915734370850456E-03          0.937574161520367E-03          0.759246904446013E-03
  |  13         -0.238314525126593E-02          0.120262735974254E-03          0.972998007050667E-04
  |  14          0.403768334857665E-03         -0.401893550537395E-03          0.712793667304621E-04
  |  15          0.278461558629906E-03          0.697102998079374E-03          0.933331717979960E-04
  |  16          0.294329514777089E-03         -0.306352207034673E-04          0.746867064241857E-03
  |  17          0.180651197593387E-02         -0.206954398883486E-02          0.147941359138931E-02
  |  18         -0.456163229478950E-03          0.479809887123063E-04         -0.158628853239521E-02
  |  19          0.410020451892969E-03          0.196881698930234E-02          0.189322459751575E-03
  |  20          0.132208329297291E-02          0.143366862018791E-02          0.155433219714628E-03
  |  21         -0.297613967331469E-02         -0.391254876126297E-03         -0.540389218401943E-03
  |  22         -0.968881419835736E-06          0.926947280411114E-03         -0.100452653499895E-02
  |  23         -0.253095238205179E-02          0.783240767307813E-03          0.111307711019455E-02
  |  24         -0.879848328433439E-04          0.673114536449984E-03          0.104300077138060E-03
  |  25         -0.123204281410378E-02         -0.352983415098532E-03         -0.101359447085496E-03
  |  26         -0.667925074394148E-03          0.690565276121345E-03         -0.618664970109524E-03
  |  27          0.796115502915952E-03         -0.250106143958736E-02         -0.938658253173282E-03
  |  28         -0.157360710510105E-02         -0.778081751089911E-03          0.949219977763471E-03
  |  29          0.174628918080274E-02         -0.367231425740798E-03          0.894737279092247E-03
  |  30          0.970556568134018E-03         -0.984439604931530E-03          0.106889607730719E-03
  |  31         -0.835722357473482E-03         -0.649142715925785E-03         -0.820442039290341E-03
  |  32          0.887747830409163E-04         -0.177254111421811E-03          0.838172761469706E-03

  ------------------------------------ 
  Start decomposition of the XC Energy 
  ------------------------------------ 
  Hartree-Fock part   :          0.000000000 Ha              0.000000000 eV
  ------------------------------------ 
  X Energy            :        -96.982472172 Ha          -2639.027340045 eV
  C Energy GGA        :         -3.867349067 Ha           -105.235922446 eV
  Total XC Energy     :       -100.849821239 Ha          -2744.263262490 eV
  LDA X and C from self-consistent density 
  X Energy LDA        :        -87.996476095 Ha          -2394.505945675 eV
  C Energy LDA        :         -7.531460392 Ha           -204.941464577 eV
  ------------------------------------ 
  End decomposition of the XC Energy 
  ------------------------------------ 
   
  ESP charge fitting starts.
  | Calculation :  00000001  of  00000001
  | Full density
  Computing multipole expansion for total density.
  Generating points for esp charges.
  Partitioning the integration grid into batches with parallel hashing+maxmin method.
  | Number of batches:     3925
  | Maximal batch size:     193
  | Minimal batch size:      56
  | Average batch size:     124.116
  | Standard deviation of batch sizes:      15.297

  Integration load balanced across    32 MPI tasks.
  Work distribution over tasks is as follows:
  Initializing partition tables, free-atom densities, potentials, etc. across the integration grid (initialize_grid_storage).
  | Original list of interatomic distances with          32 x         32 entries is created.
  | Net number of integration points:   487155
  | of which are non-zero points    :   487155
  Summing up potential from multipole expanded  density.
  Summing up the Hartree potential.
  Time summed over all CPUs for potential: real work        6.368 s, elapsed        6.610 s
  Fitting esp charges to potential.
  |
  | ESP charges fitted to the electrostatic potential :
  |
  | Atom         1: C, ESP charge:      0.83593333
  |
  | Atom         2: C, ESP charge:     -0.76330217
  |
  | Atom         3: O, ESP charge:      0.58596323
  |
  | Atom         4: H, ESP charge:     -0.23415854
  |
  | Atom         5: H, ESP charge:     -0.22118339
  |
  | Atom         6: H, ESP charge:     -0.23307506
  |
  | Atom         7: N, ESP charge:      0.71546497
  |
  | Atom         8: C, ESP charge:     -0.72325929
  |
  | Atom         9: C, ESP charge:     -0.21802941
  |
  | Atom        10: O, ESP charge:      0.48035273
  |
  | Atom        11: H, ESP charge:     -0.30973686
  |
  | Atom        12: H, ESP charge:      0.01647030
  |
  | Atom        13: C, ESP charge:      0.41593157
  |
  | Atom        14: H, ESP charge:     -0.09251760
  |
  | Atom        15: H, ESP charge:     -0.11769754
  |
  | Atom        16: H, ESP charge:     -0.07266904
  |
  | Atom        17: N, ESP charge:      0.33931287
  |
  | Atom        18: C, ESP charge:     -0.56906891
  |
  | Atom        19: C, ESP charge:     -0.17295328
  |
  | Atom        20: O, ESP charge:      0.45835052
  |
  | Atom        21: H, ESP charge:     -0.21420496
  |
  | Atom        22: H, ESP charge:      0.11461076
  |
  | Atom        23: C, ESP charge:      0.06700153
  |
  | Atom        24: H, ESP charge:     -0.04672859
  |
  | Atom        25: H, ESP charge:     -0.01390413
  |
  | Atom        26: H, ESP charge:      0.05372208
  |
  | Atom        27: N, ESP charge:      0.33172095
  |
  | Atom        28: C, ESP charge:     -0.04193489
  |
  | Atom        29: H, ESP charge:     -0.28828220
  |
  | Atom        30: H, ESP charge:     -0.06065229
  |
  | Atom        31: H, ESP charge:      0.00795573
  |
  | Atom        32: H, ESP charge:     -0.02943243

  RRMS:       0.00373085

  Done.

------------------------------------------------------------------------------
  Final output of selected total energy values:

  The following output summarizes some interesting total energy values
  at the end of a run (AFTER all relaxation, molecular dynamics, etc.).

  | Total energy of the DFT / Hartree-Fock s.c.f. calculation      :         -20208.493906663 eV
  | Final zero-broadening corrected energy (caution - metals only) :         -20208.493906663 eV
  | For reference only, the value of 1 Hartree used in FHI-aims is :             27.211384500 eV

  Before relying on these values, please be sure to understand exactly which
  total energy value is referred to by a given number. Different objects may
  all carry the same name 'total energy'. Definitions:

  Total energy of the DFT / Hartree-Fock s.c.f. calculation:
  | Note that this energy does not include ANY quantities calculated after the
  | s.c.f. cycle, in particular not ANY RPA, MP2, etc. many-body perturbation terms.

  Final zero-broadening corrected energy:
  | For metallic systems only, a broadening of the occupation numbers at the Fermi
  | level can be extrapolated back to zero broadening by an electron-gas inspired
  | formula. For all systems that are not real metals, this value can be
  | meaningless and should be avoided.

------------------------------------------------------------------------------
  Methods described in the following list of references were used in this FHI-aims run.
  If you publish the results, please make sure to cite these reference if they apply.
  FHI-aims is an academic code, and for our developers (often, Ph.D. students
  and postdocs), scientific credit in the community is essential.
  Thank you for helping us!

  For any use of FHI-aims, please cite:

    Volker Blum, Ralf Gehrke, Felix Hanke, Paula Havu, Ville Havu,
    Xinguo Ren, Karsten Reuter, and Matthias Scheffler
    'Ab initio molecular simulations with numeric atom-centered orbitals'
    Computer Physics Communications 180, 2175-2196 (2009)
    http://dx.doi.org/10.1016/j.cpc.2009.06.022


  The scalable eigensolver library ELPA was used in your run.
  ELPA is essential especially for large systems on hundreds or thousands of CPUs.
  For ELPA, please cite:

    Andreas Marek, Volker Blum, Rainer Johanni, Ville Havu, Bruno Lang,
    Thomas Auckenthaler, Alexander Heinecke, Hans-Joachim Bungartz, and Hermann Lederer,
    'The ELPA Library - Scalable Parallel Eigenvalue Solutions
    for Electronic Structure Theory and Computational Science'
    The Journal of Physics: Condensed Matter 26, 213201 (2014).
    http://dx.doi.org/10.1088/0953-8984/26/21/213201


  For ELPA's efficient two-stage tridiagonalization used in your run, please cite:

    T. Auckenthaler, V. Blum, H.-J. Bungartz, T. Huckle, R. Johanni, L. Kraemer,
    B. Lang, H. Lederer, and P. R. Willems,
    'Parallel solution of partial symmetric eigenvalue problems'
    'from  electronic structure calculations'
    Parallel Computing 37, 783-794 (2011).
    http://dx.doi.org/10.1016/j.parco.2011.05.002


  For the real-space grid partitioning and parallelization used in this calculation, please cite:

    Ville Havu, Volker Blum, Paula Havu, and Matthias Scheffler,
    'Efficient O(N) integration for all-electron electronic structure calculation'
    'using numerically tabulated basis functions'
    Journal of Computational Physics 228, 8367-8379 (2009).
    http://dx.doi.org/10.1016/j.jcp.2009.08.008

  Of course, there are many other important community references, e.g., those cited in the
  above references. Our list is limited to references that describe implementations in the
  FHI-aims code. The reason is purely practical (length of this list) - please credit others as well.

------------------------------------------------------------
          Leaving FHI-aims.
          Date     :  20170309, Time     :  180854.628

          Computational steps:
          | Number of self-consistency cycles          :           14

          Detailed time accounting                     :  max(cpu_time)    wall_clock(cpu1)
          | Total time                                 :       29.250 s          29.409 s
          | Preparation time                           :        0.240 s           0.238 s
          | Grid partitioning                          :        0.308 s           0.304 s
          | Preloading free-atom quantities on grid    :        0.028 s           0.028 s
          | Free-atom superposition energy             :        0.040 s           0.037 s
          | Total time for integrations                :       10.365 s          10.346 s
          | Total time for solution of K.-S. equations :        0.528 s           0.499 s
          | Total time for density & force components  :        9.149 s           9.125 s
          | Total time for mixing                      :        0.128 s           0.103 s
          | Total time for Hartree multipole update    :        0.072 s           0.060 s
          | Total time for Hartree multipole sum       :        6.352 s           6.324 s
          | Total time for total energy evaluation     :        0.028 s           0.024 s
          | Total time for vdW correction              :        0.124 s           0.124 s

          Have a nice day.
------------------------------------------------------------
