  MPI-parallelism will be employed.
------------------------------------------------------------
          Invoking FHI-aims ...
          Version 150427
          Git rev.: 9dd23e0 BL: Update Version stamp
          Compiled on 2015/11/03 at 22:05:20 on host eos03.

          When using FHI-aims, please cite the following reference:

          Volker Blum, Ralf Gehrke, Felix Hanke, Paula Havu,
          Ville Havu, Xinguo Ren, Karsten Reuter, and Matthias Scheffler,
          'Ab Initio Molecular Simulations with Numeric Atom-Centered Orbitals: FHI-aims',
          Computer Physics Communications 180, 2175-2196 (2009)

          For any questions about FHI-aims, please visit the aimsclub website
          with its forums and wiki. Contributions to both the forums and the
          wiki are warmly encouraged - they are for you, and everyone is welcome there.

------------------------------------------------------------

  Date     :  20170309, Time     :  190325.631
  Time zero on CPU 1             :   0.380023000000000E+00  s.
  Internal wall clock time zero  :           258318205.631  s.

  Using       32 parallel tasks.
  Task        0 on host eos026 reporting.
  Task        1 on host eos026 reporting.
  Task        2 on host eos026 reporting.
  Task        3 on host eos026 reporting.
  Task        4 on host eos026 reporting.
  Task        5 on host eos026 reporting.
  Task        6 on host eos026 reporting.
  Task        7 on host eos026 reporting.
  Task        8 on host eos026 reporting.
  Task        9 on host eos026 reporting.
  Task       10 on host eos026 reporting.
  Task       11 on host eos026 reporting.
  Task       12 on host eos026 reporting.
  Task       13 on host eos026 reporting.
  Task       14 on host eos026 reporting.
  Task       15 on host eos026 reporting.
  Task       16 on host eos026 reporting.
  Task       17 on host eos026 reporting.
  Task       18 on host eos026 reporting.
  Task       19 on host eos026 reporting.
  Task       20 on host eos026 reporting.
  Task       21 on host eos026 reporting.
  Task       22 on host eos026 reporting.
  Task       23 on host eos026 reporting.
  Task       24 on host eos026 reporting.
  Task       25 on host eos026 reporting.
  Task       26 on host eos026 reporting.
  Task       27 on host eos026 reporting.
  Task       28 on host eos026 reporting.
  Task       29 on host eos026 reporting.
  Task       30 on host eos026 reporting.
  Task       31 on host eos026 reporting.

  Performing system and environment tests:
  | Environment variable OMP_NUM_THREADS correctly set to 1.
  | Stacksize not measured: no C compiler
  | Checking for scalapack...
  | Testing pdtran()...
  | All pdtran() tests passed.

  Obtaining array dimensions for all initial allocations:
  
  -----------------------------------------------------------------------
  Parsing control.in (first pass over file, find array dimensions only).
  The contents of control.in will be repeated verbatim below
  unless switched off by setting 'verbatim_writeout .false.' .
  in the first line of control.in .
  -----------------------------------------------------------------------
  
  #########################################################################################
  #
  # Input for System
  #
  #########################################################################################
  #
  #
  #  Physical model
  #
    xc                 pbe
    vdw_correction_hirshfeld
    spin               none
    charge             0.
  #
  #  SCF convergence
  #
    occupation_type    gaussian 0.05
    mixer              pulay
      n_max_pulay        10
      charge_mix_param   0.5
    sc_accuracy_rho    1E-4
    sc_accuracy_eev    1E-2
    sc_accuracy_etot   1E-5
    sc_accuracy_forces 1E-4
    sc_iter_limit      1000
  #
  #  ESP charge
  #
    output esp
    esp equal_grid_n 80 80 80
  #
  #
  ################################################################################
  #
  #  FHI-aims code project
  # Volker Blum, Fritz Haber Institute Berlin, 2009
  #
  #  Suggested "tight" defaults for H atom (to be pasted into control.in file)
  #
  ################################################################################
    species        H
  #     global species definitions
      nucleus             1
      mass                1.00794
  #
      l_hartree           6
  #
      cut_pot             4.0  2.0  1.0
      basis_dep_cutoff    1e-4
  #
      radial_base         24 7.0
      radial_multiplier   2
      angular_grids       specified
        division   0.1930   50
        division   0.3175  110
        division   0.4293  194
        division   0.5066  302
        division   0.5626  434
  #      division   0.5922  590
  #      division   0.6227  974
  #      division   0.6868 1202
  #      outer_grid  770
        outer_grid  434
  ################################################################################
  #
  #  Definition of "minimal" basis
  #
  ################################################################################
  #     valence basis states
      valence      1  s   1.
  #     ion occupancy
      ion_occ      1  s   0.5
  ################################################################################
  #
  #  Suggested additional basis functions. For production calculations,
  #  uncomment them one after another (the most important basis functions are
  #  listed first).
  #
  #  Basis constructed for dimers: 0.5 A, 0.7 A, 1.0 A, 1.5 A, 2.5 A
  #
  ################################################################################
  #  "First tier" - improvements: -1014.90 meV to -62.69 meV
       hydro 2 s 2.1
       hydro 2 p 3.5
  #  "Second tier" - improvements: -12.89 meV to -1.83 meV
       hydro 1 s 0.85
       hydro 2 p 3.7
       hydro 2 s 1.2
       hydro 3 d 7
  #  "Third tier" - improvements: -0.25 meV to -0.12 meV
  #     hydro 4 f 11.2
  #     hydro 3 p 4.8
  #     hydro 4 d 9
  #     hydro 3 s 3.2
  ################################################################################
  #
  # For methods that use the localized form of the "resolution of identity" for
  # the two-electron Coulomb operator (RI_method LVL), particularly Hartree-Fock and
  # hybrid density functional calculations, the highest accuracy can be obtained by
  # uncommenting the line beginning with "for_aux"  below, thus adding an extra g radial
  # function to the construction of the product basis set for the expansion.
  # See Ref. New J. Phys. 17, 093020 (2015) for more information, particularly Figs. 1 and 6.
  #
  ################################################################################
  #
  # for_aux hydro 5 g 6.0
  ################################################################################
  #
  #  FHI-aims code project
  # Volker Blum, Fritz Haber Institute Berlin, 2009
  #
  #  Suggested "tight" defaults for C atom (to be pasted into control.in file)
  #
  ################################################################################
    species        C
  #     global species definitions
      nucleus             6
      mass                12.0107
  #
      l_hartree           6
  #
      cut_pot             4.0  2.0  1.0
      basis_dep_cutoff    1e-4
  #
      radial_base         34 7.0
      radial_multiplier   2
      angular_grids specified
        division   0.2187   50
        division   0.4416  110
        division   0.6335  194
        division   0.7727  302
        division   0.8772  434
  #      division   0.9334  590
  #      division   0.9924  770
  #      division   1.0230  974
  #      division   1.5020 1202
  #     outer_grid  974
        outer_grid  434
  ################################################################################
  #
  #  Definition of "minimal" basis
  #
  ################################################################################
  #     valence basis states
      valence      2  s   2.
      valence      2  p   2.
  #     ion occupancy
      ion_occ      2  s   1.
      ion_occ      2  p   1.
  ################################################################################
  #
  #  Suggested additional basis functions. For production calculations,
  #  uncomment them one after another (the most important basis functions are
  #  listed first).
  #
  #  Constructed for dimers: 1.0 A, 1.25 A, 1.5 A, 2.0 A, 3.0 A
  #
  ################################################################################
  #  "First tier" - improvements: -1214.57 meV to -155.61 meV
       hydro 2 p 1.7
       hydro 3 d 6
       hydro 2 s 4.9
  #  "Second tier" - improvements: -67.75 meV to -5.23 meV
       hydro 4 f 9.8
       hydro 3 p 5.2
       hydro 3 s 4.3
       hydro 5 g 14.4
       hydro 3 d 6.2
  #  "Third tier" - improvements: -2.43 meV to -0.60 meV
  #     hydro 2 p 5.6
  #     hydro 2 s 1.4
  #     hydro 3 d 4.9
  #     hydro 4 f 11.2
  #  "Fourth tier" - improvements: -0.39 meV to -0.18 meV
  #     hydro 2 p 2.1
  #     hydro 5 g 16.4
  #     hydro 4 d 13.2
  #     hydro 3 s 13.6
  #     hydro 4 f 17.6
  #  Further basis functions - improvements: -0.08 meV and below
  #     hydro 3 s 2
  #     hydro 3 p 6
  #     hydro 4 d 20
  ################################################################################
  #
  # For methods that use the localized form of the "resolution of identity" for
  # the two-electron Coulomb operator (RI_method LVL), particularly Hartree-Fock and
  # hybrid density functional calculations, the highest accuracy can be obtained by
  # uncommenting the line beginning with "for_aux"  below, thus adding an extra g radial
  # function to the construction of the product basis set for the expansion.
  # See Ref. New J. Phys. 17, 093020 (2015) for more information, particularly Figs. 1 and 6.
  #
  ################################################################################
  #
  # for_aux hydro 5 g 6.0
  ################################################################################
  #
  #  FHI-aims code project
  # Volker Blum, Fritz Haber Institute Berlin, 2009
  #
  #  Suggested "tight" defaults for N atom (to be pasted into control.in file)
  #
  ################################################################################
    species        N
  #     global species definitions
      nucleus             7
      mass                14.0067
  #
      l_hartree           6
  #
      cut_pot             4.0  2.0  1.0
      basis_dep_cutoff    1e-4
  #
      radial_base         35 7.0
      radial_multiplier   2
      angular_grids       specified
        division   0.1841   50
        division   0.3514  110
        division   0.5126  194
        division   0.6292  302
        division   0.6939  434
  #      division   0.7396  590
  #      division   0.7632  770
  #      division   0.8122  974
  #      division   1.1604 1202
  #      outer_grid  974
        outer_grid  434
  ################################################################################
  #
  #  Definition of "minimal" basis
  #
  ################################################################################
  #     valence basis states
      valence      2  s   2.
      valence      2  p   3.
  #     ion occupancy
      ion_occ      2  s   1.
      ion_occ      2  p   2.
  ################################################################################
  #
  #  Suggested additional basis functions. For production calculations,
  #  uncomment them one after another (the most important basis functions are
  #  listed first).
  #
  #  Constructed for dimers: 1.0 A, 1.1 A, 1.5 A, 2.0 A, 3.0 A
  #
  ################################################################################
  #  "First tier" - improvements: -1193.42 meV to -220.60 meV
       hydro 2 p 1.8
       hydro 3 d 6.8
       hydro 3 s 5.8
  #  "Second tier" - improvements: -80.21 meV to -6.86 meV
       hydro 4 f 10.8
       hydro 3 p 5.8
       hydro 1 s 0.8
       hydro 5 g 16
       hydro 3 d 4.9
  #  "Third tier" - improvements: -4.29 meV to -0.53 meV
  #     hydro 3 s 16
  #     ionic 2 p auto
  #     hydro 3 d 6.6
  #     hydro 4 f 11.6
  #  "Fourth tier" - improvements: -0.75 meV to -0.25 meV
  #     hydro 2 p 4.5
  #     hydro 2 s 2.4
  #     hydro 5 g 14.4
  #     hydro 4 d 14.4
  #     hydro 4 f 16.8
  # Further basis functions - -0.21 meV and below
  #     hydro 3 p 14.8
  #     hydro 3 s 4.4
  #     hydro 3 d 19.6
  #     hydro 5 g 12.8
  ################################################################################
  #
  # For methods that use the localized form of the "resolution of identity" for
  # the two-electron Coulomb operator (RI_method LVL), particularly Hartree-Fock and
  # hybrid density functional calculations, the highest accuracy can be obtained by
  # uncommenting the line beginning with "for_aux"  below, thus adding an extra g radial
  # function to the construction of the product basis set for the expansion.
  # See Ref. New J. Phys. 17, 093020 (2015) for more information, particularly Figs. 1 and 6.
  #
  ################################################################################
  #
  # for_aux hydro 5 g 6.0
  ################################################################################
  #
  #  FHI-aims code project
  # Volker Blum, Fritz Haber Institute Berlin, 2009
  #
  #  Suggested "tight" defaults for O atom (to be pasted into control.in file)
  #
  ################################################################################
    species        O
  #     global species definitions
      nucleus             8
      mass                15.9994
  #
      l_hartree           6
  #
      cut_pot             4.0  2.0  1.0
      basis_dep_cutoff    1e-4
  #
      radial_base         36 7.0
      radial_multiplier   2
       angular_grids specified
        division   0.1817   50
        division   0.3417  110
        division   0.4949  194
        division   0.6251  302
        division   0.8014  434
  #      division   0.8507  590
  #      division   0.8762  770
  #      division   0.9023  974
  #      division   1.2339 1202
  #      outer_grid 974
        outer_grid  434
  ################################################################################
  #
  #  Definition of "minimal" basis
  #
  ################################################################################
  #     valence basis states
      valence      2  s   2.
      valence      2  p   4.
  #     ion occupancy
      ion_occ      2  s   1.
      ion_occ      2  p   3.
  ################################################################################
  #
  #  Suggested additional basis functions. For production calculations,
  #  uncomment them one after another (the most important basis functions are
  #  listed first).
  #
  #  Constructed for dimers: 1.0 A, 1.208 A, 1.5 A, 2.0 A, 3.0 A
  #
  ################################################################################
  #  "First tier" - improvements: -699.05 meV to -159.38 meV
       hydro 2 p 1.8
       hydro 3 d 7.6
       hydro 3 s 6.4
  #  "Second tier" - improvements: -49.91 meV to -5.39 meV
       hydro 4 f 11.6
       hydro 3 p 6.2
       hydro 3 d 5.6
       hydro 5 g 17.6
       hydro 1 s 0.75
  #  "Third tier" - improvements: -2.83 meV to -0.50 meV
  #     ionic 2 p auto
  #     hydro 4 f 10.8
  #     hydro 4 d 4.7
  #     hydro 2 s 6.8
  #  "Fourth tier" - improvements: -0.40 meV to -0.12 meV
  #     hydro 3 p 5
  #     hydro 3 s 3.3
  #     hydro 5 g 15.6
  #     hydro 4 f 17.6
  #     hydro 4 d 14
  # Further basis functions - -0.08 meV and below
  #     hydro 3 s 2.1
  #     hydro 4 d 11.6
  #     hydro 3 p 16
  #     hydro 2 s 17.2
  ################################################################################
  #
  # For methods that use the localized form of the "resolution of identity" for
  # the two-electron Coulomb operator (RI_method LVL), particularly Hartree-Fock and
  # hybrid density functional calculations, the highest accuracy can be obtained by
  # uncommenting the line beginning with "for_aux"  below, thus adding an extra g radial
  # function to the construction of the product basis set for the expansion.
  # See Ref. New J. Phys. 17, 093020 (2015) for more information, particularly Figs. 1 and 6.
  #
  ################################################################################
  #
  # for_aux hydro 5 g 6.0
  
  -----------------------------------------------------------------------
  Completed first pass over input file control.in .
  -----------------------------------------------------------------------
  
  
  -----------------------------------------------------------------------
  Parsing geometry.in (first pass over file, find array dimensions only).
  The contents of geometry.in will be repeated verbatim below
  unless switched off by setting 'verbatim_writeout .false.' .
  in the first line of geometry.in .
  -----------------------------------------------------------------------
  
  #
  # This is the geometry file that corresponds to the current relaxation step.
  # If you do not want this file to be written, set the "write_restart_geometry" flag to .false.
  #
  atom       0.22339274     -0.80148677      1.15697517 C
  atom      -0.59590115     -0.82800595      2.43174916 C
  atom      -0.11074634     -1.17150815      3.50733122 O
  atom       1.06974700     -1.48191914      1.28823823 H
  atom       0.62379849      0.21148198      1.01106155 H
  atom      -0.33439076     -1.07391401      0.25293089 H
  atom      -1.92278678     -0.44806692      2.36828704 N
  atom      -2.69987264      0.05353531      1.23016192 C
  atom      -2.86829552     -1.00653734      0.10420257 C
  atom      -2.88713564     -0.69689719     -1.08050755 O
  atom      -2.34384878     -0.37968069      3.29047440 H
  atom      -3.71726492      0.19111018      1.63149831 H
  atom      -2.24082200      1.40141639      0.67244382 C
  atom      -1.26716344      1.33146125      0.17544658 H
  atom      -2.17246330      2.13452080      1.48575158 H
  atom      -2.95875010      1.76046961     -0.07317254 H
  atom      -3.04125630     -2.28142913      0.56070776 N
  atom      -3.29960288     -3.43944378     -0.30019591 C
  atom      -2.16783379     -3.66287086     -1.34085454 C
  atom      -2.39139185     -3.70631094     -2.54271877 O
  atom      -2.96573764     -2.42574130      1.56117637 H
  atom      -3.27999764     -4.30931160      0.37638107 H
  atom      -4.66490013     -3.37788784     -0.98130432 C
  atom      -4.84602831     -4.29709369     -1.55030918 H
  atom      -4.70823255     -2.53585076     -1.67952931 H
  atom      -5.45170915     -3.26670214     -0.22412410 H
  atom      -0.89506737     -3.82217049     -0.84362467 N
  atom      -0.51187322     -4.22329270      0.50207579 C
  atom      -0.22947553     -4.02326056     -1.58478337 H
  atom       0.57959910     -4.17588458      0.58335810 H
  atom      -0.82674137     -5.25136064      0.74762038 H
  atom      -0.91678026     -3.54313034      1.25899033 H
  
  -----------------------------------------------------------------------
  Completed first pass over input file geometry.in .
  -----------------------------------------------------------------------
  

  Basic array size parameters:
  | Number of species                 :        4
  | Number of atoms                   :       32
  | Max. basis fn. angular momentum   :        4
  | Max. atomic/ionic basis occupied n:        2
  | Max. number of basis fn. types    :        2
  | Max. radial fns per species/type  :        8
  | Max. logarithmic grid size        :     1301
  | Max. radial integration grid size :       73
  | Max. angular integration grid size:      434
  | Max. angular grid division number :        8
  | Radial grid for Hartree potential :     1301
  | Number of spin channels           :        1

------------------------------------------------------------
          Reading file control.in.
------------------------------------------------------------
  XC: Using PBE gradient-corrected functionals.
  Spin treatment: No spin polarisation.
  Charge =   0.000000E+00: Neutral system requested explicitly.
  Occupation type: Gaussian broadening, width =   0.500000E-01 eV.
  Using pulay charge density mixing.
  Pulay mixing - number of memorized iterations:   10
  Charge density mixing - mixing parameter:     0.5000
  Convergence accuracy of self-consistent charge density:  0.1000E-03
  Convergence accuracy of sum of eigenvalues:  0.1000E-01
  Convergence accuracy of total energy:  0.1000E-04
  Convergence accuracy of forces:  0.1000E-03
  Maximum number of s.-c. iterations  :  1000
  Fitting ESP-charges to Potential. 
  | Esp charge output options: 
  | ESP Grid method: 3, cubic grid
  | Number of points in x, ,y, z:  0080 0080 0080
  |
 
  Reading configuration options for species H                   .
  | Found nuclear charge :   1.0000
  | Found atomic mass :    1.00794000000000      amu
  | Found l_max for Hartree potential  :   6
  | Found cutoff potl. onset [A], width [A], scale factor :    4.00000    2.00000    1.00000
  | Threshold for basis-dependent cutoff potential is   0.100000E-03
  | Found data for basic radial integration grid :    24 points, outermost radius =    7.000 A
  | Found multiplier for basic radial grid :   2
  | Found angular grid specification: user-specified.
  | Specified grid contains     6 separate shells.
  | Check grid settings after all constraints further below.
  | Found free-atom valence shell :  1 s   1.000
  | No ionic wave fns used. Skipping ion_occ.
  | Found hydrogenic basis function :  2 s   2.100
  | Found hydrogenic basis function :  2 p   3.500
  | Found hydrogenic basis function :  1 s   0.850
  | Found hydrogenic basis function :  2 p   3.700
  | Found hydrogenic basis function :  2 s   1.200
  | Found hydrogenic basis function :  3 d   7.000
  Species H                   : Missing cutoff potential type.
  Defaulting to exp(1/x)/(1-x)^2 type cutoff potential.
  Species H : No 'logarithmic' tag. Using default grid for free atom:
  | Default logarithmic grid data [bohr] : 0.1000E-03 0.1000E+03 0.1012E+01
  Species H : On-site basis accuracy parameter (for Gram-Schmidt orthonormalisation) not specified.
  Using default value basis_acc =  0.1000000E-03.
  Species H                   : Using default innermost maximum threshold i_radial=  2 for radial functions.
  Species H                   : Default cutoff onset for free atom density etc. : 0.40000000E+01 AA.
  Species H                   : Basic radial grid will be enhanced according to radial_multiplier =   2, to contain    49 grid points.
 
  Reading configuration options for species C                   .
  | Found nuclear charge :   6.0000
  | Found atomic mass :    12.0107000000000      amu
  | Found l_max for Hartree potential  :   6
  | Found cutoff potl. onset [A], width [A], scale factor :    4.00000    2.00000    1.00000
  | Threshold for basis-dependent cutoff potential is   0.100000E-03
  | Found data for basic radial integration grid :    34 points, outermost radius =    7.000 A
  | Found multiplier for basic radial grid :   2
  | Found angular grid specification: user-specified.
  | Specified grid contains     6 separate shells.
  | Check grid settings after all constraints further below.
  | Found free-atom valence shell :  2 s   2.000
  | Found free-atom valence shell :  2 p   2.000
  | No ionic wave fns used. Skipping ion_occ.
  | No ionic wave fns used. Skipping ion_occ.
  | Found hydrogenic basis function :  2 p   1.700
  | Found hydrogenic basis function :  3 d   6.000
  | Found hydrogenic basis function :  2 s   4.900
  | Found hydrogenic basis function :  4 f   9.800
  | Found hydrogenic basis function :  3 p   5.200
  | Found hydrogenic basis function :  3 s   4.300
  | Found hydrogenic basis function :  5 g  14.400
  | Found hydrogenic basis function :  3 d   6.200
  Species C                   : Missing cutoff potential type.
  Defaulting to exp(1/x)/(1-x)^2 type cutoff potential.
  Species C : No 'logarithmic' tag. Using default grid for free atom:
  | Default logarithmic grid data [bohr] : 0.1000E-03 0.1000E+03 0.1012E+01
  Species C : On-site basis accuracy parameter (for Gram-Schmidt orthonormalisation) not specified.
  Using default value basis_acc =  0.1000000E-03.
  Species C                   : Using default innermost maximum threshold i_radial=  2 for radial functions.
  Species C                   : Default cutoff onset for free atom density etc. : 0.40000000E+01 AA.
  Species C                   : Basic radial grid will be enhanced according to radial_multiplier =   2, to contain    69 grid points.
 
  Reading configuration options for species N                   .
  | Found nuclear charge :   7.0000
  | Found atomic mass :    14.0067000000000      amu
  | Found l_max for Hartree potential  :   6
  | Found cutoff potl. onset [A], width [A], scale factor :    4.00000    2.00000    1.00000
  | Threshold for basis-dependent cutoff potential is   0.100000E-03
  | Found data for basic radial integration grid :    35 points, outermost radius =    7.000 A
  | Found multiplier for basic radial grid :   2
  | Found angular grid specification: user-specified.
  | Specified grid contains     6 separate shells.
  | Check grid settings after all constraints further below.
  | Found free-atom valence shell :  2 s   2.000
  | Found free-atom valence shell :  2 p   3.000
  | No ionic wave fns used. Skipping ion_occ.
  | No ionic wave fns used. Skipping ion_occ.
  | Found hydrogenic basis function :  2 p   1.800
  | Found hydrogenic basis function :  3 d   6.800
  | Found hydrogenic basis function :  3 s   5.800
  | Found hydrogenic basis function :  4 f  10.800
  | Found hydrogenic basis function :  3 p   5.800
  | Found hydrogenic basis function :  1 s   0.800
  | Found hydrogenic basis function :  5 g  16.000
  | Found hydrogenic basis function :  3 d   4.900
  Species N                   : Missing cutoff potential type.
  Defaulting to exp(1/x)/(1-x)^2 type cutoff potential.
  Species N : No 'logarithmic' tag. Using default grid for free atom:
  | Default logarithmic grid data [bohr] : 0.1000E-03 0.1000E+03 0.1012E+01
  Species N : On-site basis accuracy parameter (for Gram-Schmidt orthonormalisation) not specified.
  Using default value basis_acc =  0.1000000E-03.
  Species N                   : Using default innermost maximum threshold i_radial=  2 for radial functions.
  Species N                   : Default cutoff onset for free atom density etc. : 0.40000000E+01 AA.
  Species N                   : Basic radial grid will be enhanced according to radial_multiplier =   2, to contain    71 grid points.
 
  Reading configuration options for species O                   .
  | Found nuclear charge :   8.0000
  | Found atomic mass :    15.9994000000000      amu
  | Found l_max for Hartree potential  :   6
  | Found cutoff potl. onset [A], width [A], scale factor :    4.00000    2.00000    1.00000
  | Threshold for basis-dependent cutoff potential is   0.100000E-03
  | Found data for basic radial integration grid :    36 points, outermost radius =    7.000 A
  | Found multiplier for basic radial grid :   2
  | Found angular grid specification: user-specified.
  | Specified grid contains     6 separate shells.
  | Check grid settings after all constraints further below.
  | Found free-atom valence shell :  2 s   2.000
  | Found free-atom valence shell :  2 p   4.000
  | No ionic wave fns used. Skipping ion_occ.
  | No ionic wave fns used. Skipping ion_occ.
  | Found hydrogenic basis function :  2 p   1.800
  | Found hydrogenic basis function :  3 d   7.600
  | Found hydrogenic basis function :  3 s   6.400
  | Found hydrogenic basis function :  4 f  11.600
  | Found hydrogenic basis function :  3 p   6.200
  | Found hydrogenic basis function :  3 d   5.600
  | Found hydrogenic basis function :  5 g  17.600
  | Found hydrogenic basis function :  1 s   0.750
  Species O                   : Missing cutoff potential type.
  Defaulting to exp(1/x)/(1-x)^2 type cutoff potential.
  Species O : No 'logarithmic' tag. Using default grid for free atom:
  | Default logarithmic grid data [bohr] : 0.1000E-03 0.1000E+03 0.1012E+01
  Species O : On-site basis accuracy parameter (for Gram-Schmidt orthonormalisation) not specified.
  Using default value basis_acc =  0.1000000E-03.
  Species O                   : Using default innermost maximum threshold i_radial=  2 for radial functions.
  Species O                   : Default cutoff onset for free atom density etc. : 0.40000000E+01 AA.
  Species O                   : Basic radial grid will be enhanced according to radial_multiplier =   2, to contain    73 grid points.
 
  Finished reading input file 'control.in'. Consistency checks are next.
 
  Target number of points in a grid batch is not set. Defaulting to  100
  Method for grid partitioning is not set. Defaulting to parallel hash+maxmin partitioning.
  Batch size limit is not set. Defaulting to    200
  By default, will store active basis functions for each batch.
  If in need of memory, prune_basis_once .false. can be used to disable this option.
  communication_type for Hartree potential was not specified.
  Defaulting to calc_hartree .
  Pulay mixer: Number of initial linear mixing iterations not set.
  Defaulting to    0 iterations.
  Work space size for distributed Hartree potential not set.
  Defaulting to   0.200000E+03 MB.
  Algorithm-dependent basis array size parameters:
  | n_max_pulay                         :       10
  Geometry relaxation not requested: no relaxation will be performed.
  Handling of forces: Unphysical translation and rotation will be removed from forces.
  No accuracy limit for integral partition fn. given. Defaulting to  0.1000E-14.
  No threshold value for u(r) in integrations given. Defaulting to  0.1000E-05.
  No accuracy for occupation numbers given. Defaulting to  0.1000E-07.
  No threshold value for occupation numbers given. Defaulting to  0.0000E+00.
  No accuracy for fermi level given. Defaulting to  0.1000E-19.
  Maximum # of iterations to find E_F not set. Defaulting to  200.
  Preferred method for the eigenvalue solver ('KS_method') not specified in 'control.in'.
  Calling blacs routine to test compilation state
  Since scalapack support is enabled, defaulting to 'elpa'.
  Preferred method for the MBD eigenvalue solver ('mbd_eigensolver') not specified in 'control.in'.
  Calling blacs routine to test compilation state
  Since scalapack support is enabled, defaulting to 'scaLAPACK'.
  Will not use alltoall communication since running on < 1024 CPUs.
  Threshold for basis singularities not set.
  Default threshold for basis singularities:  0.1000E-04
  partition_type (choice of integration weights) for integrals was not specified.
  | Using a version of the partition function of Stratmann and coworkers ('stratmann_smoother').
  | At each grid point, the set of atoms used to build the partition table is smoothly restricted to
  | only those atoms whose free-atom density would be non-zero at that grid point.
  Partitioning for Hartree potential was not defined. Using partition_type for integrals.
  | Adjusted default value of keyword multip_moments_threshold to:       0.10000000E-11
  | This value may affect high angular momentum components of the Hartree potential in periodic systems.
  No q(lm)/r^(l+1) cutoff set for long-range Hartree potential.
  | Using default value of  0.100000E-09 .
  | Verify using the multipole_threshold keyword.
  Defaulting to new monopole extrapolation.
  Density update method: automatic selection selected.
------------------------------------------------------------


------------------------------------------------------------
          Reading geometry description geometry.in.
------------------------------------------------------------
 * Warning! You did not set the 'relativistic' flag in input file 'control.in'.
 * Since you are not attempting to treat any elements beyond Ca(Z=20), FHI-aims
 * will default to 'relativistic none'.
 * You must ensure that this is really what you want!!
 * For example, DO NOT compute total-energy differences between results from
 * different settings of the 'relativistic' flag.
  Input structure read successfully.
  The structure contains       32 atoms,  and a total of        116.000 electrons.

  Input geometry:
  | No unit cell requested.
  | Atomic structure:
  |       Atom                x [A]            y [A]            z [A]
  |    1: Species C              0.223393        -0.801487         1.156975
  |    2: Species C             -0.595901        -0.828006         2.431749
  |    3: Species O             -0.110746        -1.171508         3.507331
  |    4: Species H              1.069747        -1.481919         1.288238
  |    5: Species H              0.623798         0.211482         1.011062
  |    6: Species H             -0.334391        -1.073914         0.252931
  |    7: Species N             -1.922787        -0.448067         2.368287
  |    8: Species C             -2.699873         0.053535         1.230162
  |    9: Species C             -2.868296        -1.006537         0.104203
  |   10: Species O             -2.887136        -0.696897        -1.080508
  |   11: Species H             -2.343849        -0.379681         3.290474
  |   12: Species H             -3.717265         0.191110         1.631498
  |   13: Species C             -2.240822         1.401416         0.672444
  |   14: Species H             -1.267163         1.331461         0.175447
  |   15: Species H             -2.172463         2.134521         1.485752
  |   16: Species H             -2.958750         1.760470        -0.073173
  |   17: Species N             -3.041256        -2.281429         0.560708
  |   18: Species C             -3.299603        -3.439444        -0.300196
  |   19: Species C             -2.167834        -3.662871        -1.340855
  |   20: Species O             -2.391392        -3.706311        -2.542719
  |   21: Species H             -2.965738        -2.425741         1.561176
  |   22: Species H             -3.279998        -4.309312         0.376381
  |   23: Species C             -4.664900        -3.377888        -0.981304
  |   24: Species H             -4.846028        -4.297094        -1.550309
  |   25: Species H             -4.708233        -2.535851        -1.679529
  |   26: Species H             -5.451709        -3.266702        -0.224124
  |   27: Species N             -0.895067        -3.822170        -0.843625
  |   28: Species C             -0.511873        -4.223293         0.502076
  |   29: Species H             -0.229476        -4.023261        -1.584783
  |   30: Species H              0.579599        -4.175885         0.583358
  |   31: Species H             -0.826741        -5.251361         0.747620
  |   32: Species H             -0.916780        -3.543130         1.258990
  |

  | The smallest distance between any two atoms is         1.01364023 AA.
  |
  | The first atom of this pair is atom number                     17 .
  | The second atom of this pair is atom number                    21 .

  Number of empty states per atom not set in control.in - providing a guess from actual geometry.
  | Total number of empty states used during s.c.f. cycle:       71
  If you use a very high smearing, use empty_states (per atom!) in control.in to increase this value.

  Structure-dependent array size parameters: 
  | Maximum number of distinct radial functions  :       40
  | Maximum number of basis functions            :      840
  | Number of Kohn-Sham states (occupied + empty):      129
------------------------------------------------------------

------------------------------------------------------------
          Preparing all fixed parts of the calculation.
------------------------------------------------------------
  Determining machine precision:
    2.225073858507201E-308
  Setting up grids for atomic and cluster calculations.

  Creating wave function, potential, and density for free atoms.

  Species: H

  List of occupied orbitals and eigenvalues:
    n    l              occ      energy [Ha]    energy [eV]
    1    0           1.0000        -0.238382        -6.4867


  Species: C

  List of occupied orbitals and eigenvalues:
    n    l              occ      energy [Ha]    energy [eV]
    1    0           2.0000       -10.041232      -273.2358
    2    0           2.0000        -0.504327       -13.7234
    2    1           2.0000        -0.193750        -5.2722


  Species: N

  List of occupied orbitals and eigenvalues:
    n    l              occ      energy [Ha]    energy [eV]
    1    0           2.0000       -14.129007      -384.4699
    2    0           2.0000        -0.681802       -18.5528
    2    1           3.0000        -0.260543        -7.0897


  Species: O

  List of occupied orbitals and eigenvalues:
    n    l              occ      energy [Ha]    energy [eV]
    1    0           2.0000       -18.898576      -514.2564
    2    0           2.0000        -0.878795       -23.9132
    2    1           4.0000        -0.332075        -9.0362

  Creating fixed part of basis set: Ionic, confined, hydrogenic.
 
  H                    hydrogenic:
 
  List of hydrogenic basis orbitals: 
    n    l      effective z      eigenvalue [eV]  inner max. [A]     outer max. [A]     outer radius [A]   
    2    0         2.100000       -14.9965           0.193243           1.317208           5.373006
    2    1         3.500000       -41.6672           0.602369           0.602369           4.056063
    1    0         0.850000        -9.8292           0.624871           0.624871           5.373006
    2    1         3.700000       -46.5653           0.573622           0.573622           3.910002
    2    0         1.200000        -4.5995           0.334980           2.228188           5.505995
    3    2         7.000000       -74.0753           0.680699           0.680699           3.769201
 
 
  C                    hydrogenic:
 
  List of hydrogenic basis orbitals: 
    n    l      effective z      eigenvalue [eV]  inner max. [A]     outer max. [A]     outer radius [A]   
    2    1         1.700000        -9.8152           1.245706           1.245706           5.401630
    3    2         6.000000       -54.4226           0.792453           0.792453           4.178599
    2    0         4.900000       -81.6681           0.082559           0.562749           3.353238
    4    3         9.800000       -81.6681           0.863254           0.863254           4.028125
    3    1         5.200000       -40.8774           0.305389           1.215618           4.898362
    3    0         4.300000       -27.9508           0.091041           1.610311           5.401630
    5    4        14.400000      -112.8510           0.917666           0.917666           3.883070
    3    2         6.200000       -58.1113           0.763917           0.763917           4.077671
 
 
  N                    hydrogenic:
 
  List of hydrogenic basis orbitals: 
    n    l      effective z      eigenvalue [eV]  inner max. [A]     outer max. [A]     outer radius [A]   
    2    1         1.800000       -11.0118           1.177451           1.177451           5.427479
    3    2         6.800000       -69.9029           0.704619           0.704619           3.854246
    3    0         5.800000       -50.8549           0.067388           1.191934           4.629968
    4    3        10.800000       -99.1854           0.786571           0.786571           3.761152
    3    1         5.800000       -50.8549           0.274880           1.094176           4.518138
    1    0         0.800000        -8.7059           0.662839           0.662839           5.361532
    5    4        16.000000      -139.3222           0.825990           0.825990           3.625711
    3    2         4.900000       -36.2967           0.968267           0.968267           4.862000
 
 
  O                    hydrogenic:
 
  List of hydrogenic basis orbitals: 
    n    l      effective z      eigenvalue [eV]  inner max. [A]     outer max. [A]     outer radius [A]   
    2    1         1.800000       -11.0118           1.178562           1.178562           5.432602
    3    2         7.600000       -87.3182           0.624125           0.624125           3.541477
    3    0         6.400000       -61.9209           0.061167           1.081902           4.306578
    4    3        11.600000      -114.4238           0.731631           0.731631           3.585037
    3    1         6.200000       -58.1113           0.255680           1.030270           4.306578
    3    2         5.600000       -47.4081           0.847233           0.847233           4.413171
    5    4        17.600000      -168.5799           0.749740           0.749740           3.372465
    1    0         0.750000        -7.6499           0.705284           0.705284           5.366593
 

  Adding cutoff potential to free-atom effective potential.
  Creating atomic-like basis functions for current effective potential.

  Species H                   :

  List of atomic basis orbitals and eigenvalues:
    n    l      energy [Ha]    energy [eV]    outer radius [A]
    1    0        -0.238382        -6.4867       5.373006


  Species C                   :

  List of atomic basis orbitals and eigenvalues:
    n    l      energy [Ha]    energy [eV]    outer radius [A]
    1    0       -10.041232      -273.2358       1.934409
    2    0        -0.504327       -13.7234       5.271162
    2    1        -0.193750        -5.2722       5.401630


  Species N                   :

  List of atomic basis orbitals and eigenvalues:
    n    l      energy [Ha]    energy [eV]    outer radius [A]
    1    0       -14.129007      -384.4699       1.637919
    2    0        -0.681802       -18.5528       5.168461
    2    1        -0.260543        -7.0897       5.361532


  Species O                   :

  List of atomic basis orbitals and eigenvalues:
    n    l      energy [Ha]    energy [eV]    outer radius [A]
    1    0       -18.898576      -514.2564       1.415765
    2    0        -0.878795       -23.9132       5.048385
    2    1        -0.332075        -9.0362       5.301386

  Assembling full basis from fixed parts.
  | Species H :   atomic orbital   1 s accepted.
  | Species H :    hydro orbital   2 s accepted.
  | Species H :    hydro orbital   1 s accepted.
  | Species H :    hydro orbital   2 s accepted.
  | Species H :    hydro orbital   2 p accepted.
  | Species H :    hydro orbital   2 p accepted.
  | Species H :    hydro orbital   3 d accepted.
  | Species C :   atomic orbital   1 s accepted.
  | Species C :    hydro orbital   2 s accepted.
  | Species C :   atomic orbital   2 s accepted.
  | Species C :    hydro orbital   3 s accepted.
  | Species C :    hydro orbital   3 p accepted.
  | Species C :   atomic orbital   2 p accepted.
  | Species C :    hydro orbital   2 p accepted.
  | Species C :    hydro orbital   3 d accepted.
  | Species C :    hydro orbital   3 d accepted.
  | Species C :    hydro orbital   4 f accepted.
  | Species C :    hydro orbital   5 g accepted.
  | Species N :   atomic orbital   1 s accepted.
  | Species N :    hydro orbital   3 s accepted.
  | Species N :   atomic orbital   2 s accepted.
  | Species N :    hydro orbital   1 s accepted.
  | Species N :    hydro orbital   3 p accepted.
  | Species N :   atomic orbital   2 p accepted.
  | Species N :    hydro orbital   2 p accepted.
  | Species N :    hydro orbital   3 d accepted.
  | Species N :    hydro orbital   3 d accepted.
  | Species N :    hydro orbital   4 f accepted.
  | Species N :    hydro orbital   5 g accepted.
  | Species O :   atomic orbital   1 s accepted.
  | Species O :    hydro orbital   3 s accepted.
  | Species O :   atomic orbital   2 s accepted.
  | Species O :    hydro orbital   1 s accepted.
  | Species O :    hydro orbital   3 p accepted.
  | Species O :   atomic orbital   2 p accepted.
  | Species O :    hydro orbital   2 p accepted.
  | Species O :    hydro orbital   3 d accepted.
  | Species O :    hydro orbital   3 d accepted.
  | Species O :    hydro orbital   4 f accepted.
  | Species O :    hydro orbital   5 g accepted.
 
  Basis size parameters after reduction:
  | Total number of radial functions:       40
  | Total number of basis functions :      840
 
  Testing on-site integration grid accuracy.
  |  Species  Function  <phi|h_atom|phi> (log., in eV)  <phi|h_atom|phi> (rad., in eV)
           1        1                 -6.4869821809                 -6.4870742227
           1        2                 13.5044133542                 13.5041049177
           1        3                 32.7854418792                 32.7779770519
           1        4                 33.7995553101                 33.7152624900 ***
           1        5                 28.8558651799                 28.8558652046
           1        6                 59.6361831893                 59.6362535845
           1        7                 60.2733718049                 60.2733715484
           2        8               -273.2358277112               -273.2358261765
           2        9                -10.7624923123                -10.7625144012
           2       10                 17.4634079027                 17.4634252127
           2       11                 53.0363661832                 53.0366180446
           2       12                 15.0981351967                 15.0981317714
           2       13                  3.8522181899                  3.8522770949
           2       14                 12.1181835661                 12.1206868578
           2       15                 29.4320778347                 29.4320780959
           2       16                 54.8753777694                 54.8752901936
           2       17                 59.3533975461                 59.3533974833
           2       18                 93.4537491195                 93.4537492066
           3       19               -384.4698526889               -384.4698499465
           3       20                 12.5691022037                 12.5690910168
           3       21                -15.7489097511                -15.7489165588
           3       22                 27.0978334940                 27.0985589490
           3       23                 18.5949116966                 18.5949125562
           3       24                  1.2212828291                  1.2212855301
           3       25                 13.4428926797                 13.4434051125
           3       26                 35.9380614500                 35.9380613666
           3       27                 39.9231532098                 39.9231654735
           3       28                 72.9957335806                 72.9957336833
           3       29                116.4231321147                116.4231321431
           4       30               -514.2564144315               -514.2564099626
           4       31                 15.1726678541                 15.1726530877
           4       32                -21.5447785304                -21.5447874973
           4       33                 14.4944558459                 14.4944698284
           4       34                 20.8882174564                 20.8882178906
           4       35                 -2.4850315908                 -2.4850322289
           4       36                 13.8600193195                 13.8599826966
           4       37                 45.8243383616                 45.8243383675
           4       38                 52.1840606465                 52.1840622440
           4       39                 85.4074185510                 85.4074185819
           4       40                142.0983717302                142.0983717339
 * Note: Onsite integrals marked "***" above are less accurate than
 * onsite_accuracy_threshold =    0.03000 eV. Usually, this is harmless.
 * When in doubt, tighten the "radial" and/or "radial_multiplier" flags to check.

  Preparing densities etc. for the partition functions (integrals / Hartree potential).

  Preparations completed.
  max(cpu_time)          :      0.240 s.
  Wall clock time (cpu1) :      0.239 s.
------------------------------------------------------------

------------------------------------------------------------
          Begin self-consistency loop: Initialization.

          Date     :  20170309, Time     :  190326.735
------------------------------------------------------------

  Initializing index lists of integration centers etc. from given atomic structure:
  | Number of centers in hartree potential         :        32
  | Number of centers in hartree multipole         :        32
  | Number of centers in electron density summation:        32
  | Number of centers in basis integrals           :        32
  | Number of centers in integrals                 :        32
  | Number of centers in hamiltonian               :        32
  Using modified Scalapack Eigenvalue solver (ELPA)
  * Using 32 tasks for Scalapack Eigenvalue solver.
  Detailed listing of tasks and assigned k-points:
  (for non-periodic systems, the "k-point" denotes an internal label only)
   Task     0 k-point     1 on eos026
   Task     1 k-point     1 on eos026
   Task     2 k-point     1 on eos026
   Task     3 k-point     1 on eos026
   Task     4 k-point     1 on eos026
   Task     5 k-point     1 on eos026
   Task     6 k-point     1 on eos026
   Task     7 k-point     1 on eos026
   Task     8 k-point     1 on eos026
   Task     9 k-point     1 on eos026
   Task    10 k-point     1 on eos026
   Task    11 k-point     1 on eos026
   Task    12 k-point     1 on eos026
   Task    13 k-point     1 on eos026
   Task    14 k-point     1 on eos026
   Task    15 k-point     1 on eos026
   Task    16 k-point     1 on eos026
   Task    17 k-point     1 on eos026
   Task    18 k-point     1 on eos026
   Task    19 k-point     1 on eos026
   Task    20 k-point     1 on eos026
   Task    21 k-point     1 on eos026
   Task    22 k-point     1 on eos026
   Task    23 k-point     1 on eos026
   Task    24 k-point     1 on eos026
   Task    25 k-point     1 on eos026
   Task    26 k-point     1 on eos026
   Task    27 k-point     1 on eos026
   Task    28 k-point     1 on eos026
   Task    29 k-point     1 on eos026
   Task    30 k-point     1 on eos026
   Task    31 k-point     1 on eos026
  Tasks:    32 split into      8 X      4 BLACS grid
  Calculating blocksize based on n_basis =          840 max_nprow =            8 max_npcol =            4
  Scalapack blocksize set to:           16
  Required Scalapack workspace - INTEGER:            1 REAL:             1
  Partitioning the integration grid into batches with parallel hashing+maxmin method.
  | Number of batches:     4931
  | Maximal batch size:     200
  | Minimal batch size:      49
  | Average batch size:     107.023
  | Standard deviation of batch sizes:      34.162

  Integration load balanced across    32 MPI tasks.
  Work distribution over tasks is as follows:
  Task     0 has      16555 integration points.
  Task     1 has      16437 integration points.
  Task     2 has      16431 integration points.
  Task     3 has      16556 integration points.
  Task     4 has      16510 integration points.
  Task     5 has      16412 integration points.
  Task     6 has      16527 integration points.
  Task     7 has      16560 integration points.
  Task     8 has      16564 integration points.
  Task     9 has      16407 integration points.
  Task    10 has      16558 integration points.
  Task    11 has      16401 integration points.
  Task    12 has      16491 integration points.
  Task    13 has      16500 integration points.
  Task    14 has      16520 integration points.
  Task    15 has      16457 integration points.
  Task    16 has      16551 integration points.
  Task    17 has      16530 integration points.
  Task    18 has      16560 integration points.
  Task    19 has      16516 integration points.
  Task    20 has      16523 integration points.
  Task    21 has      16416 integration points.
  Task    22 has      16515 integration points.
  Task    23 has      16444 integration points.
  Task    24 has      16403 integration points.
  Task    25 has      16450 integration points.
  Task    26 has      16449 integration points.
  Task    27 has      16433 integration points.
  Task    28 has      16555 integration points.
  Task    29 has      16445 integration points.
  Task    30 has      16518 integration points.
  Task    31 has      16534 integration points.
  Initializing partition tables, free-atom densities, potentials, etc. across the integration grid (initialize_grid_storage).
  | initialize_grid_storage: Actual outermost partition radius vs. multipole_radius_free
  | (-- VB: in principle, multipole_radius_free should be larger, hence this output)
  | Species        1: Confinement radius =              6.000000000000000 AA, multipole_radius_free =              6.071692442739658 AA.
  | Species        1: outer_partition_radius set to              6.071692442739658 AA .
  | Species        2: Confinement radius =              6.000000000000000 AA, multipole_radius_free =              6.029870734432609 AA.
  | Species        2: outer_partition_radius set to              6.029870734432609 AA .
  | Species        3: Confinement radius =              6.000000000000000 AA, multipole_radius_free =              6.058726835495003 AA.
  | Species        3: outer_partition_radius set to              6.058726835495003 AA .
  | Species        4: Confinement radius =              6.000000000000000 AA, multipole_radius_free =              6.064445521808699 AA.
  | Species        4: outer_partition_radius set to              6.064445521808699 AA .
  | Original list of interatomic distances with          32 x         32 entries is created.
  | Net number of integration points:   527728
  | of which are non-zero points    :   410446
  Obtaining max. number of non-zero basis functions in each batch (get_n_compute_maxes).
  | Maximal number of non-zero basis functions:      815 in task     0
  | Maximal number of non-zero basis functions:      820 in task     1
  | Maximal number of non-zero basis functions:      793 in task     2
  | Maximal number of non-zero basis functions:      806 in task     3
  | Maximal number of non-zero basis functions:      802 in task     4
  | Maximal number of non-zero basis functions:      815 in task     5
  | Maximal number of non-zero basis functions:      815 in task     6
  | Maximal number of non-zero basis functions:      822 in task     7
  | Maximal number of non-zero basis functions:      781 in task     8
  | Maximal number of non-zero basis functions:      801 in task     9
  | Maximal number of non-zero basis functions:      805 in task    10
  | Maximal number of non-zero basis functions:      804 in task    11
  | Maximal number of non-zero basis functions:      807 in task    12
  | Maximal number of non-zero basis functions:      800 in task    13
  | Maximal number of non-zero basis functions:      821 in task    14
  | Maximal number of non-zero basis functions:      810 in task    15
  | Maximal number of non-zero basis functions:      822 in task    16
  | Maximal number of non-zero basis functions:      811 in task    17
  | Maximal number of non-zero basis functions:      824 in task    18
  | Maximal number of non-zero basis functions:      813 in task    19
  | Maximal number of non-zero basis functions:      824 in task    20
  | Maximal number of non-zero basis functions:      812 in task    21
  | Maximal number of non-zero basis functions:      802 in task    22
  | Maximal number of non-zero basis functions:      800 in task    23
  | Maximal number of non-zero basis functions:      821 in task    24
  | Maximal number of non-zero basis functions:      829 in task    25
  | Maximal number of non-zero basis functions:      824 in task    26
  | Maximal number of non-zero basis functions:      796 in task    27
  | Maximal number of non-zero basis functions:      806 in task    28
  | Maximal number of non-zero basis functions:      793 in task    29
  | Maximal number of non-zero basis functions:      802 in task    30
  | Maximal number of non-zero basis functions:      809 in task    31
  Selecting the method for density update.
  Loop over occupied states selected for charge density update.
  Integrating Hamiltonian matrix: batch-based integration.
  Time summed over all CPUs for integration: real work       23.546 s, elapsed       24.440 s
  Integrating overlap matrix.
  Time summed over all CPUs for integration: real work       14.445 s, elapsed       15.106 s
  Deallocating overlap matrix.

  Updating Kohn-Sham eigenvalues, eigenvectors, occupation numbers, and Fermi level.
  Solving generalized eigenproblem
  Solving real symmetric generalised eigenvalue problem by standard ScaLAPACK.
  Transforming overlap matrix with ScaLAPACK and checking for singularities.
  : Overlap matrix is nonsingular, using Cholesky decomposition
  | Lowest eigenvalue:  0.813261E-04
  Factoring overlap matrix with Cholesky decomposition
  Using Cholesky factor for transformation
  Using 1-stage real ELPA solver
  Determining occupation numbers for Kohn-Sham eigenstates.
  | Chemical potential (Fermi level) in eV                 : -.94288671E+01
  | Error in electron count due to remaining E_F inaccuracy: 0.00000000E+00
  | Maximum occupation number of highest empty state:  0.00E+00

  Writing Kohn-Sham eigenvalues.

  State    Occupation    Eigenvalue [Ha]    Eigenvalue [eV]
      1       2.00000         -18.975693         -516.35488
      2       2.00000         -18.975469         -516.34879
      3       2.00000         -18.973947         -516.30738
      4       2.00000         -14.254529         -387.88547
      5       2.00000         -14.252853         -387.83987
      6       2.00000         -14.251276         -387.79694
      7       2.00000         -10.171690         -276.78577
      8       2.00000         -10.171571         -276.78252
      9       2.00000         -10.171446         -276.77911
     10       2.00000         -10.166560         -276.64618
     11       2.00000         -10.147368         -276.12393
     12       2.00000         -10.147003         -276.11400
     13       2.00000         -10.135081         -275.78958
     14       2.00000         -10.134266         -275.76742
     15       2.00000         -10.133146         -275.73693
     16       2.00000          -1.136350          -30.92166
     17       2.00000          -1.132270          -30.81063
     18       2.00000          -1.130450          -30.76110
     19       2.00000          -1.021600          -27.79915
     20       2.00000          -1.009208          -27.46195
     21       2.00000          -1.000020          -27.21193
     22       2.00000          -0.884923          -24.07999
     23       2.00000          -0.872887          -23.75246
     24       2.00000          -0.849423          -23.11396
     25       2.00000          -0.815349          -22.18678
     26       2.00000          -0.784830          -21.35631
     27       2.00000          -0.754968          -20.54374
     28       2.00000          -0.703724          -19.14930
     29       2.00000          -0.679273          -18.48395
     30       2.00000          -0.666107          -18.12569
     31       2.00000          -0.638110          -17.36387
     32       2.00000          -0.626161          -17.03871
     33       2.00000          -0.613846          -16.70361
     34       2.00000          -0.608890          -16.56874
     35       2.00000          -0.594580          -16.17935
     36       2.00000          -0.576088          -15.67616
     37       2.00000          -0.568146          -15.46003
     38       2.00000          -0.562678          -15.31124
     39       2.00000          -0.558208          -15.18962
     40       2.00000          -0.553717          -15.06740
     41       2.00000          -0.548758          -14.93248
     42       2.00000          -0.541481          -14.73445
     43       2.00000          -0.534330          -14.53986
     44       2.00000          -0.528035          -14.36856
     45       2.00000          -0.519657          -14.14059
     46       2.00000          -0.513063          -13.96116
     47       2.00000          -0.511448          -13.91722
     48       2.00000          -0.503825          -13.70979
     49       2.00000          -0.495545          -13.48445
     50       2.00000          -0.484248          -13.17707
     51       2.00000          -0.482017          -13.11636
     52       2.00000          -0.475913          -12.95026
     53       2.00000          -0.413750          -11.25872
     54       2.00000          -0.411060          -11.18551
     55       2.00000          -0.401579          -10.92752
     56       2.00000          -0.387862          -10.55425
     57       2.00000          -0.380877          -10.36419
     58       2.00000          -0.378114          -10.28900
     59       0.00000          -0.168005           -4.57164
     60       0.00000          -0.160798           -4.37553
     61       0.00000          -0.159689           -4.34535
     62       0.00000          -0.082820           -2.25364
     63       0.00000          -0.063319           -1.72301
     64       0.00000          -0.059304           -1.61373
     65       0.00000          -0.057963           -1.57727
     66       0.00000          -0.050134           -1.36422
     67       0.00000          -0.033223           -0.90405
     68       0.00000          -0.031746           -0.86386
     69       0.00000          -0.026436           -0.71935
     70       0.00000          -0.023407           -0.63693
     71       0.00000          -0.019478           -0.53002
     72       0.00000          -0.018491           -0.50316
     73       0.00000          -0.012056           -0.32807
     74       0.00000          -0.007232           -0.19679
     75       0.00000          -0.005206           -0.14167
     76       0.00000           0.001827            0.04972
     77       0.00000           0.003333            0.09071
     78       0.00000           0.006494            0.17670
     79       0.00000           0.011998            0.32649
     80       0.00000           0.020207            0.54986
     81       0.00000           0.024862            0.67652
     82       0.00000           0.027336            0.74386
     83       0.00000           0.033236            0.90439
     84       0.00000           0.041114            1.11876
     85       0.00000           0.046760            1.27240
     86       0.00000           0.055251            1.50346
     87       0.00000           0.055914            1.52149
     88       0.00000           0.062138            1.69086
     89       0.00000           0.066590            1.81199
     90       0.00000           0.068854            1.87362
     91       0.00000           0.076102            2.07084
     92       0.00000           0.081308            2.21250
     93       0.00000           0.088500            2.40821
     94       0.00000           0.094923            2.58298
     95       0.00000           0.102733            2.79552
     96       0.00000           0.104701            2.84907
     97       0.00000           0.111965            3.04673
     98       0.00000           0.116597            3.17277
     99       0.00000           0.118268            3.21824
    100       0.00000           0.122824            3.34221
    101       0.00000           0.125853            3.42465
    102       0.00000           0.135059            3.67513
    103       0.00000           0.135478            3.68653
    104       0.00000           0.142234            3.87038
    105       0.00000           0.144665            3.93652
    106       0.00000           0.152192            4.14136
    107       0.00000           0.154042            4.19170
    108       0.00000           0.164975            4.48920
    109       0.00000           0.166930            4.54239
    110       0.00000           0.175479            4.77503
    111       0.00000           0.177343            4.82574
    112       0.00000           0.179887            4.89497
    113       0.00000           0.181221            4.93127
    114       0.00000           0.187146            5.09249
    115       0.00000           0.194419            5.29040
    116       0.00000           0.196194            5.33870
    117       0.00000           0.202830            5.51929
    118       0.00000           0.211132            5.74520
    119       0.00000           0.212340            5.77807
    120       0.00000           0.218366            5.94204
    121       0.00000           0.219457            5.97173
    122       0.00000           0.226288            6.15761
    123       0.00000           0.235047            6.39595
    124       0.00000           0.240147            6.53473
    125       0.00000           0.245550            6.68175
    126       0.00000           0.251076            6.83212
    127       0.00000           0.259498            7.06130
    128       0.00000           0.267452            7.27775
    129       0.00000           0.275239            7.48962

  Highest occupied state (VBM) at    -10.28899733 eV
  | Occupation number:      2.00000000

  Lowest unoccupied state (CBM) at    -4.57164430 eV
  | Occupation number:      0.00000000

  Overall HOMO-LUMO gap:      5.71735303 eV.
  Calculating total energy contributions from superposition of free atom densities.

  Total energy components:
  | Sum of eigenvalues            :        -437.83053689 Ha      -11913.97508522 eV
  | XC energy correction          :         -98.81691905 Ha       -2688.94517926 eV
  | XC potential correction       :         127.01816586 Ha        3456.34014959 eV
  | Free-atom electrostatic energy:        -333.65213115 Ha       -9079.13643010 eV
  | Hartree energy correction     :           0.00000000 Ha           0.00000000 eV
  | vdW energy correction         :           0.00000000 Ha           0.00000000 eV
  | Entropy correction            :          -0.00000000 Ha          -0.00000000 eV
  | ---------------------------
  | Total energy                  :        -743.28142124 Ha      -20225.71654499 eV
  | Total energy, T -> 0          :        -743.28142124 Ha      -20225.71654499 eV  <-- do not rely on this value for anything but (periodic) metals
  | Electronic free energy        :        -743.28142124 Ha      -20225.71654499 eV

  Derived energy quantities:
  | Kinetic energy                :         735.14569485 Ha       20004.33216614 eV
  | Electrostatic energy          :       -1379.61019704 Ha      -37541.10353188 eV
  | Energy correction for multipole
  | error in Hartree potential    :           0.00000000 Ha           0.00000000 eV
  | Sum of eigenvalues per atom                           :        -372.31172141 eV
  | Total energy (T->0) per atom                          :        -632.05364203 eV  <-- do not rely on this value for anything but (periodic) metals
  | Electronic free energy per atom                       :        -632.05364203 eV
  Initialize hartree_potential_storage
  Max. number of atoms included in rho_multipole:           32

  End scf initialization - timings             :  max(cpu_time)    wall_clock(cpu1)
  | Time for scf. initialization               :        2.016 s           2.015 s
  | Boundary condition initialization          :        0.000 s           0.000 s
  | Integration                                :        1.256 s           1.257 s
  | Solution of K.-S. eqns.                    :        0.076 s           0.075 s
  | Grid partitioning                          :        0.296 s           0.292 s
  | Preloading free-atom quantities on grid    :        0.028 s           0.028 s
  | Free-atom superposition energy             :        0.044 s           0.040 s
  | Total energy evaluation                    :        0.000 s           0.001 s
------------------------------------------------------------

------------------------------------------------------------
          Begin self-consistency iteration #    1

  Date     :  20170309, Time     :  190328.750
------------------------------------------------------------
  Evaluating new KS density.
  Integration grid: deviation in total charge (<rho> - N_e) =   5.684342E-14
  Pulay mixing of updated and previous charge densities.

  Evaluating partitioned Hartree potential by multipole expansion.
  | Analytical far-field extrapolation by fixed multipoles:
  | Hartree multipole sum: apparent total charge =   0.284074E-04
  Summing up the Hartree potential.
  Time summed over all CPUs for potential: real work        9.592 s, elapsed        9.794 s
  | RMS charge density error from multipole expansion :   0.106497E-01

  Integrating Hamiltonian matrix: batch-based integration.
  Time summed over all CPUs for integration: real work       23.423 s, elapsed       24.395 s

  Updating Kohn-Sham eigenvalues, eigenvectors, occupation numbers, and Fermi level.
  Solving generalized eigenproblem
  Solving real symmetric generalised eigenvalue problem by standard ScaLAPACK.
  Using Cholesky factor for transformation
  Using 2-stage real ELPA solver
  K-Point:    1, Trafo times: 1-stage=     0.021 s, 2-stage=     0.019 s ==> Using 2-stage solver
  Determining occupation numbers for Kohn-Sham eigenstates.
  | Chemical potential (Fermi level) in eV                 : -.37300314E+01
  | Error in electron count due to remaining E_F inaccuracy: 0.00000000E+00
  | Maximum occupation number of highest empty state:  0.00E+00

  Writing Kohn-Sham eigenvalues.

  State    Occupation    Eigenvalue [Ha]    Eigenvalue [eV]
      1       2.00000         -18.618672         -506.63986
      2       2.00000         -18.618174         -506.62629
      3       2.00000         -18.606722         -506.31466
      4       2.00000         -14.003817         -381.06326
      5       2.00000         -14.003570         -381.05651
      6       2.00000         -13.978623         -380.37767
      7       2.00000         -10.060752         -273.76700
      8       2.00000         -10.059887         -273.74345
      9       2.00000         -10.046313         -273.37409
     10       2.00000          -9.976226         -271.46692
     11       2.00000          -9.961888         -271.07676
     12       2.00000          -9.898210         -269.34399
     13       2.00000          -9.850089         -268.03455
     14       2.00000          -9.831344         -267.52449
     15       2.00000          -9.817317         -267.14277
     16       2.00000          -0.970260          -26.40213
     17       2.00000          -0.962472          -26.19019
     18       2.00000          -0.951045          -25.87925
     19       2.00000          -0.880473          -23.95888
     20       2.00000          -0.867097          -23.59491
     21       2.00000          -0.851247          -23.16360
     22       2.00000          -0.741267          -20.17091
     23       2.00000          -0.717535          -19.52512
     24       2.00000          -0.701463          -19.08779
     25       2.00000          -0.673606          -18.32975
     26       2.00000          -0.636160          -17.31080
     27       2.00000          -0.615864          -16.75851
     28       2.00000          -0.583103          -15.86705
     29       2.00000          -0.560934          -15.26380
     30       2.00000          -0.536985          -14.61211
     31       2.00000          -0.512755          -13.95277
     32       2.00000          -0.494678          -13.46087
     33       2.00000          -0.473318          -12.87963
     34       2.00000          -0.465234          -12.65965
     35       2.00000          -0.455706          -12.40039
     36       2.00000          -0.442283          -12.03514
     37       2.00000          -0.433958          -11.80861
     38       2.00000          -0.424279          -11.54521
     39       2.00000          -0.409976          -11.15602
     40       2.00000          -0.397503          -10.81660
     41       2.00000          -0.392074          -10.66887
     42       2.00000          -0.386831          -10.52621
     43       2.00000          -0.378182          -10.29085
     44       2.00000          -0.376289          -10.23934
     45       2.00000          -0.369666          -10.05913
     46       2.00000          -0.363328           -9.88667
     47       2.00000          -0.358478           -9.75469
     48       2.00000          -0.354307           -9.64118
     49       2.00000          -0.346848           -9.43821
     50       2.00000          -0.346021           -9.41571
     51       2.00000          -0.336261           -9.15013
     52       2.00000          -0.334758           -9.10924
     53       2.00000          -0.250784           -6.82419
     54       2.00000          -0.244808           -6.66156
     55       2.00000          -0.227392           -6.18765
     56       2.00000          -0.216060           -5.87930
     57       2.00000          -0.208293           -5.66793
     58       2.00000          -0.199980           -5.44173
     59       0.00000          -0.059964           -1.63171
     60       0.00000          -0.055054           -1.49809
     61       0.00000          -0.051811           -1.40984
     62       0.00000          -0.036165           -0.98411
     63       0.00000          -0.022732           -0.61856
     64       0.00000          -0.017382           -0.47299
     65       0.00000          -0.004660           -0.12680
     66       0.00000          -0.002892           -0.07869
     67       0.00000           0.010293            0.28010
     68       0.00000           0.012953            0.35246
     69       0.00000           0.018602            0.50619
     70       0.00000           0.030136            0.82004
     71       0.00000           0.031597            0.85981
     72       0.00000           0.038523            1.04827
     73       0.00000           0.045395            1.23526
     74       0.00000           0.055609            1.51321
     75       0.00000           0.058472            1.59111
     76       0.00000           0.069501            1.89121
     77       0.00000           0.072326            1.96808
     78       0.00000           0.076043            2.06925
     79       0.00000           0.080441            2.18892
     80       0.00000           0.085758            2.33359
     81       0.00000           0.092369            2.51349
     82       0.00000           0.096797            2.63399
     83       0.00000           0.103290            2.81066
     84       0.00000           0.104187            2.83507
     85       0.00000           0.112758            3.06830
     86       0.00000           0.117003            3.18380
     87       0.00000           0.118767            3.23182
     88       0.00000           0.122466            3.33248
     89       0.00000           0.133704            3.63827
     90       0.00000           0.139513            3.79633
     91       0.00000           0.143665            3.90932
     92       0.00000           0.150878            4.10561
     93       0.00000           0.155631            4.23493
     94       0.00000           0.164817            4.48490
     95       0.00000           0.169966            4.62502
     96       0.00000           0.173142            4.71143
     97       0.00000           0.173712            4.72696
     98       0.00000           0.176767            4.81008
     99       0.00000           0.181792            4.94681
    100       0.00000           0.186702            5.08043
    101       0.00000           0.189317            5.15158
    102       0.00000           0.195083            5.30848
    103       0.00000           0.199103            5.41787
    104       0.00000           0.201161            5.47387
    105       0.00000           0.202672            5.51498
    106       0.00000           0.209027            5.68792
    107       0.00000           0.213067            5.79785
    108       0.00000           0.224222            6.10139
    109       0.00000           0.226973            6.17625
    110       0.00000           0.230349            6.26811
    111       0.00000           0.239024            6.50417
    112       0.00000           0.244084            6.64187
    113       0.00000           0.245457            6.67923
    114       0.00000           0.251290            6.83796
    115       0.00000           0.258081            7.02274
    116       0.00000           0.262089            7.13180
    117       0.00000           0.266219            7.24419
    118       0.00000           0.271680            7.39280
    119       0.00000           0.278493            7.57817
    120       0.00000           0.288628            7.85396
    121       0.00000           0.293385            7.98342
    122       0.00000           0.294952            8.02606
    123       0.00000           0.299920            8.16125
    124       0.00000           0.308893            8.40541
    125       0.00000           0.316520            8.61294
    126       0.00000           0.323352            8.79885
    127       0.00000           0.329655            8.97036
    128       0.00000           0.333794            9.08300
    129       0.00000           0.346192            9.42036

  Highest occupied state (VBM) at     -5.44173035 eV
  | Occupation number:      2.00000000

  Lowest unoccupied state (CBM) at    -1.63170581 eV
  | Occupation number:      0.00000000

  Overall HOMO-LUMO gap:      3.81002453 eV.

  Total energy components:
  | Sum of eigenvalues            :        -417.56232892 Ha      -11362.44908486 eV
  | XC energy correction          :        -100.74621824 Ha       -2741.44408158 eV
  | XC potential correction       :         129.51961723 Ha        3524.40810474 eV
  | Free-atom electrostatic energy:        -333.65213115 Ha       -9079.13643010 eV
  | Hartree energy correction     :         -20.26948425 Ha        -551.56072964 eV
  | vdW energy correction         :           0.00000000 Ha           0.00000000 eV
  | Entropy correction            :           0.00000000 Ha           0.00000000 eV
  | ---------------------------
  | Total energy                  :        -742.71054534 Ha      -20210.18222144 eV
  | Total energy, T -> 0          :        -742.71054534 Ha      -20210.18222144 eV  <-- do not rely on this value for anything but (periodic) metals
  | Electronic free energy        :        -742.71054534 Ha      -20210.18222144 eV

  Derived energy quantities:
  | Kinetic energy                :         744.00706637 Ha       20245.46235367 eV
  | Electrostatic energy          :       -1385.97139346 Ha      -37714.20049354 eV
  | Energy correction for multipole
  | error in Hartree potential    :          -0.04132230 Ha          -1.12443695 eV
  | Sum of eigenvalues per atom                           :        -355.07653390 eV
  | Total energy (T->0) per atom                          :        -631.56819442 eV  <-- do not rely on this value for anything but (periodic) metals
  | Electronic free energy per atom                       :        -631.56819442 eV

  Self-consistency convergence accuracy:
  | Change of charge density      :  0.9037E+00
  | Change of sum of eigenvalues  :  0.5515E+03 eV
  | Change of total energy        :  0.1553E+02 eV

  End self-consistency iteration #     1       :  max(cpu_time)    wall_clock(cpu1)
  | Time for this iteration                    :        1.632 s           1.633 s
  | Charge density update                      :        0.512 s           0.510 s
[...]
   ----------------------------------------------------------------
   Total forces(  20)            :  0.448813E-03  0.259482E-03  0.327930E-02
  atom #   21
   Hellmann-Feynman              :  0.323519E-02  0.332507E-01 -0.192605E-01
   Ionic forces                  :  0.000000E+00  0.000000E+00  0.000000E+00
   Multipole                     : -0.909537E-02 -0.230977E-01 -0.213390E-01
   Pulay + GGA                   :  0.341548E-02 -0.350689E-02  0.551224E-01
   Van der Waals                 :  0.268461E-02 -0.648846E-02 -0.151899E-01
   ----------------------------------------------------------------
   Total forces(  21)            :  0.239913E-03  0.157643E-03 -0.666906E-03
  atom #   22
   Hellmann-Feynman              : -0.111471E-01  0.432128E-01 -0.377708E-01
   Ionic forces                  :  0.000000E+00  0.000000E+00  0.000000E+00
   Multipole                     :  0.753425E-02 -0.459354E-02 -0.126266E-01
   Pulay + GGA                   :  0.133393E-01 -0.419152E-01  0.487860E-01
   Van der Waals                 : -0.993474E-02  0.343022E-02  0.156233E-02
   ----------------------------------------------------------------
   Total forces(  22)            : -0.208349E-03  0.134277E-03 -0.490593E-04
  atom #   23
   Hellmann-Feynman              : -0.101516E+01  0.222819E+00 -0.786071E+00
   Ionic forces                  :  0.000000E+00  0.000000E+00  0.000000E+00
   Multipole                     :  0.263511E+00 -0.513058E-01  0.236868E+00
   Pulay + GGA                   :  0.755037E+00 -0.161054E+00  0.544387E+00
   Van der Waals                 : -0.347247E-02 -0.102773E-01  0.444498E-02
   ----------------------------------------------------------------
   Total forces(  23)            : -0.805714E-04  0.181833E-03 -0.370695E-03
  atom #   24
   Hellmann-Feynman              :  0.579017E-01  0.373235E-01  0.638025E-02
   Ionic forces                  :  0.000000E+00  0.000000E+00  0.000000E+00
   Multipole                     : -0.247880E-01  0.242609E-01  0.175490E-02
   Pulay + GGA                   : -0.239860E-01 -0.627667E-01 -0.957298E-02
   Van der Waals                 : -0.995777E-02  0.143856E-02  0.151254E-02
   ----------------------------------------------------------------
   Total forces(  24)            : -0.830127E-03  0.256227E-03  0.747135E-04
  atom #   25
   Hellmann-Feynman              :  0.709087E-01 -0.238438E-01  0.198531E-01
   Ionic forces                  :  0.000000E+00  0.000000E+00  0.000000E+00
   Multipole                     : -0.188594E-01 -0.180408E-01  0.114577E-01
   Pulay + GGA                   : -0.333320E-01  0.443598E-01 -0.259203E-01
   Van der Waals                 : -0.185677E-01 -0.268958E-02 -0.509119E-02
   ----------------------------------------------------------------
   Total forces(  25)            :  0.149602E-03 -0.214397E-03  0.299274E-03
  atom #   26
   Hellmann-Feynman              :  0.522293E-01 -0.588563E-02 -0.583231E-02
   Ionic forces                  :  0.000000E+00  0.000000E+00  0.000000E+00
   Multipole                     : -0.143849E-01  0.210860E-02 -0.368719E-01
   Pulay + GGA                   : -0.403022E-01 -0.105243E-02  0.455342E-01
   Van der Waals                 :  0.254594E-02  0.512266E-02 -0.294433E-02
   ----------------------------------------------------------------
   Total forces(  26)            :  0.881200E-04  0.293193E-03 -0.114385E-03
  atom #   27
   Hellmann-Feynman              :  0.226972E-01  0.310911E+01 -0.923222E+00
   Ionic forces                  :  0.000000E+00  0.000000E+00  0.000000E+00
   Multipole                     : -0.427324E-01  0.138534E-01 -0.164154E+00
   Pulay + GGA                   :  0.191390E-01 -0.313931E+01  0.108389E+01
   Van der Waals                 :  0.715585E-03  0.165751E-01  0.117540E-02
   ----------------------------------------------------------------
   Total forces(  27)            : -0.180502E-03  0.234777E-03 -0.231521E-02
  atom #   28
   Hellmann-Feynman              :  0.647757E+00 -0.682003E+00  0.196790E+01
   Ionic forces                  :  0.000000E+00  0.000000E+00  0.000000E+00
   Multipole                     :  0.165838E-01  0.121235E+00 -0.180463E+00
   Pulay + GGA                   : -0.676939E+00  0.537282E+00 -0.179212E+01
   Van der Waals                 :  0.131547E-01  0.226647E-01  0.724228E-02
   ----------------------------------------------------------------
   Total forces(  28)            :  0.556996E-03 -0.821089E-03  0.255810E-02
  atom #   29
   Hellmann-Feynman              : -0.666755E-01  0.317846E-02 -0.473904E-03
   Ionic forces                  :  0.000000E+00  0.000000E+00  0.000000E+00
   Multipole                     :  0.199582E-01  0.322985E-02  0.343294E-01
   Pulay + GGA                   :  0.542235E-01 -0.131720E-01 -0.377613E-01
   Van der Waals                 : -0.766620E-02  0.723093E-02  0.506379E-02
   ----------------------------------------------------------------
   Total forces(  29)            : -0.159977E-03  0.467249E-03  0.115803E-02
  atom #   30
   Hellmann-Feynman              : -0.423188E-01  0.619652E-02 -0.385410E-01
   Ionic forces                  :  0.000000E+00  0.000000E+00  0.000000E+00
   Multipole                     : -0.179468E-01 -0.201172E-01  0.349232E-01
   Pulay + GGA                   :  0.682620E-01  0.597001E-03  0.283348E-03
   Van der Waals                 : -0.808599E-02  0.133920E-01  0.312467E-02
   ----------------------------------------------------------------
   Total forces(  30)            : -0.896885E-04  0.682794E-04 -0.209763E-03
  atom #   31
   Hellmann-Feynman              :  0.121253E-01  0.268949E-01 -0.458773E-01
   Ionic forces                  :  0.000000E+00  0.000000E+00  0.000000E+00
   Multipole                     :  0.540596E-02  0.274297E-01  0.882704E-02
   Pulay + GGA                   : -0.161610E-01 -0.563374E-01  0.326255E-01
   Van der Waals                 : -0.110854E-02  0.293500E-02  0.415503E-02
   ----------------------------------------------------------------
   Total forces(  31)            :  0.261756E-03  0.922133E-03 -0.269722E-03
  atom #   32
   Hellmann-Feynman              :  0.206493E-01 -0.155945E-02 -0.543744E-01
   Ionic forces                  :  0.000000E+00  0.000000E+00  0.000000E+00
   Multipole                     :  0.623223E-02 -0.275873E-01 -0.210984E-02
   Pulay + GGA                   : -0.376409E-01  0.322381E-01  0.455603E-01
   Van der Waals                 :  0.109204E-01 -0.325429E-02  0.102634E-01
   ----------------------------------------------------------------
   Total forces(  32)            :  0.161053E-03 -0.162916E-03 -0.660519E-03

  Timings for VdW correction (Tkatchenko-Scheffler 2009 or later):
  | CPU time:        0.128 s, Wall clock time:        0.129 s.
  Removing unitary transformations (pure translations, rotations) from forces on atoms.
  Atomic forces before filtering:
  | Net force on center of mass :  -0.422886E-04 -0.288068E-03  0.440704E-04 eV/A
  | Net torque on center of mass:  -0.305327E-02  0.364914E-02 -0.110089E-02 eV
  Atomic forces after filtering:
  | Net force on center of mass :   0.631565E-18  0.653343E-18 -0.435562E-18 eV/A
  | Net torque on center of mass:  -0.407966E-17 -0.368783E-18 -0.202831E-17 eV

  Energy and forces in a compact form:
  | Total energy uncorrected      :         -0.202084524709089E+05 eV
  | Total energy corrected        :         -0.202084524709089E+05 eV  <-- do not rely on this value for anything but (periodic) metals
  | Electronic free energy        :         -0.202084524709089E+05 eV
  Total atomic forces (unitary forces cleaned) [eV/Ang]:
  |   1          0.287919655019082E-03          0.661103373331404E-03         -0.587332333360286E-03
  |   2          0.215501899232198E-02         -0.915323099027635E-03          0.235599396589262E-02
  |   3         -0.127304608414313E-02          0.745790601279362E-03         -0.269960714693999E-02
  |   4         -0.397374456883274E-04          0.787798477807945E-04          0.215210235810914E-03
  |   5          0.492828288648800E-04         -0.250375759078969E-03         -0.284410173563168E-03
  |   6          0.931764161773485E-04         -0.270119575013101E-03          0.306886930834014E-03
  |   7         -0.699227074751425E-03         -0.253362299233287E-03          0.391485150351690E-02
  |   8         -0.158172220235931E-02          0.447164626423859E-04         -0.169693576115163E-02
  |   9          0.843155620523204E-04          0.104609541932401E-02         -0.315102955152933E-02
  |  10         -0.107150565192984E-03         -0.890574642671972E-03          0.295188912778386E-02
  |  11          0.540564577877124E-03         -0.757491546110206E-03         -0.174625937170910E-02
  |  12          0.398084837670039E-03          0.437451581845111E-03         -0.264216114474099E-04
  |  13          0.840122855399299E-03          0.465525087795231E-04         -0.204304730623017E-03
  |  14         -0.253603861560832E-03          0.256609746664597E-03          0.352373667704476E-04
  |  15         -0.127981591787493E-03         -0.139220198734813E-03         -0.265448197948985E-03
  |  16         -0.474255216580235E-04          0.127724230971384E-03          0.800048567473033E-04
  |  17         -0.245375691244565E-03          0.104697060397276E-02          0.335938411212038E-02
  |  18         -0.584495597650375E-03         -0.255590638422447E-02         -0.158101203252999E-02
  |  19         -0.155506688515407E-03         -0.491305887681553E-03         -0.317899683734373E-02
  |  20          0.520931631230382E-03          0.312665881068670E-03          0.324094854707744E-02
  |  21          0.218202489372685E-03          0.146768081361652E-03         -0.698404289795473E-03
  |  22         -0.198628327666443E-03          0.140518408789765E-03         -0.116106779149413E-03
  |  23         -0.436964278006108E-04          0.204749579435962E-03         -0.454001150009524E-03
  |  24         -0.778114836604822E-03          0.287277629794955E-03         -0.265513005651330E-04
  |  25          0.199400376389354E-03         -0.180985695523596E-03          0.227820904432752E-03
  |  26          0.108042041412015E-03          0.302337336614028E-03         -0.213285308111967E-03
  |  27         -0.145377148498582E-03          0.266413398679626E-03         -0.232245348074598E-02
  |  28          0.563708342565948E-03         -0.808818824524491E-03          0.255317129482172E-02
  |  29         -0.107993626832576E-03          0.512066552430227E-03          0.116235277743620E-02
  |  30         -0.848976671851764E-04          0.824446023364290E-04         -0.189991939739787E-03
  |  31          0.266023111030314E-03          0.929765766271835E-03         -0.297201636144974E-03
  |  32          0.149186641757309E-03         -0.163317701550388E-03         -0.663997990835659E-03

  ------------------------------------ 
  Start decomposition of the XC Energy 
  ------------------------------------ 
  Hartree-Fock part   :          0.000000000 Ha              0.000000000 eV
  ------------------------------------ 
  X Energy            :        -96.977528940 Ha          -2638.892827839 eV
  C Energy GGA        :         -3.869739627 Ha           -105.300972896 eV
  Total XC Energy     :       -100.847268566 Ha          -2744.193800734 eV
  LDA X and C from self-consistent density 
  X Energy LDA        :        -87.996130475 Ha          -2394.496540880 eV
  C Energy LDA        :         -7.532021054 Ha           -204.956720953 eV
  ------------------------------------ 
  End decomposition of the XC Energy 
  ------------------------------------ 
   
  ESP charge fitting starts.
  | Calculation :  00000001  of  00000001
  | Full density
  Computing multipole expansion for total density.
  Generating points for esp charges.
  Partitioning the integration grid into batches with parallel hashing+maxmin method.
  | Number of batches:     3862
  | Maximal batch size:     197
  | Minimal batch size:      54
  | Average batch size:     126.358
  | Standard deviation of batch sizes:      18.479

  Integration load balanced across    32 MPI tasks.
  Work distribution over tasks is as follows:
  Initializing partition tables, free-atom densities, potentials, etc. across the integration grid (initialize_grid_storage).
  | Original list of interatomic distances with          32 x         32 entries is created.
  | Net number of integration points:   487993
  | of which are non-zero points    :   487993
  Summing up potential from multipole expanded  density.
  Summing up the Hartree potential.
  Time summed over all CPUs for potential: real work        6.369 s, elapsed        6.533 s
  Fitting esp charges to potential.
  |
  | ESP charges fitted to the electrostatic potential :
  |
  | Atom         1: C, ESP charge:      0.29000131
  |
  | Atom         2: C, ESP charge:     -0.58368033
  |
  | Atom         3: O, ESP charge:      0.54923711
  |
  | Atom         4: H, ESP charge:     -0.08900597
  |
  | Atom         5: H, ESP charge:     -0.11705653
  |
  | Atom         6: H, ESP charge:     -0.03418864
  |
  | Atom         7: N, ESP charge:      0.54066525
  |
  | Atom         8: C, ESP charge:     -0.40163704
  |
  | Atom         9: C, ESP charge:     -0.24264820
  |
  | Atom        10: O, ESP charge:      0.40558799
  |
  | Atom        11: H, ESP charge:     -0.28286778
  |
  | Atom        12: H, ESP charge:     -0.03332459
  |
  | Atom        13: C, ESP charge:      0.43146929
  |
  | Atom        14: H, ESP charge:     -0.13427690
  |
  | Atom        15: H, ESP charge:     -0.10224801
  |
  | Atom        16: H, ESP charge:     -0.11198150
  |
  | Atom        17: N, ESP charge:      0.43062975
  |
  | Atom        18: C, ESP charge:     -0.56272494
  |
  | Atom        19: C, ESP charge:     -0.07965742
  |
  | Atom        20: O, ESP charge:      0.43701179
  |
  | Atom        21: H, ESP charge:     -0.19914353
  |
  | Atom        22: H, ESP charge:      0.00230635
  |
  | Atom        23: C, ESP charge:      0.61528251
  |
  | Atom        24: H, ESP charge:     -0.16494928
  |
  | Atom        25: H, ESP charge:     -0.21036618
  |
  | Atom        26: H, ESP charge:     -0.12063243
  |
  | Atom        27: N, ESP charge:     -0.06451463
  |
  | Atom        28: C, ESP charge:      0.50173011
  |
  | Atom        29: H, ESP charge:     -0.19259122
  |
  | Atom        30: H, ESP charge:     -0.17639544
  |
  | Atom        31: H, ESP charge:     -0.13004447
  |
  | Atom        32: H, ESP charge:     -0.16998643

  RRMS:       0.00525432

  Done.

------------------------------------------------------------------------------
  Final output of selected total energy values:

  The following output summarizes some interesting total energy values
  at the end of a run (AFTER all relaxation, molecular dynamics, etc.).

  | Total energy of the DFT / Hartree-Fock s.c.f. calculation      :         -20208.452470909 eV
  | Final zero-broadening corrected energy (caution - metals only) :         -20208.452470909 eV
  | For reference only, the value of 1 Hartree used in FHI-aims is :             27.211384500 eV

  Before relying on these values, please be sure to understand exactly which
  total energy value is referred to by a given number. Different objects may
  all carry the same name 'total energy'. Definitions:

  Total energy of the DFT / Hartree-Fock s.c.f. calculation:
  | Note that this energy does not include ANY quantities calculated after the
  | s.c.f. cycle, in particular not ANY RPA, MP2, etc. many-body perturbation terms.

  Final zero-broadening corrected energy:
  | For metallic systems only, a broadening of the occupation numbers at the Fermi
  | level can be extrapolated back to zero broadening by an electron-gas inspired
  | formula. For all systems that are not real metals, this value can be
  | meaningless and should be avoided.

------------------------------------------------------------------------------
  Methods described in the following list of references were used in this FHI-aims run.
  If you publish the results, please make sure to cite these reference if they apply.
  FHI-aims is an academic code, and for our developers (often, Ph.D. students
  and postdocs), scientific credit in the community is essential.
  Thank you for helping us!

  For any use of FHI-aims, please cite:

    Volker Blum, Ralf Gehrke, Felix Hanke, Paula Havu, Ville Havu,
    Xinguo Ren, Karsten Reuter, and Matthias Scheffler
    'Ab initio molecular simulations with numeric atom-centered orbitals'
    Computer Physics Communications 180, 2175-2196 (2009)
    http://dx.doi.org/10.1016/j.cpc.2009.06.022


  The scalable eigensolver library ELPA was used in your run.
  ELPA is essential especially for large systems on hundreds or thousands of CPUs.
  For ELPA, please cite:

    Andreas Marek, Volker Blum, Rainer Johanni, Ville Havu, Bruno Lang,
    Thomas Auckenthaler, Alexander Heinecke, Hans-Joachim Bungartz, and Hermann Lederer,
    'The ELPA Library - Scalable Parallel Eigenvalue Solutions
    for Electronic Structure Theory and Computational Science'
    The Journal of Physics: Condensed Matter 26, 213201 (2014).
    http://dx.doi.org/10.1088/0953-8984/26/21/213201


  For ELPA's efficient two-stage tridiagonalization used in your run, please cite:

    T. Auckenthaler, V. Blum, H.-J. Bungartz, T. Huckle, R. Johanni, L. Kraemer,
    B. Lang, H. Lederer, and P. R. Willems,
    'Parallel solution of partial symmetric eigenvalue problems'
    'from  electronic structure calculations'
    Parallel Computing 37, 783-794 (2011).
    http://dx.doi.org/10.1016/j.parco.2011.05.002


  For the real-space grid partitioning and parallelization used in this calculation, please cite:

    Ville Havu, Volker Blum, Paula Havu, and Matthias Scheffler,
    'Efficient O(N) integration for all-electron electronic structure calculation'
    'using numerically tabulated basis functions'
    Journal of Computational Physics 228, 8367-8379 (2009).
    http://dx.doi.org/10.1016/j.jcp.2009.08.008

  Of course, there are many other important community references, e.g., those cited in the
  above references. Our list is limited to references that describe implementations in the
  FHI-aims code. The reason is purely practical (length of this list) - please credit others as well.

------------------------------------------------------------
          Leaving FHI-aims.
          Date     :  20170309, Time     :  190400.163

          Computational steps:
          | Number of self-consistency cycles          :           14

          Detailed time accounting                     :  max(cpu_time)    wall_clock(cpu1)
          | Total time                                 :       34.370 s          34.532 s
          | Preparation time                           :        0.240 s           0.239 s
          | Grid partitioning                          :        0.296 s           0.292 s
          | Preloading free-atom quantities on grid    :        0.028 s           0.028 s
          | Free-atom superposition energy             :        0.044 s           0.040 s
          | Total time for integrations                :       12.149 s          12.138 s
          | Total time for solution of K.-S. equations :        0.528 s           0.493 s
          | Total time for density & force components  :       11.781 s          11.756 s
          | Total time for mixing                      :        0.124 s           0.111 s
          | Total time for Hartree multipole update    :        0.064 s           0.057 s
          | Total time for Hartree multipole sum       :        6.924 s           6.908 s
          | Total time for total energy evaluation     :        0.028 s           0.021 s
          | Total time for vdW correction              :        0.128 s           0.129 s

          Have a nice day.
------------------------------------------------------------
