  MPI-parallelism will be employed.
------------------------------------------------------------
          Invoking FHI-aims ...
          Version 150427
          Git rev.: 9dd23e0 BL: Update Version stamp
          Compiled on 2015/11/03 at 22:05:20 on host eos03.

          When using FHI-aims, please cite the following reference:

          Volker Blum, Ralf Gehrke, Felix Hanke, Paula Havu,
          Ville Havu, Xinguo Ren, Karsten Reuter, and Matthias Scheffler,
          'Ab Initio Molecular Simulations with Numeric Atom-Centered Orbitals: FHI-aims',
          Computer Physics Communications 180, 2175-2196 (2009)

          For any questions about FHI-aims, please visit the aimsclub website
          with its forums and wiki. Contributions to both the forums and the
          wiki are warmly encouraged - they are for you, and everyone is welcome there.

------------------------------------------------------------

  Date     :  20170309, Time     :  185040.711
  Time zero on CPU 1             :   0.356022000000000E+00  s.
  Internal wall clock time zero  :           258317440.711  s.

  Using       32 parallel tasks.
  Task        0 on host eos306 reporting.
  Task        1 on host eos306 reporting.
  Task        2 on host eos306 reporting.
  Task        3 on host eos306 reporting.
  Task        4 on host eos306 reporting.
  Task        5 on host eos306 reporting.
  Task        6 on host eos306 reporting.
  Task        7 on host eos306 reporting.
  Task        8 on host eos306 reporting.
  Task        9 on host eos306 reporting.
  Task       10 on host eos306 reporting.
  Task       11 on host eos306 reporting.
  Task       12 on host eos306 reporting.
  Task       13 on host eos306 reporting.
  Task       14 on host eos306 reporting.
  Task       15 on host eos306 reporting.
  Task       16 on host eos306 reporting.
  Task       17 on host eos306 reporting.
  Task       18 on host eos306 reporting.
  Task       19 on host eos306 reporting.
  Task       20 on host eos306 reporting.
  Task       21 on host eos306 reporting.
  Task       22 on host eos306 reporting.
  Task       23 on host eos306 reporting.
  Task       24 on host eos306 reporting.
  Task       25 on host eos306 reporting.
  Task       26 on host eos306 reporting.
  Task       27 on host eos306 reporting.
  Task       28 on host eos306 reporting.
  Task       29 on host eos306 reporting.
  Task       30 on host eos306 reporting.
  Task       31 on host eos306 reporting.

  Performing system and environment tests:
  | Environment variable OMP_NUM_THREADS correctly set to 1.
  | Stacksize not measured: no C compiler
  | Checking for scalapack...
  | Testing pdtran()...
  | All pdtran() tests passed.

  Obtaining array dimensions for all initial allocations:
  
  -----------------------------------------------------------------------
  Parsing control.in (first pass over file, find array dimensions only).
  The contents of control.in will be repeated verbatim below
  unless switched off by setting 'verbatim_writeout .false.' .
  in the first line of control.in .
  -----------------------------------------------------------------------
  
  #########################################################################################
  #
  # Input for System
  #
  #########################################################################################
  #
  #
  #  Physical model
  #
    xc                 pbe
    vdw_correction_hirshfeld
    spin               none
    charge             0.
  #
  #  SCF convergence
  #
    occupation_type    gaussian 0.05
    mixer              pulay
      n_max_pulay        10
      charge_mix_param   0.5
    sc_accuracy_rho    1E-4
    sc_accuracy_eev    1E-2
    sc_accuracy_etot   1E-5
    sc_accuracy_forces 1E-4
    sc_iter_limit      1000
  #
  #  ESP charge
  #
    output esp
    esp equal_grid_n 80 80 80
  #
  #
  ################################################################################
  #
  #  FHI-aims code project
  # Volker Blum, Fritz Haber Institute Berlin, 2009
  #
  #  Suggested "tight" defaults for H atom (to be pasted into control.in file)
  #
  ################################################################################
    species        H
  #     global species definitions
      nucleus             1
      mass                1.00794
  #
      l_hartree           6
  #
      cut_pot             4.0  2.0  1.0
      basis_dep_cutoff    1e-4
  #
      radial_base         24 7.0
      radial_multiplier   2
      angular_grids       specified
        division   0.1930   50
        division   0.3175  110
        division   0.4293  194
        division   0.5066  302
        division   0.5626  434
  #      division   0.5922  590
  #      division   0.6227  974
  #      division   0.6868 1202
  #      outer_grid  770
        outer_grid  434
  ################################################################################
  #
  #  Definition of "minimal" basis
  #
  ################################################################################
  #     valence basis states
      valence      1  s   1.
  #     ion occupancy
      ion_occ      1  s   0.5
  ################################################################################
  #
  #  Suggested additional basis functions. For production calculations,
  #  uncomment them one after another (the most important basis functions are
  #  listed first).
  #
  #  Basis constructed for dimers: 0.5 A, 0.7 A, 1.0 A, 1.5 A, 2.5 A
  #
  ################################################################################
  #  "First tier" - improvements: -1014.90 meV to -62.69 meV
       hydro 2 s 2.1
       hydro 2 p 3.5
  #  "Second tier" - improvements: -12.89 meV to -1.83 meV
       hydro 1 s 0.85
       hydro 2 p 3.7
       hydro 2 s 1.2
       hydro 3 d 7
  #  "Third tier" - improvements: -0.25 meV to -0.12 meV
  #     hydro 4 f 11.2
  #     hydro 3 p 4.8
  #     hydro 4 d 9
  #     hydro 3 s 3.2
  ################################################################################
  #
  # For methods that use the localized form of the "resolution of identity" for
  # the two-electron Coulomb operator (RI_method LVL), particularly Hartree-Fock and
  # hybrid density functional calculations, the highest accuracy can be obtained by
  # uncommenting the line beginning with "for_aux"  below, thus adding an extra g radial
  # function to the construction of the product basis set for the expansion.
  # See Ref. New J. Phys. 17, 093020 (2015) for more information, particularly Figs. 1 and 6.
  #
  ################################################################################
  #
  # for_aux hydro 5 g 6.0
  ################################################################################
  #
  #  FHI-aims code project
  # Volker Blum, Fritz Haber Institute Berlin, 2009
  #
  #  Suggested "tight" defaults for C atom (to be pasted into control.in file)
  #
  ################################################################################
    species        C
  #     global species definitions
      nucleus             6
      mass                12.0107
  #
      l_hartree           6
  #
      cut_pot             4.0  2.0  1.0
      basis_dep_cutoff    1e-4
  #
      radial_base         34 7.0
      radial_multiplier   2
      angular_grids specified
        division   0.2187   50
        division   0.4416  110
        division   0.6335  194
        division   0.7727  302
        division   0.8772  434
  #      division   0.9334  590
  #      division   0.9924  770
  #      division   1.0230  974
  #      division   1.5020 1202
  #     outer_grid  974
        outer_grid  434
  ################################################################################
  #
  #  Definition of "minimal" basis
  #
  ################################################################################
  #     valence basis states
      valence      2  s   2.
      valence      2  p   2.
  #     ion occupancy
      ion_occ      2  s   1.
      ion_occ      2  p   1.
  ################################################################################
  #
  #  Suggested additional basis functions. For production calculations,
  #  uncomment them one after another (the most important basis functions are
  #  listed first).
  #
  #  Constructed for dimers: 1.0 A, 1.25 A, 1.5 A, 2.0 A, 3.0 A
  #
  ################################################################################
  #  "First tier" - improvements: -1214.57 meV to -155.61 meV
       hydro 2 p 1.7
       hydro 3 d 6
       hydro 2 s 4.9
  #  "Second tier" - improvements: -67.75 meV to -5.23 meV
       hydro 4 f 9.8
       hydro 3 p 5.2
       hydro 3 s 4.3
       hydro 5 g 14.4
       hydro 3 d 6.2
  #  "Third tier" - improvements: -2.43 meV to -0.60 meV
  #     hydro 2 p 5.6
  #     hydro 2 s 1.4
  #     hydro 3 d 4.9
  #     hydro 4 f 11.2
  #  "Fourth tier" - improvements: -0.39 meV to -0.18 meV
  #     hydro 2 p 2.1
  #     hydro 5 g 16.4
  #     hydro 4 d 13.2
  #     hydro 3 s 13.6
  #     hydro 4 f 17.6
  #  Further basis functions - improvements: -0.08 meV and below
  #     hydro 3 s 2
  #     hydro 3 p 6
  #     hydro 4 d 20
  ################################################################################
  #
  # For methods that use the localized form of the "resolution of identity" for
  # the two-electron Coulomb operator (RI_method LVL), particularly Hartree-Fock and
  # hybrid density functional calculations, the highest accuracy can be obtained by
  # uncommenting the line beginning with "for_aux"  below, thus adding an extra g radial
  # function to the construction of the product basis set for the expansion.
  # See Ref. New J. Phys. 17, 093020 (2015) for more information, particularly Figs. 1 and 6.
  #
  ################################################################################
  #
  # for_aux hydro 5 g 6.0
  ################################################################################
  #
  #  FHI-aims code project
  # Volker Blum, Fritz Haber Institute Berlin, 2009
  #
  #  Suggested "tight" defaults for N atom (to be pasted into control.in file)
  #
  ################################################################################
    species        N
  #     global species definitions
      nucleus             7
      mass                14.0067
  #
      l_hartree           6
  #
      cut_pot             4.0  2.0  1.0
      basis_dep_cutoff    1e-4
  #
      radial_base         35 7.0
      radial_multiplier   2
      angular_grids       specified
        division   0.1841   50
        division   0.3514  110
        division   0.5126  194
        division   0.6292  302
        division   0.6939  434
  #      division   0.7396  590
  #      division   0.7632  770
  #      division   0.8122  974
  #      division   1.1604 1202
  #      outer_grid  974
        outer_grid  434
  ################################################################################
  #
  #  Definition of "minimal" basis
  #
  ################################################################################
  #     valence basis states
      valence      2  s   2.
      valence      2  p   3.
  #     ion occupancy
      ion_occ      2  s   1.
      ion_occ      2  p   2.
  ################################################################################
  #
  #  Suggested additional basis functions. For production calculations,
  #  uncomment them one after another (the most important basis functions are
  #  listed first).
  #
  #  Constructed for dimers: 1.0 A, 1.1 A, 1.5 A, 2.0 A, 3.0 A
  #
  ################################################################################
  #  "First tier" - improvements: -1193.42 meV to -220.60 meV
       hydro 2 p 1.8
       hydro 3 d 6.8
       hydro 3 s 5.8
  #  "Second tier" - improvements: -80.21 meV to -6.86 meV
       hydro 4 f 10.8
       hydro 3 p 5.8
       hydro 1 s 0.8
       hydro 5 g 16
       hydro 3 d 4.9
  #  "Third tier" - improvements: -4.29 meV to -0.53 meV
  #     hydro 3 s 16
  #     ionic 2 p auto
  #     hydro 3 d 6.6
  #     hydro 4 f 11.6
  #  "Fourth tier" - improvements: -0.75 meV to -0.25 meV
  #     hydro 2 p 4.5
  #     hydro 2 s 2.4
  #     hydro 5 g 14.4
  #     hydro 4 d 14.4
  #     hydro 4 f 16.8
  # Further basis functions - -0.21 meV and below
  #     hydro 3 p 14.8
  #     hydro 3 s 4.4
  #     hydro 3 d 19.6
  #     hydro 5 g 12.8
  ################################################################################
  #
  # For methods that use the localized form of the "resolution of identity" for
  # the two-electron Coulomb operator (RI_method LVL), particularly Hartree-Fock and
  # hybrid density functional calculations, the highest accuracy can be obtained by
  # uncommenting the line beginning with "for_aux"  below, thus adding an extra g radial
  # function to the construction of the product basis set for the expansion.
  # See Ref. New J. Phys. 17, 093020 (2015) for more information, particularly Figs. 1 and 6.
  #
  ################################################################################
  #
  # for_aux hydro 5 g 6.0
  ################################################################################
  #
  #  FHI-aims code project
  # Volker Blum, Fritz Haber Institute Berlin, 2009
  #
  #  Suggested "tight" defaults for O atom (to be pasted into control.in file)
  #
  ################################################################################
    species        O
  #     global species definitions
      nucleus             8
      mass                15.9994
  #
      l_hartree           6
  #
      cut_pot             4.0  2.0  1.0
      basis_dep_cutoff    1e-4
  #
      radial_base         36 7.0
      radial_multiplier   2
       angular_grids specified
        division   0.1817   50
        division   0.3417  110
        division   0.4949  194
        division   0.6251  302
        division   0.8014  434
  #      division   0.8507  590
  #      division   0.8762  770
  #      division   0.9023  974
  #      division   1.2339 1202
  #      outer_grid 974
        outer_grid  434
  ################################################################################
  #
  #  Definition of "minimal" basis
  #
  ################################################################################
  #     valence basis states
      valence      2  s   2.
      valence      2  p   4.
  #     ion occupancy
      ion_occ      2  s   1.
      ion_occ      2  p   3.
  ################################################################################
  #
  #  Suggested additional basis functions. For production calculations,
  #  uncomment them one after another (the most important basis functions are
  #  listed first).
  #
  #  Constructed for dimers: 1.0 A, 1.208 A, 1.5 A, 2.0 A, 3.0 A
  #
  ################################################################################
  #  "First tier" - improvements: -699.05 meV to -159.38 meV
       hydro 2 p 1.8
       hydro 3 d 7.6
       hydro 3 s 6.4
  #  "Second tier" - improvements: -49.91 meV to -5.39 meV
       hydro 4 f 11.6
       hydro 3 p 6.2
       hydro 3 d 5.6
       hydro 5 g 17.6
       hydro 1 s 0.75
  #  "Third tier" - improvements: -2.83 meV to -0.50 meV
  #     ionic 2 p auto
  #     hydro 4 f 10.8
  #     hydro 4 d 4.7
  #     hydro 2 s 6.8
  #  "Fourth tier" - improvements: -0.40 meV to -0.12 meV
  #     hydro 3 p 5
  #     hydro 3 s 3.3
  #     hydro 5 g 15.6
  #     hydro 4 f 17.6
  #     hydro 4 d 14
  # Further basis functions - -0.08 meV and below
  #     hydro 3 s 2.1
  #     hydro 4 d 11.6
  #     hydro 3 p 16
  #     hydro 2 s 17.2
  ################################################################################
  #
  # For methods that use the localized form of the "resolution of identity" for
  # the two-electron Coulomb operator (RI_method LVL), particularly Hartree-Fock and
  # hybrid density functional calculations, the highest accuracy can be obtained by
  # uncommenting the line beginning with "for_aux"  below, thus adding an extra g radial
  # function to the construction of the product basis set for the expansion.
  # See Ref. New J. Phys. 17, 093020 (2015) for more information, particularly Figs. 1 and 6.
  #
  ################################################################################
  #
  # for_aux hydro 5 g 6.0
  
  -----------------------------------------------------------------------
  Completed first pass over input file control.in .
  -----------------------------------------------------------------------
  
  
  -----------------------------------------------------------------------
  Parsing geometry.in (first pass over file, find array dimensions only).
  The contents of geometry.in will be repeated verbatim below
  unless switched off by setting 'verbatim_writeout .false.' .
  in the first line of geometry.in .
  -----------------------------------------------------------------------
  
  #
  # This is the geometry file that corresponds to the current relaxation step.
  # If you do not want this file to be written, set the "write_restart_geometry" flag to .false.
  #
  atom      -0.03961637      0.09009555     -0.30165720 C
  atom       0.27636536     -0.56246866      1.03240592 C
  atom       1.39996904     -0.98715169      1.28895675 O
  atom       0.01933729      1.18336033     -0.20181261 H
  atom      -1.03227905     -0.16437468     -0.69289580 H
  atom       0.72498361     -0.22914146     -1.01540082 H
  atom      -0.72092389     -0.62706351      1.97853241 N
  atom      -2.13912697     -0.31500339      1.85205155 C
  atom      -2.82411937     -1.21356548      0.77926588 C
  atom      -2.49506982     -2.38313529      0.65350425 O
  atom      -0.43852779     -1.16435355      2.79165496 H
  atom      -2.59595330     -0.68633594      2.78291683 H
  atom      -2.41962843      1.19512637      1.79000550 C
  atom      -1.84813610      1.69960569      2.57846411 H
  atom      -3.48160988      1.41250685      1.97552341 H
  atom      -2.13014220      1.64252514      0.83055164 H
  atom      -3.79040207     -0.59106199      0.02397466 N
  atom      -4.83979841     -1.29436126     -0.70367495 C
  atom      -5.89214766     -1.83174284      0.30952498 C
  atom      -5.66378903     -1.86424558      1.51461465 O
  atom      -4.04648336      0.33874901      0.33474546 H
  atom      -5.33479494     -0.52417578     -1.31808276 H
  atom      -4.29950340     -2.37933487     -1.64907446 C
  atom      -5.07637556     -2.70438047     -2.35080933 H
  atom      -3.92925677     -3.24273394     -1.09046179 H
  atom      -3.46536410     -1.97179594     -2.23355789 H
  atom      -7.09847420     -2.24219304     -0.18894759 N
  atom      -7.59360731     -2.23488624     -1.55442835 C
  atom      -7.71010735     -2.61438212      0.53161080 H
  atom      -8.68492919     -2.12811691     -1.53585467 H
  atom      -7.34790507     -3.15769593     -2.10261840 H
  atom      -7.19328970     -1.38197438     -2.11595811 H
  
  -----------------------------------------------------------------------
  Completed first pass over input file geometry.in .
  -----------------------------------------------------------------------
  

  Basic array size parameters:
  | Number of species                 :        4
  | Number of atoms                   :       32
  | Max. basis fn. angular momentum   :        4
  | Max. atomic/ionic basis occupied n:        2
  | Max. number of basis fn. types    :        2
  | Max. radial fns per species/type  :        8
  | Max. logarithmic grid size        :     1301
  | Max. radial integration grid size :       73
  | Max. angular integration grid size:      434
  | Max. angular grid division number :        8
  | Radial grid for Hartree potential :     1301
  | Number of spin channels           :        1

------------------------------------------------------------
          Reading file control.in.
------------------------------------------------------------
  XC: Using PBE gradient-corrected functionals.
  Spin treatment: No spin polarisation.
  Charge =   0.000000E+00: Neutral system requested explicitly.
  Occupation type: Gaussian broadening, width =   0.500000E-01 eV.
  Using pulay charge density mixing.
  Pulay mixing - number of memorized iterations:   10
  Charge density mixing - mixing parameter:     0.5000
  Convergence accuracy of self-consistent charge density:  0.1000E-03
  Convergence accuracy of sum of eigenvalues:  0.1000E-01
  Convergence accuracy of total energy:  0.1000E-04
  Convergence accuracy of forces:  0.1000E-03
  Maximum number of s.-c. iterations  :  1000
  Fitting ESP-charges to Potential. 
  | Esp charge output options: 
  | ESP Grid method: 3, cubic grid
  | Number of points in x, ,y, z:  0080 0080 0080
  |
 
  Reading configuration options for species H                   .
  | Found nuclear charge :   1.0000
  | Found atomic mass :    1.00794000000000      amu
  | Found l_max for Hartree potential  :   6
  | Found cutoff potl. onset [A], width [A], scale factor :    4.00000    2.00000    1.00000
  | Threshold for basis-dependent cutoff potential is   0.100000E-03
  | Found data for basic radial integration grid :    24 points, outermost radius =    7.000 A
  | Found multiplier for basic radial grid :   2
  | Found angular grid specification: user-specified.
  | Specified grid contains     6 separate shells.
  | Check grid settings after all constraints further below.
  | Found free-atom valence shell :  1 s   1.000
  | No ionic wave fns used. Skipping ion_occ.
  | Found hydrogenic basis function :  2 s   2.100
  | Found hydrogenic basis function :  2 p   3.500
  | Found hydrogenic basis function :  1 s   0.850
  | Found hydrogenic basis function :  2 p   3.700
  | Found hydrogenic basis function :  2 s   1.200
  | Found hydrogenic basis function :  3 d   7.000
  Species H                   : Missing cutoff potential type.
  Defaulting to exp(1/x)/(1-x)^2 type cutoff potential.
  Species H : No 'logarithmic' tag. Using default grid for free atom:
  | Default logarithmic grid data [bohr] : 0.1000E-03 0.1000E+03 0.1012E+01
  Species H : On-site basis accuracy parameter (for Gram-Schmidt orthonormalisation) not specified.
  Using default value basis_acc =  0.1000000E-03.
  Species H                   : Using default innermost maximum threshold i_radial=  2 for radial functions.
  Species H                   : Default cutoff onset for free atom density etc. : 0.40000000E+01 AA.
  Species H                   : Basic radial grid will be enhanced according to radial_multiplier =   2, to contain    49 grid points.
 
  Reading configuration options for species C                   .
  | Found nuclear charge :   6.0000
  | Found atomic mass :    12.0107000000000      amu
  | Found l_max for Hartree potential  :   6
  | Found cutoff potl. onset [A], width [A], scale factor :    4.00000    2.00000    1.00000
  | Threshold for basis-dependent cutoff potential is   0.100000E-03
  | Found data for basic radial integration grid :    34 points, outermost radius =    7.000 A
  | Found multiplier for basic radial grid :   2
  | Found angular grid specification: user-specified.
  | Specified grid contains     6 separate shells.
  | Check grid settings after all constraints further below.
  | Found free-atom valence shell :  2 s   2.000
  | Found free-atom valence shell :  2 p   2.000
  | No ionic wave fns used. Skipping ion_occ.
  | No ionic wave fns used. Skipping ion_occ.
  | Found hydrogenic basis function :  2 p   1.700
  | Found hydrogenic basis function :  3 d   6.000
  | Found hydrogenic basis function :  2 s   4.900
  | Found hydrogenic basis function :  4 f   9.800
  | Found hydrogenic basis function :  3 p   5.200
  | Found hydrogenic basis function :  3 s   4.300
  | Found hydrogenic basis function :  5 g  14.400
  | Found hydrogenic basis function :  3 d   6.200
  Species C                   : Missing cutoff potential type.
  Defaulting to exp(1/x)/(1-x)^2 type cutoff potential.
  Species C : No 'logarithmic' tag. Using default grid for free atom:
  | Default logarithmic grid data [bohr] : 0.1000E-03 0.1000E+03 0.1012E+01
  Species C : On-site basis accuracy parameter (for Gram-Schmidt orthonormalisation) not specified.
  Using default value basis_acc =  0.1000000E-03.
  Species C                   : Using default innermost maximum threshold i_radial=  2 for radial functions.
  Species C                   : Default cutoff onset for free atom density etc. : 0.40000000E+01 AA.
  Species C                   : Basic radial grid will be enhanced according to radial_multiplier =   2, to contain    69 grid points.
 
  Reading configuration options for species N                   .
  | Found nuclear charge :   7.0000
  | Found atomic mass :    14.0067000000000      amu
  | Found l_max for Hartree potential  :   6
  | Found cutoff potl. onset [A], width [A], scale factor :    4.00000    2.00000    1.00000
  | Threshold for basis-dependent cutoff potential is   0.100000E-03
  | Found data for basic radial integration grid :    35 points, outermost radius =    7.000 A
  | Found multiplier for basic radial grid :   2
  | Found angular grid specification: user-specified.
  | Specified grid contains     6 separate shells.
  | Check grid settings after all constraints further below.
  | Found free-atom valence shell :  2 s   2.000
  | Found free-atom valence shell :  2 p   3.000
  | No ionic wave fns used. Skipping ion_occ.
  | No ionic wave fns used. Skipping ion_occ.
  | Found hydrogenic basis function :  2 p   1.800
  | Found hydrogenic basis function :  3 d   6.800
  | Found hydrogenic basis function :  3 s   5.800
  | Found hydrogenic basis function :  4 f  10.800
  | Found hydrogenic basis function :  3 p   5.800
  | Found hydrogenic basis function :  1 s   0.800
  | Found hydrogenic basis function :  5 g  16.000
  | Found hydrogenic basis function :  3 d   4.900
  Species N                   : Missing cutoff potential type.
  Defaulting to exp(1/x)/(1-x)^2 type cutoff potential.
  Species N : No 'logarithmic' tag. Using default grid for free atom:
  | Default logarithmic grid data [bohr] : 0.1000E-03 0.1000E+03 0.1012E+01
  Species N : On-site basis accuracy parameter (for Gram-Schmidt orthonormalisation) not specified.
  Using default value basis_acc =  0.1000000E-03.
  Species N                   : Using default innermost maximum threshold i_radial=  2 for radial functions.
  Species N                   : Default cutoff onset for free atom density etc. : 0.40000000E+01 AA.
  Species N                   : Basic radial grid will be enhanced according to radial_multiplier =   2, to contain    71 grid points.
 
  Reading configuration options for species O                   .
  | Found nuclear charge :   8.0000
  | Found atomic mass :    15.9994000000000      amu
  | Found l_max for Hartree potential  :   6
  | Found cutoff potl. onset [A], width [A], scale factor :    4.00000    2.00000    1.00000
  | Threshold for basis-dependent cutoff potential is   0.100000E-03
  | Found data for basic radial integration grid :    36 points, outermost radius =    7.000 A
  | Found multiplier for basic radial grid :   2
  | Found angular grid specification: user-specified.
  | Specified grid contains     6 separate shells.
  | Check grid settings after all constraints further below.
  | Found free-atom valence shell :  2 s   2.000
  | Found free-atom valence shell :  2 p   4.000
  | No ionic wave fns used. Skipping ion_occ.
  | No ionic wave fns used. Skipping ion_occ.
  | Found hydrogenic basis function :  2 p   1.800
  | Found hydrogenic basis function :  3 d   7.600
  | Found hydrogenic basis function :  3 s   6.400
  | Found hydrogenic basis function :  4 f  11.600
  | Found hydrogenic basis function :  3 p   6.200
  | Found hydrogenic basis function :  3 d   5.600
  | Found hydrogenic basis function :  5 g  17.600
  | Found hydrogenic basis function :  1 s   0.750
  Species O                   : Missing cutoff potential type.
  Defaulting to exp(1/x)/(1-x)^2 type cutoff potential.
  Species O : No 'logarithmic' tag. Using default grid for free atom:
  | Default logarithmic grid data [bohr] : 0.1000E-03 0.1000E+03 0.1012E+01
  Species O : On-site basis accuracy parameter (for Gram-Schmidt orthonormalisation) not specified.
  Using default value basis_acc =  0.1000000E-03.
  Species O                   : Using default innermost maximum threshold i_radial=  2 for radial functions.
  Species O                   : Default cutoff onset for free atom density etc. : 0.40000000E+01 AA.
  Species O                   : Basic radial grid will be enhanced according to radial_multiplier =   2, to contain    73 grid points.
 
  Finished reading input file 'control.in'. Consistency checks are next.
 
  Target number of points in a grid batch is not set. Defaulting to  100
  Method for grid partitioning is not set. Defaulting to parallel hash+maxmin partitioning.
  Batch size limit is not set. Defaulting to    200
  By default, will store active basis functions for each batch.
  If in need of memory, prune_basis_once .false. can be used to disable this option.
  communication_type for Hartree potential was not specified.
  Defaulting to calc_hartree .
  Pulay mixer: Number of initial linear mixing iterations not set.
  Defaulting to    0 iterations.
  Work space size for distributed Hartree potential not set.
  Defaulting to   0.200000E+03 MB.
  Algorithm-dependent basis array size parameters:
  | n_max_pulay                         :       10
  Geometry relaxation not requested: no relaxation will be performed.
  Handling of forces: Unphysical translation and rotation will be removed from forces.
  No accuracy limit for integral partition fn. given. Defaulting to  0.1000E-14.
  No threshold value for u(r) in integrations given. Defaulting to  0.1000E-05.
  No accuracy for occupation numbers given. Defaulting to  0.1000E-07.
  No threshold value for occupation numbers given. Defaulting to  0.0000E+00.
  No accuracy for fermi level given. Defaulting to  0.1000E-19.
  Maximum # of iterations to find E_F not set. Defaulting to  200.
  Preferred method for the eigenvalue solver ('KS_method') not specified in 'control.in'.
  Calling blacs routine to test compilation state
  Since scalapack support is enabled, defaulting to 'elpa'.
  Preferred method for the MBD eigenvalue solver ('mbd_eigensolver') not specified in 'control.in'.
  Calling blacs routine to test compilation state
  Since scalapack support is enabled, defaulting to 'scaLAPACK'.
  Will not use alltoall communication since running on < 1024 CPUs.
  Threshold for basis singularities not set.
  Default threshold for basis singularities:  0.1000E-04
  partition_type (choice of integration weights) for integrals was not specified.
  | Using a version of the partition function of Stratmann and coworkers ('stratmann_smoother').
  | At each grid point, the set of atoms used to build the partition table is smoothly restricted to
  | only those atoms whose free-atom density would be non-zero at that grid point.
  Partitioning for Hartree potential was not defined. Using partition_type for integrals.
  | Adjusted default value of keyword multip_moments_threshold to:       0.10000000E-11
  | This value may affect high angular momentum components of the Hartree potential in periodic systems.
  No q(lm)/r^(l+1) cutoff set for long-range Hartree potential.
  | Using default value of  0.100000E-09 .
  | Verify using the multipole_threshold keyword.
  Defaulting to new monopole extrapolation.
  Density update method: automatic selection selected.
------------------------------------------------------------


------------------------------------------------------------
          Reading geometry description geometry.in.
------------------------------------------------------------
 * Warning! You did not set the 'relativistic' flag in input file 'control.in'.
 * Since you are not attempting to treat any elements beyond Ca(Z=20), FHI-aims
 * will default to 'relativistic none'.
 * You must ensure that this is really what you want!!
 * For example, DO NOT compute total-energy differences between results from
 * different settings of the 'relativistic' flag.
  Input structure read successfully.
  The structure contains       32 atoms,  and a total of        116.000 electrons.

  Input geometry:
  | No unit cell requested.
  | Atomic structure:
  |       Atom                x [A]            y [A]            z [A]
  |    1: Species C             -0.039616         0.090096        -0.301657
  |    2: Species C              0.276365        -0.562469         1.032406
  |    3: Species O              1.399969        -0.987152         1.288957
  |    4: Species H              0.019337         1.183360        -0.201813
  |    5: Species H             -1.032279        -0.164375        -0.692896
  |    6: Species H              0.724984        -0.229141        -1.015401
  |    7: Species N             -0.720924        -0.627064         1.978532
  |    8: Species C             -2.139127        -0.315003         1.852052
  |    9: Species C             -2.824119        -1.213565         0.779266
  |   10: Species O             -2.495070        -2.383135         0.653504
  |   11: Species H             -0.438528        -1.164354         2.791655
  |   12: Species H             -2.595953        -0.686336         2.782917
  |   13: Species C             -2.419628         1.195126         1.790005
  |   14: Species H             -1.848136         1.699606         2.578464
  |   15: Species H             -3.481610         1.412507         1.975523
  |   16: Species H             -2.130142         1.642525         0.830552
  |   17: Species N             -3.790402        -0.591062         0.023975
  |   18: Species C             -4.839798        -1.294361        -0.703675
  |   19: Species C             -5.892148        -1.831743         0.309525
  |   20: Species O             -5.663789        -1.864246         1.514615
  |   21: Species H             -4.046483         0.338749         0.334745
  |   22: Species H             -5.334795        -0.524176        -1.318083
  |   23: Species C             -4.299503        -2.379335        -1.649074
  |   24: Species H             -5.076376        -2.704380        -2.350809
  |   25: Species H             -3.929257        -3.242734        -1.090462
  |   26: Species H             -3.465364        -1.971796        -2.233558
  |   27: Species N             -7.098474        -2.242193        -0.188948
  |   28: Species C             -7.593607        -2.234886        -1.554428
  |   29: Species H             -7.710107        -2.614382         0.531611
  |   30: Species H             -8.684929        -2.128117        -1.535855
  |   31: Species H             -7.347905        -3.157696        -2.102618
  |   32: Species H             -7.193290        -1.381974        -2.115958
  |

  | The smallest distance between any two atoms is         1.01326434 AA.
  |
  | The first atom of this pair is atom number                     17 .
  | The second atom of this pair is atom number                    21 .

  Number of empty states per atom not set in control.in - providing a guess from actual geometry.
  | Total number of empty states used during s.c.f. cycle:       71
  If you use a very high smearing, use empty_states (per atom!) in control.in to increase this value.

  Structure-dependent array size parameters: 
  | Maximum number of distinct radial functions  :       40
  | Maximum number of basis functions            :      840
  | Number of Kohn-Sham states (occupied + empty):      129
------------------------------------------------------------

------------------------------------------------------------
          Preparing all fixed parts of the calculation.
------------------------------------------------------------
  Determining machine precision:
    2.225073858507201E-308
  Setting up grids for atomic and cluster calculations.

  Creating wave function, potential, and density for free atoms.

  Species: H

  List of occupied orbitals and eigenvalues:
    n    l              occ      energy [Ha]    energy [eV]
    1    0           1.0000        -0.238382        -6.4867


  Species: C

  List of occupied orbitals and eigenvalues:
    n    l              occ      energy [Ha]    energy [eV]
    1    0           2.0000       -10.041232      -273.2358
    2    0           2.0000        -0.504327       -13.7234
    2    1           2.0000        -0.193750        -5.2722


  Species: N

  List of occupied orbitals and eigenvalues:
    n    l              occ      energy [Ha]    energy [eV]
    1    0           2.0000       -14.129007      -384.4699
    2    0           2.0000        -0.681802       -18.5528
    2    1           3.0000        -0.260543        -7.0897


  Species: O

  List of occupied orbitals and eigenvalues:
    n    l              occ      energy [Ha]    energy [eV]
    1    0           2.0000       -18.898576      -514.2564
    2    0           2.0000        -0.878795       -23.9132
    2    1           4.0000        -0.332075        -9.0362

  Creating fixed part of basis set: Ionic, confined, hydrogenic.
 
  H                    hydrogenic:
 
  List of hydrogenic basis orbitals: 
    n    l      effective z      eigenvalue [eV]  inner max. [A]     outer max. [A]     outer radius [A]   
    2    0         2.100000       -14.9965           0.193243           1.317208           5.373006
    2    1         3.500000       -41.6672           0.602369           0.602369           4.056063
    1    0         0.850000        -9.8292           0.624871           0.624871           5.373006
    2    1         3.700000       -46.5653           0.573622           0.573622           3.910002
    2    0         1.200000        -4.5995           0.334980           2.228188           5.505995
    3    2         7.000000       -74.0753           0.680699           0.680699           3.769201
 
 
  C                    hydrogenic:
 
  List of hydrogenic basis orbitals: 
    n    l      effective z      eigenvalue [eV]  inner max. [A]     outer max. [A]     outer radius [A]   
    2    1         1.700000        -9.8152           1.245706           1.245706           5.401630
    3    2         6.000000       -54.4226           0.792453           0.792453           4.178599
    2    0         4.900000       -81.6681           0.082559           0.562749           3.353238
    4    3         9.800000       -81.6681           0.863254           0.863254           4.028125
    3    1         5.200000       -40.8774           0.305389           1.215618           4.898362
    3    0         4.300000       -27.9508           0.091041           1.610311           5.401630
    5    4        14.400000      -112.8510           0.917666           0.917666           3.883070
    3    2         6.200000       -58.1113           0.763917           0.763917           4.077671
 
 
  N                    hydrogenic:
 
  List of hydrogenic basis orbitals: 
    n    l      effective z      eigenvalue [eV]  inner max. [A]     outer max. [A]     outer radius [A]   
    2    1         1.800000       -11.0118           1.177451           1.177451           5.427479
    3    2         6.800000       -69.9029           0.704619           0.704619           3.854246
    3    0         5.800000       -50.8549           0.067388           1.191934           4.629968
    4    3        10.800000       -99.1854           0.786571           0.786571           3.761152
    3    1         5.800000       -50.8549           0.274880           1.094176           4.518138
    1    0         0.800000        -8.7059           0.662839           0.662839           5.361532
    5    4        16.000000      -139.3222           0.825990           0.825990           3.625711
    3    2         4.900000       -36.2967           0.968267           0.968267           4.862000
 
 
  O                    hydrogenic:
 
  List of hydrogenic basis orbitals: 
    n    l      effective z      eigenvalue [eV]  inner max. [A]     outer max. [A]     outer radius [A]   
    2    1         1.800000       -11.0118           1.178562           1.178562           5.432602
    3    2         7.600000       -87.3182           0.624125           0.624125           3.541477
    3    0         6.400000       -61.9209           0.061167           1.081902           4.306578
    4    3        11.600000      -114.4238           0.731631           0.731631           3.585037
    3    1         6.200000       -58.1113           0.255680           1.030270           4.306578
    3    2         5.600000       -47.4081           0.847233           0.847233           4.413171
    5    4        17.600000      -168.5799           0.749740           0.749740           3.372465
    1    0         0.750000        -7.6499           0.705284           0.705284           5.366593
 

  Adding cutoff potential to free-atom effective potential.
  Creating atomic-like basis functions for current effective potential.

  Species H                   :

  List of atomic basis orbitals and eigenvalues:
    n    l      energy [Ha]    energy [eV]    outer radius [A]
    1    0        -0.238382        -6.4867       5.373006


  Species C                   :

  List of atomic basis orbitals and eigenvalues:
    n    l      energy [Ha]    energy [eV]    outer radius [A]
    1    0       -10.041232      -273.2358       1.934409
    2    0        -0.504327       -13.7234       5.271162
    2    1        -0.193750        -5.2722       5.401630


  Species N                   :

  List of atomic basis orbitals and eigenvalues:
    n    l      energy [Ha]    energy [eV]    outer radius [A]
    1    0       -14.129007      -384.4699       1.637919
    2    0        -0.681802       -18.5528       5.168461
    2    1        -0.260543        -7.0897       5.361532


  Species O                   :

  List of atomic basis orbitals and eigenvalues:
    n    l      energy [Ha]    energy [eV]    outer radius [A]
    1    0       -18.898576      -514.2564       1.415765
    2    0        -0.878795       -23.9132       5.048385
    2    1        -0.332075        -9.0362       5.301386

  Assembling full basis from fixed parts.
  | Species H :   atomic orbital   1 s accepted.
  | Species H :    hydro orbital   2 s accepted.
  | Species H :    hydro orbital   1 s accepted.
  | Species H :    hydro orbital   2 s accepted.
  | Species H :    hydro orbital   2 p accepted.
  | Species H :    hydro orbital   2 p accepted.
  | Species H :    hydro orbital   3 d accepted.
  | Species C :   atomic orbital   1 s accepted.
  | Species C :    hydro orbital   2 s accepted.
  | Species C :   atomic orbital   2 s accepted.
  | Species C :    hydro orbital   3 s accepted.
  | Species C :    hydro orbital   3 p accepted.
  | Species C :   atomic orbital   2 p accepted.
  | Species C :    hydro orbital   2 p accepted.
  | Species C :    hydro orbital   3 d accepted.
  | Species C :    hydro orbital   3 d accepted.
  | Species C :    hydro orbital   4 f accepted.
  | Species C :    hydro orbital   5 g accepted.
  | Species N :   atomic orbital   1 s accepted.
  | Species N :    hydro orbital   3 s accepted.
  | Species N :   atomic orbital   2 s accepted.
  | Species N :    hydro orbital   1 s accepted.
  | Species N :    hydro orbital   3 p accepted.
  | Species N :   atomic orbital   2 p accepted.
  | Species N :    hydro orbital   2 p accepted.
  | Species N :    hydro orbital   3 d accepted.
  | Species N :    hydro orbital   3 d accepted.
  | Species N :    hydro orbital   4 f accepted.
  | Species N :    hydro orbital   5 g accepted.
  | Species O :   atomic orbital   1 s accepted.
  | Species O :    hydro orbital   3 s accepted.
  | Species O :   atomic orbital   2 s accepted.
  | Species O :    hydro orbital   1 s accepted.
  | Species O :    hydro orbital   3 p accepted.
  | Species O :   atomic orbital   2 p accepted.
  | Species O :    hydro orbital   2 p accepted.
  | Species O :    hydro orbital   3 d accepted.
  | Species O :    hydro orbital   3 d accepted.
  | Species O :    hydro orbital   4 f accepted.
  | Species O :    hydro orbital   5 g accepted.
 
  Basis size parameters after reduction:
  | Total number of radial functions:       40
  | Total number of basis functions :      840
 
  Testing on-site integration grid accuracy.
  |  Species  Function  <phi|h_atom|phi> (log., in eV)  <phi|h_atom|phi> (rad., in eV)
           1        1                 -6.4869821809                 -6.4870742227
           1        2                 13.5044133542                 13.5041049177
           1        3                 32.7854418792                 32.7779770519
           1        4                 33.7995553101                 33.7152624900 ***
           1        5                 28.8558651799                 28.8558652046
           1        6                 59.6361831893                 59.6362535845
           1        7                 60.2733718049                 60.2733715484
           2        8               -273.2358277112               -273.2358261765
           2        9                -10.7624923123                -10.7625144012
           2       10                 17.4634079027                 17.4634252127
           2       11                 53.0363661832                 53.0366180446
           2       12                 15.0981351967                 15.0981317714
           2       13                  3.8522181899                  3.8522770949
           2       14                 12.1181835661                 12.1206868578
           2       15                 29.4320778347                 29.4320780959
           2       16                 54.8753777694                 54.8752901936
           2       17                 59.3533975461                 59.3533974833
           2       18                 93.4537491195                 93.4537492066
           3       19               -384.4698526889               -384.4698499465
           3       20                 12.5691022037                 12.5690910168
           3       21                -15.7489097511                -15.7489165588
           3       22                 27.0978334940                 27.0985589490
           3       23                 18.5949116966                 18.5949125562
           3       24                  1.2212828291                  1.2212855301
           3       25                 13.4428926797                 13.4434051125
           3       26                 35.9380614500                 35.9380613666
           3       27                 39.9231532098                 39.9231654735
           3       28                 72.9957335806                 72.9957336833
           3       29                116.4231321147                116.4231321431
           4       30               -514.2564144315               -514.2564099626
           4       31                 15.1726678541                 15.1726530877
           4       32                -21.5447785304                -21.5447874973
           4       33                 14.4944558459                 14.4944698284
           4       34                 20.8882174564                 20.8882178906
           4       35                 -2.4850315908                 -2.4850322289
           4       36                 13.8600193195                 13.8599826966
           4       37                 45.8243383616                 45.8243383675
           4       38                 52.1840606465                 52.1840622440
           4       39                 85.4074185510                 85.4074185819
           4       40                142.0983717302                142.0983717339
 * Note: Onsite integrals marked "***" above are less accurate than
 * onsite_accuracy_threshold =    0.03000 eV. Usually, this is harmless.
 * When in doubt, tighten the "radial" and/or "radial_multiplier" flags to check.

  Preparing densities etc. for the partition functions (integrals / Hartree potential).

  Preparations completed.
  max(cpu_time)          :      0.240 s.
  Wall clock time (cpu1) :      0.236 s.
------------------------------------------------------------

------------------------------------------------------------
          Begin self-consistency loop: Initialization.

          Date     :  20170309, Time     :  185041.735
------------------------------------------------------------

  Initializing index lists of integration centers etc. from given atomic structure:
  | Number of centers in hartree potential         :        32
  | Number of centers in hartree multipole         :        32
  | Number of centers in electron density summation:        32
  | Number of centers in basis integrals           :        32
  | Number of centers in integrals                 :        32
  | Number of centers in hamiltonian               :        32
  Using modified Scalapack Eigenvalue solver (ELPA)
  * Using 32 tasks for Scalapack Eigenvalue solver.
  Detailed listing of tasks and assigned k-points:
  (for non-periodic systems, the "k-point" denotes an internal label only)
   Task     0 k-point     1 on eos306
   Task     1 k-point     1 on eos306
   Task     2 k-point     1 on eos306
   Task     3 k-point     1 on eos306
   Task     4 k-point     1 on eos306
   Task     5 k-point     1 on eos306
   Task     6 k-point     1 on eos306
   Task     7 k-point     1 on eos306
   Task     8 k-point     1 on eos306
   Task     9 k-point     1 on eos306
   Task    10 k-point     1 on eos306
   Task    11 k-point     1 on eos306
   Task    12 k-point     1 on eos306
   Task    13 k-point     1 on eos306
   Task    14 k-point     1 on eos306
   Task    15 k-point     1 on eos306
   Task    16 k-point     1 on eos306
   Task    17 k-point     1 on eos306
   Task    18 k-point     1 on eos306
   Task    19 k-point     1 on eos306
   Task    20 k-point     1 on eos306
   Task    21 k-point     1 on eos306
   Task    22 k-point     1 on eos306
   Task    23 k-point     1 on eos306
   Task    24 k-point     1 on eos306
   Task    25 k-point     1 on eos306
   Task    26 k-point     1 on eos306
   Task    27 k-point     1 on eos306
   Task    28 k-point     1 on eos306
   Task    29 k-point     1 on eos306
   Task    30 k-point     1 on eos306
   Task    31 k-point     1 on eos306
  Tasks:    32 split into      8 X      4 BLACS grid
  Calculating blocksize based on n_basis =          840 max_nprow =            8 max_npcol =            4
  Scalapack blocksize set to:           16
  Required Scalapack workspace - INTEGER:            1 REAL:             1
  Partitioning the integration grid into batches with parallel hashing+maxmin method.
  | Number of batches:     5108
  | Maximal batch size:     200
  | Minimal batch size:      20
  | Average batch size:     103.314
  | Standard deviation of batch sizes:      25.965

  Integration load balanced across    32 MPI tasks.
  Work distribution over tasks is as follows:
  Task     0 has      16464 integration points.
  Task     1 has      16491 integration points.
  Task     2 has      16519 integration points.
  Task     3 has      16476 integration points.
  Task     4 has      16464 integration points.
  Task     5 has      16510 integration points.
  Task     6 has      16490 integration points.
  Task     7 has      16501 integration points.
  Task     8 has      16509 integration points.
  Task     9 has      16475 integration points.
  Task    10 has      16515 integration points.
  Task    11 has      16497 integration points.
  Task    12 has      16467 integration points.
  Task    13 has      16466 integration points.
  Task    14 has      16472 integration points.
  Task    15 has      16501 integration points.
  Task    16 has      16461 integration points.
  Task    17 has      16480 integration points.
  Task    18 has      16512 integration points.
  Task    19 has      16462 integration points.
  Task    20 has      16466 integration points.
  Task    21 has      16495 integration points.
  Task    22 has      16645 integration points.
  Task    23 has      16492 integration points.
  Task    24 has      16510 integration points.
  Task    25 has      16466 integration points.
  Task    26 has      16475 integration points.
  Task    27 has      16471 integration points.
  Task    28 has      16577 integration points.
  Task    29 has      16468 integration points.
  Task    30 has      16459 integration points.
  Task    31 has      16472 integration points.
  Initializing partition tables, free-atom densities, potentials, etc. across the integration grid (initialize_grid_storage).
  | initialize_grid_storage: Actual outermost partition radius vs. multipole_radius_free
  | (-- VB: in principle, multipole_radius_free should be larger, hence this output)
  | Species        1: Confinement radius =              6.000000000000000 AA, multipole_radius_free =              6.071692442739658 AA.
  | Species        1: outer_partition_radius set to              6.071692442739658 AA .
  | Species        2: Confinement radius =              6.000000000000000 AA, multipole_radius_free =              6.029870734432609 AA.
  | Species        2: outer_partition_radius set to              6.029870734432609 AA .
  | Species        3: Confinement radius =              6.000000000000000 AA, multipole_radius_free =              6.058726835495003 AA.
  | Species        3: outer_partition_radius set to              6.058726835495003 AA .
  | Species        4: Confinement radius =              6.000000000000000 AA, multipole_radius_free =              6.064445521808699 AA.
  | Species        4: outer_partition_radius set to              6.064445521808699 AA .
  | Original list of interatomic distances with          32 x         32 entries is created.
  | Net number of integration points:   527728
  | of which are non-zero points    :   414839
  Obtaining max. number of non-zero basis functions in each batch (get_n_compute_maxes).
  | Maximal number of non-zero basis functions:      731 in task     0
  | Maximal number of non-zero basis functions:      725 in task     1
  | Maximal number of non-zero basis functions:      714 in task     2
  | Maximal number of non-zero basis functions:      722 in task     3
  | Maximal number of non-zero basis functions:      737 in task     4
  | Maximal number of non-zero basis functions:      731 in task     5
  | Maximal number of non-zero basis functions:      726 in task     6
  | Maximal number of non-zero basis functions:      730 in task     7
  | Maximal number of non-zero basis functions:      730 in task     8
  | Maximal number of non-zero basis functions:      713 in task     9
  | Maximal number of non-zero basis functions:      726 in task    10
  | Maximal number of non-zero basis functions:      739 in task    11
  | Maximal number of non-zero basis functions:      735 in task    12
  | Maximal number of non-zero basis functions:      713 in task    13
  | Maximal number of non-zero basis functions:      715 in task    14
  | Maximal number of non-zero basis functions:      731 in task    15
  | Maximal number of non-zero basis functions:      725 in task    16
  | Maximal number of non-zero basis functions:      730 in task    17
  | Maximal number of non-zero basis functions:      715 in task    18
  | Maximal number of non-zero basis functions:      719 in task    19
  | Maximal number of non-zero basis functions:      719 in task    20
  | Maximal number of non-zero basis functions:      731 in task    21
  | Maximal number of non-zero basis functions:      717 in task    22
  | Maximal number of non-zero basis functions:      729 in task    23
  | Maximal number of non-zero basis functions:      720 in task    24
  | Maximal number of non-zero basis functions:      726 in task    25
  | Maximal number of non-zero basis functions:      724 in task    26
  | Maximal number of non-zero basis functions:      713 in task    27
  | Maximal number of non-zero basis functions:      724 in task    28
  | Maximal number of non-zero basis functions:      716 in task    29
  | Maximal number of non-zero basis functions:      724 in task    30
  | Maximal number of non-zero basis functions:      730 in task    31
  Selecting the method for density update.
  Loop over occupied states selected for charge density update.
  Integrating Hamiltonian matrix: batch-based integration.
  Time summed over all CPUs for integration: real work       20.546 s, elapsed       21.372 s
  Integrating overlap matrix.
  Time summed over all CPUs for integration: real work       12.294 s, elapsed       12.895 s
  Deallocating overlap matrix.

  Updating Kohn-Sham eigenvalues, eigenvectors, occupation numbers, and Fermi level.
  Solving generalized eigenproblem
  Solving real symmetric generalised eigenvalue problem by standard ScaLAPACK.
  Transforming overlap matrix with ScaLAPACK and checking for singularities.
  : Overlap matrix is nonsingular, using Cholesky decomposition
  | Lowest eigenvalue:  0.948061E-04
  Factoring overlap matrix with Cholesky decomposition
  Using Cholesky factor for transformation
  Using 1-stage real ELPA solver
  Determining occupation numbers for Kohn-Sham eigenstates.
  | Chemical potential (Fermi level) in eV                 : -.92180133E+01
  | Error in electron count due to remaining E_F inaccuracy: 0.00000000E+00
  | Maximum occupation number of highest empty state:  0.00E+00

  Writing Kohn-Sham eigenvalues.

  State    Occupation    Eigenvalue [Ha]    Eigenvalue [eV]
      1       2.00000         -18.976366         -516.37319
      2       2.00000         -18.974485         -516.32200
      3       2.00000         -18.974125         -516.31222
      4       2.00000         -14.254490         -387.88440
      5       2.00000         -14.253810         -387.86590
      6       2.00000         -14.253054         -387.84534
      7       2.00000         -10.171113         -276.77007
      8       2.00000         -10.171034         -276.76792
      9       2.00000         -10.170521         -276.75397
     10       2.00000         -10.166658         -276.64883
     11       2.00000         -10.146911         -276.11149
     12       2.00000         -10.146874         -276.11048
     13       2.00000         -10.135487         -275.80062
     14       2.00000         -10.133406         -275.74401
     15       2.00000         -10.133004         -275.73308
     16       2.00000          -1.137558          -30.95454
     17       2.00000          -1.132036          -30.80427
     18       2.00000          -1.129721          -30.74127
     19       2.00000          -1.016361          -27.65658
     20       2.00000          -1.010456          -27.49592
     21       2.00000          -1.009389          -27.46687
     22       2.00000          -0.887648          -24.15412
     23       2.00000          -0.865312          -23.54633
     24       2.00000          -0.848063          -23.07698
     25       2.00000          -0.816732          -22.22440
     26       2.00000          -0.780490          -21.23822
     27       2.00000          -0.762849          -20.75819
     28       2.00000          -0.707181          -19.24336
     29       2.00000          -0.676703          -18.41403
     30       2.00000          -0.666287          -18.13061
     31       2.00000          -0.639140          -17.39188
     32       2.00000          -0.619731          -16.86375
     33       2.00000          -0.616413          -16.77345
     34       2.00000          -0.604391          -16.44633
     35       2.00000          -0.593099          -16.13905
     36       2.00000          -0.585908          -15.94336
     37       2.00000          -0.566386          -15.41215
     38       2.00000          -0.563348          -15.32948
     39       2.00000          -0.556722          -15.14918
     40       2.00000          -0.554495          -15.08858
     41       2.00000          -0.548786          -14.93323
     42       2.00000          -0.534530          -14.54530
     43       2.00000          -0.533795          -14.52530
     44       2.00000          -0.527413          -14.35163
     45       2.00000          -0.524085          -14.26109
     46       2.00000          -0.519045          -14.12392
     47       2.00000          -0.510137          -13.88154
     48       2.00000          -0.506965          -13.79521
     49       2.00000          -0.495588          -13.48564
     50       2.00000          -0.482716          -13.13537
     51       2.00000          -0.481773          -13.10972
     52       2.00000          -0.473305          -12.87930
     53       2.00000          -0.408495          -11.11571
     54       2.00000          -0.404499          -11.00697
     55       2.00000          -0.401830          -10.93434
     56       2.00000          -0.388685          -10.57666
     57       2.00000          -0.382523          -10.40898
     58       2.00000          -0.381451          -10.37980
     59       0.00000          -0.167269           -4.55162
     60       0.00000          -0.158435           -4.31123
     61       0.00000          -0.153087           -4.16571
     62       0.00000          -0.082999           -2.25852
     63       0.00000          -0.067495           -1.83663
     64       0.00000          -0.061071           -1.66183
     65       0.00000          -0.054061           -1.47107
     66       0.00000          -0.048811           -1.32822
     67       0.00000          -0.042366           -1.15284
     68       0.00000          -0.037152           -1.01096
     69       0.00000          -0.028075           -0.76396
     70       0.00000          -0.025034           -0.68120
     71       0.00000          -0.021285           -0.57919
     72       0.00000          -0.016862           -0.45884
     73       0.00000          -0.013850           -0.37687
     74       0.00000          -0.011726           -0.31908
     75       0.00000          -0.007176           -0.19526
     76       0.00000          -0.002696           -0.07336
     77       0.00000           0.007765            0.21130
     78       0.00000           0.009027            0.24564
     79       0.00000           0.013217            0.35965
     80       0.00000           0.015356            0.41787
     81       0.00000           0.017525            0.47687
     82       0.00000           0.022943            0.62432
     83       0.00000           0.032775            0.89185
     84       0.00000           0.042712            1.16224
     85       0.00000           0.048386            1.31664
     86       0.00000           0.055104            1.49945
     87       0.00000           0.056297            1.53192
     88       0.00000           0.062926            1.71230
     89       0.00000           0.064097            1.74417
     90       0.00000           0.076824            2.09050
     91       0.00000           0.082993            2.25836
     92       0.00000           0.087241            2.37395
     93       0.00000           0.089165            2.42631
     94       0.00000           0.094162            2.56229
     95       0.00000           0.100413            2.73237
     96       0.00000           0.104771            2.85098
     97       0.00000           0.108182            2.94377
     98       0.00000           0.113239            3.08140
     99       0.00000           0.119161            3.24253
    100       0.00000           0.125704            3.42057
    101       0.00000           0.127992            3.48283
    102       0.00000           0.135562            3.68884
    103       0.00000           0.136707            3.72000
    104       0.00000           0.143738            3.91132
    105       0.00000           0.145689            3.96439
    106       0.00000           0.151619            4.12576
    107       0.00000           0.156100            4.24770
    108       0.00000           0.157677            4.29061
    109       0.00000           0.167419            4.55571
    110       0.00000           0.172502            4.69402
    111       0.00000           0.174673            4.75311
    112       0.00000           0.178098            4.84630
    113       0.00000           0.182427            4.96410
    114       0.00000           0.187578            5.10425
    115       0.00000           0.189993            5.16997
    116       0.00000           0.201881            5.49346
    117       0.00000           0.204487            5.56437
    118       0.00000           0.207706            5.65195
    119       0.00000           0.212357            5.77854
    120       0.00000           0.215387            5.86097
    121       0.00000           0.225752            6.14302
    122       0.00000           0.232100            6.31577
    123       0.00000           0.233332            6.34929
    124       0.00000           0.236868            6.44550
    125       0.00000           0.241783            6.57924
    126       0.00000           0.244357            6.64928
    127       0.00000           0.250647            6.82045
    128       0.00000           0.253016            6.88490
    129       0.00000           0.258649            7.03819

  Highest occupied state (VBM) at    -10.37979866 eV
  | Occupation number:      2.00000000

  Lowest unoccupied state (CBM) at    -4.55161909 eV
  | Occupation number:      0.00000000

  Overall HOMO-LUMO gap:      5.82817956 eV.
  Calculating total energy contributions from superposition of free atom densities.

  Total energy components:
  | Sum of eigenvalues            :        -437.82675620 Ha      -11913.87220727 eV
  | XC energy correction          :         -98.81375111 Ha       -2688.85897547 eV
  | XC potential correction       :         127.01294553 Ha        3456.19809730 eV
  | Free-atom electrostatic energy:        -333.64914006 Ha       -9079.05503833 eV
  | Hartree energy correction     :           0.00000000 Ha           0.00000000 eV
  | vdW energy correction         :           0.00000000 Ha           0.00000000 eV
  | Entropy correction            :          -0.00000000 Ha          -0.00000000 eV
  | ---------------------------
  | Total energy                  :        -743.27670184 Ha      -20225.58812378 eV
  | Total energy, T -> 0          :        -743.27670184 Ha      -20225.58812378 eV  <-- do not rely on this value for anything but (periodic) metals
  | Electronic free energy        :        -743.27670184 Ha      -20225.58812378 eV

  Derived energy quantities:
  | Kinetic energy                :         735.14738368 Ha       20004.37812152 eV
  | Electrostatic energy          :       -1379.61033441 Ha      -37541.10726983 eV
  | Energy correction for multipole
  | error in Hartree potential    :           0.00000000 Ha           0.00000000 eV
  | Sum of eigenvalues per atom                           :        -372.30850648 eV
  | Total energy (T->0) per atom                          :        -632.04962887 eV  <-- do not rely on this value for anything but (periodic) metals
  | Electronic free energy per atom                       :        -632.04962887 eV
  Initialize hartree_potential_storage
  Max. number of atoms included in rho_multipole:           32

  End scf initialization - timings             :  max(cpu_time)    wall_clock(cpu1)
  | Time for scf. initialization               :        1.840 s           1.839 s
  | Boundary condition initialization          :        0.000 s           0.000 s
  | Integration                                :        1.096 s           1.092 s
  | Solution of K.-S. eqns.                    :        0.080 s           0.078 s
  | Grid partitioning                          :        0.340 s           0.337 s
  | Preloading free-atom quantities on grid    :        0.028 s           0.027 s
  | Free-atom superposition energy             :        0.044 s           0.038 s
  | Total energy evaluation                    :        0.004 s           0.001 s
------------------------------------------------------------

------------------------------------------------------------
          Begin self-consistency iteration #    1

  Date     :  20170309, Time     :  185043.574
------------------------------------------------------------
  Evaluating new KS density.
  Integration grid: deviation in total charge (<rho> - N_e) =   5.684342E-14
  Pulay mixing of updated and previous charge densities.

  Evaluating partitioned Hartree potential by multipole expansion.
  | Analytical far-field extrapolation by fixed multipoles:
  | Hartree multipole sum: apparent total charge =   0.104238E-05
  Summing up the Hartree potential.
  Time summed over all CPUs for potential: real work        9.462 s, elapsed        9.727 s
  | RMS charge density error from multipole expansion :   0.107011E-01

  Integrating Hamiltonian matrix: batch-based integration.
  Time summed over all CPUs for integration: real work       20.302 s, elapsed       21.200 s

  Updating Kohn-Sham eigenvalues, eigenvectors, occupation numbers, and Fermi level.
  Solving generalized eigenproblem
  Solving real symmetric generalised eigenvalue problem by standard ScaLAPACK.
  Using Cholesky factor for transformation
  Using 2-stage real ELPA solver
  K-Point:    1, Trafo times: 1-stage=     0.021 s, 2-stage=     0.019 s ==> Using 2-stage solver
  Determining occupation numbers for Kohn-Sham eigenstates.
  | Chemical potential (Fermi level) in eV                 : -.33697574E+01
  | Error in electron count due to remaining E_F inaccuracy: 0.00000000E+00
  | Maximum occupation number of highest empty state:  0.00E+00

  Writing Kohn-Sham eigenvalues.

  State    Occupation    Eigenvalue [Ha]    Eigenvalue [eV]
      1       2.00000         -18.614666         -506.53083
      2       2.00000         -18.609914         -506.40152
      3       2.00000         -18.593815         -505.96345
      4       2.00000         -13.991339         -380.72371
      5       2.00000         -13.987971         -380.63205
      6       2.00000         -13.969548         -380.13075
      7       2.00000         -10.054245         -273.58993
      8       2.00000         -10.050661         -273.49239
      9       2.00000         -10.034423         -273.05055
     10       2.00000          -9.967417         -271.22721
     11       2.00000          -9.963599         -271.12332
     12       2.00000          -9.904852         -269.52475
     13       2.00000          -9.848347         -267.98715
     14       2.00000          -9.837051         -267.67978
     15       2.00000          -9.831299         -267.52327
     16       2.00000          -0.966426          -26.29779
     17       2.00000          -0.953666          -25.95058
     18       2.00000          -0.938903          -25.54885
     19       2.00000          -0.868164          -23.62395
     20       2.00000          -0.860381          -23.41217
     21       2.00000          -0.848256          -23.08223
     22       2.00000          -0.742522          -20.20506
     23       2.00000          -0.710475          -19.33301
     24       2.00000          -0.686365          -18.67693
     25       2.00000          -0.681096          -18.53357
     26       2.00000          -0.635486          -17.29246
     27       2.00000          -0.622733          -16.94543
     28       2.00000          -0.580949          -15.80844
     29       2.00000          -0.540962          -14.72033
     30       2.00000          -0.538337          -14.64889
     31       2.00000          -0.501006          -13.63306
     32       2.00000          -0.486485          -13.23792
     33       2.00000          -0.477341          -12.98912
     34       2.00000          -0.466219          -12.68646
     35       2.00000          -0.443268          -12.06195
     36       2.00000          -0.440980          -11.99967
     37       2.00000          -0.432556          -11.77043
     38       2.00000          -0.415983          -11.31947
     39       2.00000          -0.409118          -11.13267
     40       2.00000          -0.403379          -10.97650
     41       2.00000          -0.395433          -10.76027
     42       2.00000          -0.387566          -10.54620
     43       2.00000          -0.380690          -10.35911
     44       2.00000          -0.376970          -10.25788
     45       2.00000          -0.370193          -10.07346
     46       2.00000          -0.366079           -9.96151
     47       2.00000          -0.357231           -9.72075
     48       2.00000          -0.350642           -9.54145
     49       2.00000          -0.346078           -9.41727
     50       2.00000          -0.339851           -9.24783
     51       2.00000          -0.332019           -9.03471
     52       2.00000          -0.324941           -8.84211
     53       2.00000          -0.241660           -6.57591
     54       2.00000          -0.229976           -6.25796
     55       2.00000          -0.218180           -5.93699
     56       2.00000          -0.213846           -5.81905
     57       2.00000          -0.202238           -5.50316
     58       2.00000          -0.192591           -5.24068
     59       0.00000          -0.052263           -1.42214
     60       0.00000          -0.048238           -1.31264
     61       0.00000          -0.037339           -1.01604
     62       0.00000          -0.032860           -0.89417
     63       0.00000          -0.022639           -0.61603
     64       0.00000          -0.015603           -0.42457
     65       0.00000          -0.007377           -0.20074
     66       0.00000          -0.001784           -0.04855
     67       0.00000           0.006257            0.17026
     68       0.00000           0.010034            0.27304
     69       0.00000           0.024690            0.67185
     70       0.00000           0.027508            0.74853
     71       0.00000           0.034673            0.94349
     72       0.00000           0.039533            1.07575
     73       0.00000           0.043313            1.17861
     74       0.00000           0.050473            1.37344
     75       0.00000           0.053186            1.44726
     76       0.00000           0.059768            1.62636
     77       0.00000           0.067647            1.84077
     78       0.00000           0.069331            1.88658
     79       0.00000           0.082066            2.23313
     80       0.00000           0.083597            2.27480
     81       0.00000           0.086535            2.35473
     82       0.00000           0.093914            2.55553
     83       0.00000           0.101133            2.75196
     84       0.00000           0.106409            2.89553
     85       0.00000           0.111254            3.02738
     86       0.00000           0.122000            3.31980
     87       0.00000           0.123917            3.37195
     88       0.00000           0.131907            3.58938
     89       0.00000           0.136534            3.71528
     90       0.00000           0.140789            3.83105
     91       0.00000           0.149284            4.06223
     92       0.00000           0.151732            4.12884
     93       0.00000           0.155390            4.22837
     94       0.00000           0.158577            4.31509
     95       0.00000           0.164376            4.47290
     96       0.00000           0.174235            4.74118
     97       0.00000           0.178949            4.86946
     98       0.00000           0.180109            4.90101
     99       0.00000           0.184883            5.03091
    100       0.00000           0.191291            5.20528
    101       0.00000           0.192160            5.22894
    102       0.00000           0.199528            5.42944
    103       0.00000           0.202424            5.50823
    104       0.00000           0.206496            5.61904
    105       0.00000           0.209332            5.69622
    106       0.00000           0.212325            5.77766
    107       0.00000           0.217548            5.91978
    108       0.00000           0.221594            6.02987
    109       0.00000           0.227545            6.19181
    110       0.00000           0.236774            6.44296
    111       0.00000           0.237447            6.46127
    112       0.00000           0.246515            6.70801
    113       0.00000           0.249082            6.77786
    114       0.00000           0.256160            6.97047
    115       0.00000           0.256995            6.99318
    116       0.00000           0.262771            7.15037
    117       0.00000           0.267930            7.29074
    118       0.00000           0.271217            7.38018
    119       0.00000           0.274325            7.46476
    120       0.00000           0.282691            7.69242
    121       0.00000           0.290553            7.90634
    122       0.00000           0.295642            8.04484
    123       0.00000           0.298766            8.12983
    124       0.00000           0.305096            8.30208
    125       0.00000           0.306552            8.34169
    126       0.00000           0.310769            8.45644
    127       0.00000           0.316062            8.60049
    128       0.00000           0.327910            8.92288
    129       0.00000           0.337458            9.18269

  Highest occupied state (VBM) at     -5.24067763 eV
  | Occupation number:      2.00000000

  Lowest unoccupied state (CBM) at    -1.42213989 eV
  | Occupation number:      0.00000000

  Overall HOMO-LUMO gap:      3.81853773 eV.

  Total energy components:
  | Sum of eigenvalues            :        -417.07278097 Ha      -11349.12780754 eV
  | XC energy correction          :        -100.74940896 Ha       -2741.53090544 eV
  | XC potential correction       :         129.52336341 Ha        3524.51004346 eV
  | Free-atom electrostatic energy:        -333.64914006 Ha       -9079.05503833 eV
  | Hartree energy correction     :         -20.75629917 Ha        -564.80763746 eV
  | vdW energy correction         :           0.00000000 Ha           0.00000000 eV
  | Entropy correction            :           0.00000000 Ha           0.00000000 eV
  | ---------------------------
  | Total energy                  :        -742.70426576 Ha      -20210.01134533 eV
  | Total energy, T -> 0          :        -742.70426576 Ha      -20210.01134533 eV  <-- do not rely on this value for anything but (periodic) metals
  | Electronic free energy        :        -742.70426576 Ha      -20210.01134533 eV

  Derived energy quantities:
  | Kinetic energy                :         744.04047642 Ha       20246.37148734 eV
  | Electrostatic energy          :       -1385.99533321 Ha      -37714.85192722 eV
  | Energy correction for multipole
  | error in Hartree potential    :          -0.04168491 Ha          -1.13430416 eV
  | Sum of eigenvalues per atom                           :        -354.66024399 eV
  | Total energy (T->0) per atom                          :        -631.56285454 eV  <-- do not rely on this value for anything but (periodic) metals
  | Electronic free energy per atom                       :        -631.56285454 eV

  Self-consistency convergence accuracy:
  | Change of charge density      :  0.9041E+00
  | Change of sum of eigenvalues  :  0.5647E+03 eV
  | Change of total energy        :  0.1558E+02 eV

  End self-consistency iteration #     1       :  max(cpu_time)    wall_clock(cpu1)
  | Time for this iteration                    :        1.488 s           1.487 s
  | Charge density update                      :        0.468 s           0.465 s
[...]
   ----------------------------------------------------------------
   Total forces(  20)            : -0.582648E-03  0.378139E-03  0.312714E-03
  atom #   21
   Hellmann-Feynman              : -0.184698E-02 -0.544819E-01  0.191736E-02
   Ionic forces                  :  0.000000E+00  0.000000E+00  0.000000E+00
   Multipole                     : -0.387305E-03 -0.382599E-02 -0.154379E-01
   Pulay + GGA                   : -0.724356E-02  0.630351E-01  0.175814E-01
   Van der Waals                 :  0.104142E-01 -0.398022E-02 -0.463339E-02
   ----------------------------------------------------------------
   Total forces(  21)            :  0.936329E-03  0.747077E-03 -0.572552E-03
  atom #   22
   Hellmann-Feynman              :  0.510554E-01 -0.338265E-01  0.304369E-01
   Ionic forces                  :  0.000000E+00  0.000000E+00  0.000000E+00
   Multipole                     : -0.175112E-01 -0.217436E-01 -0.810871E-02
   Pulay + GGA                   : -0.435592E-01  0.455377E-01 -0.292172E-01
   Van der Waals                 :  0.111387E-01  0.102191E-01  0.753376E-02
   ----------------------------------------------------------------
   Total forces(  22)            :  0.112364E-02  0.186706E-03  0.644767E-03
  atom #   23
   Hellmann-Feynman              :  0.741775E+00 -0.125665E+01 -0.664093E+00
   Ionic forces                  :  0.000000E+00  0.000000E+00  0.000000E+00
   Multipole                     : -0.146025E+00  0.286724E+00  0.198595E+00
   Pulay + GGA                   : -0.601060E+00  0.973258E+00  0.480511E+00
   Van der Waals                 :  0.510687E-02  0.112860E-03 -0.123584E-01
   ----------------------------------------------------------------
   Total forces(  23)            : -0.203356E-03  0.344300E-02  0.265390E-02
  atom #   24
   Hellmann-Feynman              :  0.925187E-02  0.349687E-01  0.317783E-01
   Ionic forces                  :  0.000000E+00  0.000000E+00  0.000000E+00
   Multipole                     :  0.236063E-01 -0.229974E-01  0.553486E-02
   Pulay + GGA                   : -0.528621E-01 -0.678867E-02 -0.316393E-01
   Van der Waals                 :  0.193361E-01 -0.596985E-02 -0.533689E-02
   ----------------------------------------------------------------
   Total forces(  24)            : -0.667758E-03 -0.787176E-03  0.337025E-03
  atom #   25
   Hellmann-Feynman              :  0.115839E-01  0.496700E-01  0.264771E-01
   Ionic forces                  :  0.000000E+00  0.000000E+00  0.000000E+00
   Multipole                     : -0.223407E-02  0.140547E-01 -0.283801E-01
   Pulay + GGA                   : -0.112585E-02 -0.577229E-01  0.840837E-02
   Van der Waals                 : -0.894488E-02 -0.650683E-02 -0.722182E-02
   ----------------------------------------------------------------
   Total forces(  25)            : -0.720871E-03 -0.505056E-03 -0.716443E-03
  atom #   26
   Hellmann-Feynman              : -0.284376E-01  0.814362E-02  0.543875E-01
   Ionic forces                  :  0.000000E+00  0.000000E+00  0.000000E+00
   Multipole                     : -0.119876E-01 -0.321974E-01 -0.776403E-02
   Pulay + GGA                   :  0.370843E-01  0.266085E-01 -0.499412E-01
   Van der Waals                 :  0.204239E-02 -0.300098E-02  0.268397E-02
   ----------------------------------------------------------------
   Total forces(  26)            : -0.129862E-02 -0.446320E-03 -0.633802E-03
  atom #   27
   Hellmann-Feynman              :  0.465815E+00  0.361848E+00  0.150925E+01
   Ionic forces                  :  0.000000E+00  0.000000E+00  0.000000E+00
   Multipole                     :  0.802225E-01  0.104125E-01  0.123462E+00
   Pulay + GGA                   : -0.543442E+00 -0.369539E+00 -0.164326E+01
   Van der Waals                 : -0.354859E-03 -0.137021E-02  0.100025E-01
   ----------------------------------------------------------------
   Total forces(  27)            :  0.224085E-02  0.135108E-02 -0.547744E-03
  atom #   28
   Hellmann-Feynman              : -0.940102E+00 -0.382892E-01 -0.201009E+01
   Ionic forces                  :  0.000000E+00  0.000000E+00  0.000000E+00
   Multipole                     :  0.433652E-01 -0.117835E-01  0.194717E+00
   Pulay + GGA                   :  0.918223E+00  0.557951E-01  0.181749E+01
   Van der Waals                 : -0.201249E-01 -0.531960E-02  0.273046E-02
   ----------------------------------------------------------------
   Total forces(  28)            :  0.136131E-02  0.402855E-03  0.484966E-02
  atom #   29
   Hellmann-Feynman              :  0.634689E-01  0.267954E-01  0.147099E-02
   Ionic forces                  :  0.000000E+00  0.000000E+00  0.000000E+00
   Multipole                     : -0.204938E-01 -0.387709E-02 -0.397598E-01
   Pulay + GGA                   : -0.512131E-01 -0.258156E-01  0.369087E-01
   Van der Waals                 :  0.810099E-02  0.237327E-02 -0.227780E-02
   ----------------------------------------------------------------
   Total forces(  29)            : -0.137005E-03 -0.524035E-03 -0.365788E-02
  atom #   30
   Hellmann-Feynman              :  0.449942E-01  0.918261E-03  0.342202E-01
   Ionic forces                  :  0.000000E+00  0.000000E+00  0.000000E+00
   Multipole                     :  0.143835E-01 -0.870407E-02 -0.308454E-01
   Pulay + GGA                   : -0.644822E-01  0.534579E-02 -0.280580E-02
   Van der Waals                 :  0.566861E-02  0.209462E-02 -0.962671E-03
   ----------------------------------------------------------------
   Total forces(  30)            :  0.563971E-03 -0.345405E-03 -0.393655E-03
  atom #   31
   Hellmann-Feynman              : -0.554583E-02  0.127155E-01  0.466488E-01
   Ionic forces                  :  0.000000E+00  0.000000E+00  0.000000E+00
   Multipole                     : -0.729683E-02  0.284645E-01  0.449283E-02
   Pulay + GGA                   :  0.705922E-02 -0.440531E-01 -0.545187E-01
   Van der Waals                 :  0.593926E-02  0.315690E-02  0.277953E-02
   ----------------------------------------------------------------
   Total forces(  31)            :  0.155812E-03  0.283839E-03 -0.597501E-03
  atom #   32
   Hellmann-Feynman              : -0.692819E-02 -0.272332E-01  0.510622E-01
   Ionic forces                  :  0.000000E+00  0.000000E+00  0.000000E+00
   Multipole                     : -0.928469E-02 -0.285441E-01 -0.118548E-01
   Pulay + GGA                   :  0.278401E-01  0.526516E-01 -0.337824E-01
   Van der Waals                 : -0.118909E-01  0.224935E-02 -0.574982E-02
   ----------------------------------------------------------------
   Total forces(  32)            : -0.263754E-03 -0.876297E-03 -0.324758E-03

  Timings for VdW correction (Tkatchenko-Scheffler 2009 or later):
  | CPU time:        0.124 s, Wall clock time:        0.121 s.
  Removing unitary transformations (pure translations, rotations) from forces on atoms.
  Atomic forces before filtering:
  | Net force on center of mass :  -0.127079E-03  0.505569E-03 -0.511520E-03 eV/A
  | Net torque on center of mass:   0.264974E-02  0.156788E-02  0.161413E-02 eV
  Atomic forces after filtering:
  | Net force on center of mass :   0.435562E-18 -0.696899E-18 -0.174225E-18 eV/A
  | Net torque on center of mass:   0.590053E-17 -0.276587E-17 -0.889689E-17 eV

  Energy and forces in a compact form:
  | Total energy uncorrected      :         -0.202082502493156E+05 eV
  | Total energy corrected        :         -0.202082502493156E+05 eV  <-- do not rely on this value for anything but (periodic) metals
  | Electronic free energy        :         -0.202082502493156E+05 eV
  Total atomic forces (unitary forces cleaned) [eV/Ang]:
  |   1          0.126422305914063E-02         -0.102769020305341E-02          0.158509215013337E-02
  |   2          0.249302118298310E-02          0.928862810130498E-03         -0.130370729287414E-02
  |   3         -0.164190859996826E-02         -0.129029708676561E-02         -0.392412980305992E-03
  |   4         -0.754567148546115E-03         -0.507620027340117E-03         -0.763591045481779E-03
  |   5          0.403762883488328E-04          0.645423997187265E-03          0.493098177930639E-03
  |   6         -0.127457759093537E-02          0.354451354280092E-03         -0.106863052674986E-03
  |   7         -0.102449868081429E-02          0.459114075889962E-02         -0.416462926959157E-02
  |   8         -0.250169973300286E-02          0.964509062305267E-03          0.174613273151613E-02
  |   9          0.116153974293080E-02          0.287246890990594E-02          0.216061345229305E-02
  |  10         -0.124183579019354E-02         -0.162263295326810E-02          0.168604827176452E-02
  |  11         -0.921503961271997E-04         -0.267028534188043E-02          0.178669755853664E-03
  |  12          0.189379615818524E-02          0.793706188306812E-03          0.302192409484217E-03
  |  13          0.197140312882395E-03         -0.333386433105399E-02          0.447991739843504E-03
  |  14         -0.180942291328060E-03          0.885975503697683E-05          0.116011065105918E-02
  |  15          0.165951634685758E-03          0.762887136706140E-03         -0.789558829975149E-03
  |  16          0.109467159628339E-02          0.876908893027840E-03          0.623587445212518E-03
  |  17         -0.953938060647983E-03         -0.147837363860575E-02         -0.920144694320075E-03
  |  18         -0.169365184558887E-02         -0.174557341097848E-02          0.355110530626672E-04
  |  19          0.467177060817768E-03         -0.217220962274795E-02         -0.354035608664681E-02
  |  20         -0.610562448696602E-03          0.438580145766343E-03          0.328085145145302E-03
  |  21          0.955773669199108E-03          0.745995354895953E-03         -0.607132676926024E-03
  |  22          0.115382255825456E-02          0.149482854753481E-03          0.620683899580032E-03
  |  23         -0.194710316535710E-03          0.338033140533912E-02          0.270508644980057E-02
  |  24         -0.653970848289481E-03         -0.861954043627962E-03          0.388123728501989E-03
  |  25         -0.732118731033531E-03         -0.554594268069507E-03         -0.631778274436612E-03
  |  26         -0.127614093966898E-02         -0.539931493105452E-03         -0.584452338578777E-03
  |  27          0.223120737950740E-02          0.137577235301728E-02         -0.539829141108804E-03
  |  28          0.137067563331556E-02          0.389675516150743E-03          0.485047545551524E-02
  |  29         -0.161868891111857E-03         -0.467063833876805E-03         -0.364621013157887E-02
  |  30          0.574585905209258E-03         -0.342607469294689E-03         -0.411456875337553E-03
  |  31          0.159779159685449E-03          0.249196181110554E-03         -0.562973025945093E-03
  |  32         -0.234599028940532E-03         -0.913554953151659E-03         -0.346406800914348E-03

  ------------------------------------ 
  Start decomposition of the XC Energy 
  ------------------------------------ 
  Hartree-Fock part   :          0.000000000 Ha              0.000000000 eV
  ------------------------------------ 
  X Energy            :        -96.977748884 Ha          -2638.898812820 eV
  C Energy GGA        :         -3.868257317 Ha           -105.260637203 eV
  Total XC Energy     :       -100.846006201 Ha          -2744.159450024 eV
  LDA X and C from self-consistent density 
  X Energy LDA        :        -87.993605868 Ha          -2394.427842809 eV
  C Energy LDA        :         -7.531594605 Ha           -204.945116690 eV
  ------------------------------------ 
  End decomposition of the XC Energy 
  ------------------------------------ 
   
  ESP charge fitting starts.
  | Calculation :  00000001  of  00000001
  | Full density
  Computing multipole expansion for total density.
  Generating points for esp charges.
  Partitioning the integration grid into batches with parallel hashing+maxmin method.
  | Number of batches:     3938
  | Maximal batch size:     200
  | Minimal batch size:      51
  | Average batch size:     123.718
  | Standard deviation of batch sizes:      15.274

  Integration load balanced across    32 MPI tasks.
  Work distribution over tasks is as follows:
  Initializing partition tables, free-atom densities, potentials, etc. across the integration grid (initialize_grid_storage).
  | Original list of interatomic distances with          32 x         32 entries is created.
  | Net number of integration points:   487202
  | of which are non-zero points    :   487202
  Summing up potential from multipole expanded  density.
  Summing up the Hartree potential.
  Time summed over all CPUs for potential: real work        6.400 s, elapsed        6.611 s
  Fitting esp charges to potential.
  |
  | ESP charges fitted to the electrostatic potential :
  |
  | Atom         1: C, ESP charge:      0.60196944
  |
  | Atom         2: C, ESP charge:     -0.78430177
  |
  | Atom         3: O, ESP charge:      0.57718126
  |
  | Atom         4: H, ESP charge:     -0.15068012
  |
  | Atom         5: H, ESP charge:     -0.19589462
  |
  | Atom         6: H, ESP charge:     -0.16293750
  |
  | Atom         7: N, ESP charge:      0.73973181
  |
  | Atom         8: C, ESP charge:     -0.40409658
  |
  | Atom         9: C, ESP charge:     -0.87891772
  |
  | Atom        10: O, ESP charge:      0.60484068
  |
  | Atom        11: H, ESP charge:     -0.32080209
  |
  | Atom        12: H, ESP charge:     -0.03233582
  |
  | Atom        13: C, ESP charge:      0.34613743
  |
  | Atom        14: H, ESP charge:     -0.10919844
  |
  | Atom        15: H, ESP charge:     -0.05373462
  |
  | Atom        16: H, ESP charge:     -0.08503149
  |
  | Atom        17: N, ESP charge:      1.37772741
  |
  | Atom        18: C, ESP charge:     -0.97759345
  |
  | Atom        19: C, ESP charge:     -0.21724820
  |
  | Atom        20: O, ESP charge:      0.50574903
  |
  | Atom        21: H, ESP charge:     -0.48442997
  |
  | Atom        22: H, ESP charge:      0.05403662
  |
  | Atom        23: C, ESP charge:      0.37505796
  |
  | Atom        24: H, ESP charge:     -0.02367329
  |
  | Atom        25: H, ESP charge:     -0.16464300
  |
  | Atom        26: H, ESP charge:     -0.09539550
  |
  | Atom        27: N, ESP charge:      0.38037796
  |
  | Atom        28: C, ESP charge:      0.25133619
  |
  | Atom        29: H, ESP charge:     -0.33949151
  |
  | Atom        30: H, ESP charge:     -0.13268008
  |
  | Atom        31: H, ESP charge:     -0.11742208
  |
  | Atom        32: H, ESP charge:     -0.08363795

  RRMS:       0.00206758

  Done.

------------------------------------------------------------------------------
  Final output of selected total energy values:

  The following output summarizes some interesting total energy values
  at the end of a run (AFTER all relaxation, molecular dynamics, etc.).

  | Total energy of the DFT / Hartree-Fock s.c.f. calculation      :         -20208.250249316 eV
  | Final zero-broadening corrected energy (caution - metals only) :         -20208.250249316 eV
  | For reference only, the value of 1 Hartree used in FHI-aims is :             27.211384500 eV

  Before relying on these values, please be sure to understand exactly which
  total energy value is referred to by a given number. Different objects may
  all carry the same name 'total energy'. Definitions:

  Total energy of the DFT / Hartree-Fock s.c.f. calculation:
  | Note that this energy does not include ANY quantities calculated after the
  | s.c.f. cycle, in particular not ANY RPA, MP2, etc. many-body perturbation terms.

  Final zero-broadening corrected energy:
  | For metallic systems only, a broadening of the occupation numbers at the Fermi
  | level can be extrapolated back to zero broadening by an electron-gas inspired
  | formula. For all systems that are not real metals, this value can be
  | meaningless and should be avoided.

------------------------------------------------------------------------------
  Methods described in the following list of references were used in this FHI-aims run.
  If you publish the results, please make sure to cite these reference if they apply.
  FHI-aims is an academic code, and for our developers (often, Ph.D. students
  and postdocs), scientific credit in the community is essential.
  Thank you for helping us!

  For any use of FHI-aims, please cite:

    Volker Blum, Ralf Gehrke, Felix Hanke, Paula Havu, Ville Havu,
    Xinguo Ren, Karsten Reuter, and Matthias Scheffler
    'Ab initio molecular simulations with numeric atom-centered orbitals'
    Computer Physics Communications 180, 2175-2196 (2009)
    http://dx.doi.org/10.1016/j.cpc.2009.06.022


  The scalable eigensolver library ELPA was used in your run.
  ELPA is essential especially for large systems on hundreds or thousands of CPUs.
  For ELPA, please cite:

    Andreas Marek, Volker Blum, Rainer Johanni, Ville Havu, Bruno Lang,
    Thomas Auckenthaler, Alexander Heinecke, Hans-Joachim Bungartz, and Hermann Lederer,
    'The ELPA Library - Scalable Parallel Eigenvalue Solutions
    for Electronic Structure Theory and Computational Science'
    The Journal of Physics: Condensed Matter 26, 213201 (2014).
    http://dx.doi.org/10.1088/0953-8984/26/21/213201


  For ELPA's efficient two-stage tridiagonalization used in your run, please cite:

    T. Auckenthaler, V. Blum, H.-J. Bungartz, T. Huckle, R. Johanni, L. Kraemer,
    B. Lang, H. Lederer, and P. R. Willems,
    'Parallel solution of partial symmetric eigenvalue problems'
    'from  electronic structure calculations'
    Parallel Computing 37, 783-794 (2011).
    http://dx.doi.org/10.1016/j.parco.2011.05.002


  For the real-space grid partitioning and parallelization used in this calculation, please cite:

    Ville Havu, Volker Blum, Paula Havu, and Matthias Scheffler,
    'Efficient O(N) integration for all-electron electronic structure calculation'
    'using numerically tabulated basis functions'
    Journal of Computational Physics 228, 8367-8379 (2009).
    http://dx.doi.org/10.1016/j.jcp.2009.08.008

  Of course, there are many other important community references, e.g., those cited in the
  above references. Our list is limited to references that describe implementations in the
  FHI-aims code. The reason is purely practical (length of this list) - please credit others as well.

------------------------------------------------------------
          Leaving FHI-aims.
          Date     :  20170309, Time     :  185110.586

          Computational steps:
          | Number of self-consistency cycles          :           14

          Detailed time accounting                     :  max(cpu_time)    wall_clock(cpu1)
          | Total time                                 :       29.718 s          29.875 s
          | Preparation time                           :        0.240 s           0.236 s
          | Grid partitioning                          :        0.340 s           0.337 s
          | Preloading free-atom quantities on grid    :        0.028 s           0.027 s
          | Free-atom superposition energy             :        0.044 s           0.038 s
          | Total time for integrations                :       10.537 s          10.513 s
          | Total time for solution of K.-S. equations :        0.532 s           0.499 s
          | Total time for density & force components  :        9.289 s           9.266 s
          | Total time for mixing                      :        0.128 s           0.105 s
          | Total time for Hartree multipole update    :        0.076 s           0.061 s
          | Total time for Hartree multipole sum       :        6.484 s           6.450 s
          | Total time for total energy evaluation     :        0.036 s           0.023 s
          | Total time for vdW correction              :        0.124 s           0.121 s

          Have a nice day.
------------------------------------------------------------
