  MPI-parallelism will be employed.
------------------------------------------------------------
          Invoking FHI-aims ...
          Version 150427
          Git rev.: 9dd23e0 BL: Update Version stamp
          Compiled on 2015/11/03 at 22:05:20 on host eos03.

          When using FHI-aims, please cite the following reference:

          Volker Blum, Ralf Gehrke, Felix Hanke, Paula Havu,
          Ville Havu, Xinguo Ren, Karsten Reuter, and Matthias Scheffler,
          'Ab Initio Molecular Simulations with Numeric Atom-Centered Orbitals: FHI-aims',
          Computer Physics Communications 180, 2175-2196 (2009)

          For any questions about FHI-aims, please visit the aimsclub website
          with its forums and wiki. Contributions to both the forums and the
          wiki are warmly encouraged - they are for you, and everyone is welcome there.

------------------------------------------------------------

  Date     :  20170309, Time     :  183110.641
  Time zero on CPU 1             :   0.384023000000000E+00  s.
  Internal wall clock time zero  :           258316270.641  s.

  Using       32 parallel tasks.
  Task        0 on host eos162 reporting.
  Task        1 on host eos162 reporting.
  Task        2 on host eos162 reporting.
  Task        3 on host eos162 reporting.
  Task        4 on host eos162 reporting.
  Task        5 on host eos162 reporting.
  Task        6 on host eos162 reporting.
  Task        7 on host eos162 reporting.
  Task        8 on host eos162 reporting.
  Task        9 on host eos162 reporting.
  Task       10 on host eos162 reporting.
  Task       11 on host eos162 reporting.
  Task       12 on host eos162 reporting.
  Task       13 on host eos162 reporting.
  Task       14 on host eos162 reporting.
  Task       15 on host eos162 reporting.
  Task       16 on host eos162 reporting.
  Task       17 on host eos162 reporting.
  Task       18 on host eos162 reporting.
  Task       19 on host eos162 reporting.
  Task       20 on host eos162 reporting.
  Task       21 on host eos162 reporting.
  Task       22 on host eos162 reporting.
  Task       23 on host eos162 reporting.
  Task       24 on host eos162 reporting.
  Task       25 on host eos162 reporting.
  Task       26 on host eos162 reporting.
  Task       27 on host eos162 reporting.
  Task       28 on host eos162 reporting.
  Task       29 on host eos162 reporting.
  Task       30 on host eos162 reporting.
  Task       31 on host eos162 reporting.

  Performing system and environment tests:
  | Environment variable OMP_NUM_THREADS correctly set to 1.
  | Stacksize not measured: no C compiler
  | Checking for scalapack...
  | Testing pdtran()...
  | All pdtran() tests passed.

  Obtaining array dimensions for all initial allocations:
  
  -----------------------------------------------------------------------
  Parsing control.in (first pass over file, find array dimensions only).
  The contents of control.in will be repeated verbatim below
  unless switched off by setting 'verbatim_writeout .false.' .
  in the first line of control.in .
  -----------------------------------------------------------------------
  
  #########################################################################################
  #
  # Input for System
  #
  #########################################################################################
  #
  #
  #  Physical model
  #
    xc                 pbe
    vdw_correction_hirshfeld
    spin               none
    charge             0.
  #
  #  SCF convergence
  #
    occupation_type    gaussian 0.05
    mixer              pulay
      n_max_pulay        10
      charge_mix_param   0.5
    sc_accuracy_rho    1E-4
    sc_accuracy_eev    1E-2
    sc_accuracy_etot   1E-5
    sc_accuracy_forces 1E-4
    sc_iter_limit      1000
  #
  #  ESP charge
  #
    output esp
    esp equal_grid_n 80 80 80
  #
  #
  ################################################################################
  #
  #  FHI-aims code project
  # Volker Blum, Fritz Haber Institute Berlin, 2009
  #
  #  Suggested "tight" defaults for H atom (to be pasted into control.in file)
  #
  ################################################################################
    species        H
  #     global species definitions
      nucleus             1
      mass                1.00794
  #
      l_hartree           6
  #
      cut_pot             4.0  2.0  1.0
      basis_dep_cutoff    1e-4
  #
      radial_base         24 7.0
      radial_multiplier   2
      angular_grids       specified
        division   0.1930   50
        division   0.3175  110
        division   0.4293  194
        division   0.5066  302
        division   0.5626  434
  #      division   0.5922  590
  #      division   0.6227  974
  #      division   0.6868 1202
  #      outer_grid  770
        outer_grid  434
  ################################################################################
  #
  #  Definition of "minimal" basis
  #
  ################################################################################
  #     valence basis states
      valence      1  s   1.
  #     ion occupancy
      ion_occ      1  s   0.5
  ################################################################################
  #
  #  Suggested additional basis functions. For production calculations,
  #  uncomment them one after another (the most important basis functions are
  #  listed first).
  #
  #  Basis constructed for dimers: 0.5 A, 0.7 A, 1.0 A, 1.5 A, 2.5 A
  #
  ################################################################################
  #  "First tier" - improvements: -1014.90 meV to -62.69 meV
       hydro 2 s 2.1
       hydro 2 p 3.5
  #  "Second tier" - improvements: -12.89 meV to -1.83 meV
       hydro 1 s 0.85
       hydro 2 p 3.7
       hydro 2 s 1.2
       hydro 3 d 7
  #  "Third tier" - improvements: -0.25 meV to -0.12 meV
  #     hydro 4 f 11.2
  #     hydro 3 p 4.8
  #     hydro 4 d 9
  #     hydro 3 s 3.2
  ################################################################################
  #
  # For methods that use the localized form of the "resolution of identity" for
  # the two-electron Coulomb operator (RI_method LVL), particularly Hartree-Fock and
  # hybrid density functional calculations, the highest accuracy can be obtained by
  # uncommenting the line beginning with "for_aux"  below, thus adding an extra g radial
  # function to the construction of the product basis set for the expansion.
  # See Ref. New J. Phys. 17, 093020 (2015) for more information, particularly Figs. 1 and 6.
  #
  ################################################################################
  #
  # for_aux hydro 5 g 6.0
  ################################################################################
  #
  #  FHI-aims code project
  # Volker Blum, Fritz Haber Institute Berlin, 2009
  #
  #  Suggested "tight" defaults for C atom (to be pasted into control.in file)
  #
  ################################################################################
    species        C
  #     global species definitions
      nucleus             6
      mass                12.0107
  #
      l_hartree           6
  #
      cut_pot             4.0  2.0  1.0
      basis_dep_cutoff    1e-4
  #
      radial_base         34 7.0
      radial_multiplier   2
      angular_grids specified
        division   0.2187   50
        division   0.4416  110
        division   0.6335  194
        division   0.7727  302
        division   0.8772  434
  #      division   0.9334  590
  #      division   0.9924  770
  #      division   1.0230  974
  #      division   1.5020 1202
  #     outer_grid  974
        outer_grid  434
  ################################################################################
  #
  #  Definition of "minimal" basis
  #
  ################################################################################
  #     valence basis states
      valence      2  s   2.
      valence      2  p   2.
  #     ion occupancy
      ion_occ      2  s   1.
      ion_occ      2  p   1.
  ################################################################################
  #
  #  Suggested additional basis functions. For production calculations,
  #  uncomment them one after another (the most important basis functions are
  #  listed first).
  #
  #  Constructed for dimers: 1.0 A, 1.25 A, 1.5 A, 2.0 A, 3.0 A
  #
  ################################################################################
  #  "First tier" - improvements: -1214.57 meV to -155.61 meV
       hydro 2 p 1.7
       hydro 3 d 6
       hydro 2 s 4.9
  #  "Second tier" - improvements: -67.75 meV to -5.23 meV
       hydro 4 f 9.8
       hydro 3 p 5.2
       hydro 3 s 4.3
       hydro 5 g 14.4
       hydro 3 d 6.2
  #  "Third tier" - improvements: -2.43 meV to -0.60 meV
  #     hydro 2 p 5.6
  #     hydro 2 s 1.4
  #     hydro 3 d 4.9
  #     hydro 4 f 11.2
  #  "Fourth tier" - improvements: -0.39 meV to -0.18 meV
  #     hydro 2 p 2.1
  #     hydro 5 g 16.4
  #     hydro 4 d 13.2
  #     hydro 3 s 13.6
  #     hydro 4 f 17.6
  #  Further basis functions - improvements: -0.08 meV and below
  #     hydro 3 s 2
  #     hydro 3 p 6
  #     hydro 4 d 20
  ################################################################################
  #
  # For methods that use the localized form of the "resolution of identity" for
  # the two-electron Coulomb operator (RI_method LVL), particularly Hartree-Fock and
  # hybrid density functional calculations, the highest accuracy can be obtained by
  # uncommenting the line beginning with "for_aux"  below, thus adding an extra g radial
  # function to the construction of the product basis set for the expansion.
  # See Ref. New J. Phys. 17, 093020 (2015) for more information, particularly Figs. 1 and 6.
  #
  ################################################################################
  #
  # for_aux hydro 5 g 6.0
  ################################################################################
  #
  #  FHI-aims code project
  # Volker Blum, Fritz Haber Institute Berlin, 2009
  #
  #  Suggested "tight" defaults for N atom (to be pasted into control.in file)
  #
  ################################################################################
    species        N
  #     global species definitions
      nucleus             7
      mass                14.0067
  #
      l_hartree           6
  #
      cut_pot             4.0  2.0  1.0
      basis_dep_cutoff    1e-4
  #
      radial_base         35 7.0
      radial_multiplier   2
      angular_grids       specified
        division   0.1841   50
        division   0.3514  110
        division   0.5126  194
        division   0.6292  302
        division   0.6939  434
  #      division   0.7396  590
  #      division   0.7632  770
  #      division   0.8122  974
  #      division   1.1604 1202
  #      outer_grid  974
        outer_grid  434
  ################################################################################
  #
  #  Definition of "minimal" basis
  #
  ################################################################################
  #     valence basis states
      valence      2  s   2.
      valence      2  p   3.
  #     ion occupancy
      ion_occ      2  s   1.
      ion_occ      2  p   2.
  ################################################################################
  #
  #  Suggested additional basis functions. For production calculations,
  #  uncomment them one after another (the most important basis functions are
  #  listed first).
  #
  #  Constructed for dimers: 1.0 A, 1.1 A, 1.5 A, 2.0 A, 3.0 A
  #
  ################################################################################
  #  "First tier" - improvements: -1193.42 meV to -220.60 meV
       hydro 2 p 1.8
       hydro 3 d 6.8
       hydro 3 s 5.8
  #  "Second tier" - improvements: -80.21 meV to -6.86 meV
       hydro 4 f 10.8
       hydro 3 p 5.8
       hydro 1 s 0.8
       hydro 5 g 16
       hydro 3 d 4.9
  #  "Third tier" - improvements: -4.29 meV to -0.53 meV
  #     hydro 3 s 16
  #     ionic 2 p auto
  #     hydro 3 d 6.6
  #     hydro 4 f 11.6
  #  "Fourth tier" - improvements: -0.75 meV to -0.25 meV
  #     hydro 2 p 4.5
  #     hydro 2 s 2.4
  #     hydro 5 g 14.4
  #     hydro 4 d 14.4
  #     hydro 4 f 16.8
  # Further basis functions - -0.21 meV and below
  #     hydro 3 p 14.8
  #     hydro 3 s 4.4
  #     hydro 3 d 19.6
  #     hydro 5 g 12.8
  ################################################################################
  #
  # For methods that use the localized form of the "resolution of identity" for
  # the two-electron Coulomb operator (RI_method LVL), particularly Hartree-Fock and
  # hybrid density functional calculations, the highest accuracy can be obtained by
  # uncommenting the line beginning with "for_aux"  below, thus adding an extra g radial
  # function to the construction of the product basis set for the expansion.
  # See Ref. New J. Phys. 17, 093020 (2015) for more information, particularly Figs. 1 and 6.
  #
  ################################################################################
  #
  # for_aux hydro 5 g 6.0
  ################################################################################
  #
  #  FHI-aims code project
  # Volker Blum, Fritz Haber Institute Berlin, 2009
  #
  #  Suggested "tight" defaults for O atom (to be pasted into control.in file)
  #
  ################################################################################
    species        O
  #     global species definitions
      nucleus             8
      mass                15.9994
  #
      l_hartree           6
  #
      cut_pot             4.0  2.0  1.0
      basis_dep_cutoff    1e-4
  #
      radial_base         36 7.0
      radial_multiplier   2
       angular_grids specified
        division   0.1817   50
        division   0.3417  110
        division   0.4949  194
        division   0.6251  302
        division   0.8014  434
  #      division   0.8507  590
  #      division   0.8762  770
  #      division   0.9023  974
  #      division   1.2339 1202
  #      outer_grid 974
        outer_grid  434
  ################################################################################
  #
  #  Definition of "minimal" basis
  #
  ################################################################################
  #     valence basis states
      valence      2  s   2.
      valence      2  p   4.
  #     ion occupancy
      ion_occ      2  s   1.
      ion_occ      2  p   3.
  ################################################################################
  #
  #  Suggested additional basis functions. For production calculations,
  #  uncomment them one after another (the most important basis functions are
  #  listed first).
  #
  #  Constructed for dimers: 1.0 A, 1.208 A, 1.5 A, 2.0 A, 3.0 A
  #
  ################################################################################
  #  "First tier" - improvements: -699.05 meV to -159.38 meV
       hydro 2 p 1.8
       hydro 3 d 7.6
       hydro 3 s 6.4
  #  "Second tier" - improvements: -49.91 meV to -5.39 meV
       hydro 4 f 11.6
       hydro 3 p 6.2
       hydro 3 d 5.6
       hydro 5 g 17.6
       hydro 1 s 0.75
  #  "Third tier" - improvements: -2.83 meV to -0.50 meV
  #     ionic 2 p auto
  #     hydro 4 f 10.8
  #     hydro 4 d 4.7
  #     hydro 2 s 6.8
  #  "Fourth tier" - improvements: -0.40 meV to -0.12 meV
  #     hydro 3 p 5
  #     hydro 3 s 3.3
  #     hydro 5 g 15.6
  #     hydro 4 f 17.6
  #     hydro 4 d 14
  # Further basis functions - -0.08 meV and below
  #     hydro 3 s 2.1
  #     hydro 4 d 11.6
  #     hydro 3 p 16
  #     hydro 2 s 17.2
  ################################################################################
  #
  # For methods that use the localized form of the "resolution of identity" for
  # the two-electron Coulomb operator (RI_method LVL), particularly Hartree-Fock and
  # hybrid density functional calculations, the highest accuracy can be obtained by
  # uncommenting the line beginning with "for_aux"  below, thus adding an extra g radial
  # function to the construction of the product basis set for the expansion.
  # See Ref. New J. Phys. 17, 093020 (2015) for more information, particularly Figs. 1 and 6.
  #
  ################################################################################
  #
  # for_aux hydro 5 g 6.0
  
  -----------------------------------------------------------------------
  Completed first pass over input file control.in .
  -----------------------------------------------------------------------
  
  
  -----------------------------------------------------------------------
  Parsing geometry.in (first pass over file, find array dimensions only).
  The contents of geometry.in will be repeated verbatim below
  unless switched off by setting 'verbatim_writeout .false.' .
  in the first line of geometry.in .
  -----------------------------------------------------------------------
  
  #
  # This is the geometry file that corresponds to the current relaxation step.
  # If you do not want this file to be written, set the "write_restart_geometry" flag to .false.
  #
  atom      -0.52227238      0.10895448     -0.06968839 C
  atom      -0.35045892     -0.03977236      1.42824245 C
  atom       0.71861075     -0.42873712      1.91675459 O
  atom      -1.48650743      0.53835333     -0.36758636 H
  atom      -0.41828378     -0.88113710     -0.53227839 H
  atom       0.28871561      0.73707606     -0.45735494 H
  atom      -1.43708859      0.28217238      2.18391946 N
  atom      -1.58719906      0.12364214      3.64015843 C
  atom      -0.76896636      1.12034056      4.50912104 C
  atom      -1.34794526      1.73312970      5.40915260 O
  atom      -2.24451911      0.64553069      1.69318050 H
  atom      -2.62326312      0.41359969      3.85176167 H
  atom      -1.38467754     -1.32418905      4.11030273 C
  atom      -1.59746546     -1.38581148      5.18516147 H
  atom      -0.36046910     -1.66973076      3.93219699 H
  atom      -2.07542163     -1.99521450      3.58309141 H
  atom       0.55547495      1.17321813      4.22577786 N
  atom       1.58641378      2.06231626      4.76972195 C
  atom       2.61762908      1.37861843      5.70442776 C
  atom       3.81464198      1.60415407      5.52075368 O
  atom       0.86165614      0.55361385      3.46218607 H
  atom       2.21694952      2.32691678      3.90959622 H
  atom       1.08487967      3.37466068      5.38459543 C
  atom       1.95968505      4.00187205      5.59821841 H
  atom       0.51723250      3.22454461      6.30716886 H
  atom       0.43844130      3.90825395      4.67674646 H
  atom       2.20610725      0.57580316      6.72714351 N
  atom       0.87129612      0.19483775      7.15721912 C
  atom       2.99234177      0.18743142      7.24005109 H
  atom       0.13491687      0.97290858      6.92902894 H
  atom       0.53580088     -0.74250026      6.68517635 H
  atom       0.87956753      0.04870188      8.24463300 H
  
  -----------------------------------------------------------------------
  Completed first pass over input file geometry.in .
  -----------------------------------------------------------------------
  

  Basic array size parameters:
  | Number of species                 :        4
  | Number of atoms                   :       32
  | Max. basis fn. angular momentum   :        4
  | Max. atomic/ionic basis occupied n:        2
  | Max. number of basis fn. types    :        2
  | Max. radial fns per species/type  :        8
  | Max. logarithmic grid size        :     1301
  | Max. radial integration grid size :       73
  | Max. angular integration grid size:      434
  | Max. angular grid division number :        8
  | Radial grid for Hartree potential :     1301
  | Number of spin channels           :        1

------------------------------------------------------------
          Reading file control.in.
------------------------------------------------------------
  XC: Using PBE gradient-corrected functionals.
  Spin treatment: No spin polarisation.
  Charge =   0.000000E+00: Neutral system requested explicitly.
  Occupation type: Gaussian broadening, width =   0.500000E-01 eV.
  Using pulay charge density mixing.
  Pulay mixing - number of memorized iterations:   10
  Charge density mixing - mixing parameter:     0.5000
  Convergence accuracy of self-consistent charge density:  0.1000E-03
  Convergence accuracy of sum of eigenvalues:  0.1000E-01
  Convergence accuracy of total energy:  0.1000E-04
  Convergence accuracy of forces:  0.1000E-03
  Maximum number of s.-c. iterations  :  1000
  Fitting ESP-charges to Potential. 
  | Esp charge output options: 
  | ESP Grid method: 3, cubic grid
  | Number of points in x, ,y, z:  0080 0080 0080
  |
 
  Reading configuration options for species H                   .
  | Found nuclear charge :   1.0000
  | Found atomic mass :    1.00794000000000      amu
  | Found l_max for Hartree potential  :   6
  | Found cutoff potl. onset [A], width [A], scale factor :    4.00000    2.00000    1.00000
  | Threshold for basis-dependent cutoff potential is   0.100000E-03
  | Found data for basic radial integration grid :    24 points, outermost radius =    7.000 A
  | Found multiplier for basic radial grid :   2
  | Found angular grid specification: user-specified.
  | Specified grid contains     6 separate shells.
  | Check grid settings after all constraints further below.
  | Found free-atom valence shell :  1 s   1.000
  | No ionic wave fns used. Skipping ion_occ.
  | Found hydrogenic basis function :  2 s   2.100
  | Found hydrogenic basis function :  2 p   3.500
  | Found hydrogenic basis function :  1 s   0.850
  | Found hydrogenic basis function :  2 p   3.700
  | Found hydrogenic basis function :  2 s   1.200
  | Found hydrogenic basis function :  3 d   7.000
  Species H                   : Missing cutoff potential type.
  Defaulting to exp(1/x)/(1-x)^2 type cutoff potential.
  Species H : No 'logarithmic' tag. Using default grid for free atom:
  | Default logarithmic grid data [bohr] : 0.1000E-03 0.1000E+03 0.1012E+01
  Species H : On-site basis accuracy parameter (for Gram-Schmidt orthonormalisation) not specified.
  Using default value basis_acc =  0.1000000E-03.
  Species H                   : Using default innermost maximum threshold i_radial=  2 for radial functions.
  Species H                   : Default cutoff onset for free atom density etc. : 0.40000000E+01 AA.
  Species H                   : Basic radial grid will be enhanced according to radial_multiplier =   2, to contain    49 grid points.
 
  Reading configuration options for species C                   .
  | Found nuclear charge :   6.0000
  | Found atomic mass :    12.0107000000000      amu
  | Found l_max for Hartree potential  :   6
  | Found cutoff potl. onset [A], width [A], scale factor :    4.00000    2.00000    1.00000
  | Threshold for basis-dependent cutoff potential is   0.100000E-03
  | Found data for basic radial integration grid :    34 points, outermost radius =    7.000 A
  | Found multiplier for basic radial grid :   2
  | Found angular grid specification: user-specified.
  | Specified grid contains     6 separate shells.
  | Check grid settings after all constraints further below.
  | Found free-atom valence shell :  2 s   2.000
  | Found free-atom valence shell :  2 p   2.000
  | No ionic wave fns used. Skipping ion_occ.
  | No ionic wave fns used. Skipping ion_occ.
  | Found hydrogenic basis function :  2 p   1.700
  | Found hydrogenic basis function :  3 d   6.000
  | Found hydrogenic basis function :  2 s   4.900
  | Found hydrogenic basis function :  4 f   9.800
  | Found hydrogenic basis function :  3 p   5.200
  | Found hydrogenic basis function :  3 s   4.300
  | Found hydrogenic basis function :  5 g  14.400
  | Found hydrogenic basis function :  3 d   6.200
  Species C                   : Missing cutoff potential type.
  Defaulting to exp(1/x)/(1-x)^2 type cutoff potential.
  Species C : No 'logarithmic' tag. Using default grid for free atom:
  | Default logarithmic grid data [bohr] : 0.1000E-03 0.1000E+03 0.1012E+01
  Species C : On-site basis accuracy parameter (for Gram-Schmidt orthonormalisation) not specified.
  Using default value basis_acc =  0.1000000E-03.
  Species C                   : Using default innermost maximum threshold i_radial=  2 for radial functions.
  Species C                   : Default cutoff onset for free atom density etc. : 0.40000000E+01 AA.
  Species C                   : Basic radial grid will be enhanced according to radial_multiplier =   2, to contain    69 grid points.
 
  Reading configuration options for species N                   .
  | Found nuclear charge :   7.0000
  | Found atomic mass :    14.0067000000000      amu
  | Found l_max for Hartree potential  :   6
  | Found cutoff potl. onset [A], width [A], scale factor :    4.00000    2.00000    1.00000
  | Threshold for basis-dependent cutoff potential is   0.100000E-03
  | Found data for basic radial integration grid :    35 points, outermost radius =    7.000 A
  | Found multiplier for basic radial grid :   2
  | Found angular grid specification: user-specified.
  | Specified grid contains     6 separate shells.
  | Check grid settings after all constraints further below.
  | Found free-atom valence shell :  2 s   2.000
  | Found free-atom valence shell :  2 p   3.000
  | No ionic wave fns used. Skipping ion_occ.
  | No ionic wave fns used. Skipping ion_occ.
  | Found hydrogenic basis function :  2 p   1.800
  | Found hydrogenic basis function :  3 d   6.800
  | Found hydrogenic basis function :  3 s   5.800
  | Found hydrogenic basis function :  4 f  10.800
  | Found hydrogenic basis function :  3 p   5.800
  | Found hydrogenic basis function :  1 s   0.800
  | Found hydrogenic basis function :  5 g  16.000
  | Found hydrogenic basis function :  3 d   4.900
  Species N                   : Missing cutoff potential type.
  Defaulting to exp(1/x)/(1-x)^2 type cutoff potential.
  Species N : No 'logarithmic' tag. Using default grid for free atom:
  | Default logarithmic grid data [bohr] : 0.1000E-03 0.1000E+03 0.1012E+01
  Species N : On-site basis accuracy parameter (for Gram-Schmidt orthonormalisation) not specified.
  Using default value basis_acc =  0.1000000E-03.
  Species N                   : Using default innermost maximum threshold i_radial=  2 for radial functions.
  Species N                   : Default cutoff onset for free atom density etc. : 0.40000000E+01 AA.
  Species N                   : Basic radial grid will be enhanced according to radial_multiplier =   2, to contain    71 grid points.
 
  Reading configuration options for species O                   .
  | Found nuclear charge :   8.0000
  | Found atomic mass :    15.9994000000000      amu
  | Found l_max for Hartree potential  :   6
  | Found cutoff potl. onset [A], width [A], scale factor :    4.00000    2.00000    1.00000
  | Threshold for basis-dependent cutoff potential is   0.100000E-03
  | Found data for basic radial integration grid :    36 points, outermost radius =    7.000 A
  | Found multiplier for basic radial grid :   2
  | Found angular grid specification: user-specified.
  | Specified grid contains     6 separate shells.
  | Check grid settings after all constraints further below.
  | Found free-atom valence shell :  2 s   2.000
  | Found free-atom valence shell :  2 p   4.000
  | No ionic wave fns used. Skipping ion_occ.
  | No ionic wave fns used. Skipping ion_occ.
  | Found hydrogenic basis function :  2 p   1.800
  | Found hydrogenic basis function :  3 d   7.600
  | Found hydrogenic basis function :  3 s   6.400
  | Found hydrogenic basis function :  4 f  11.600
  | Found hydrogenic basis function :  3 p   6.200
  | Found hydrogenic basis function :  3 d   5.600
  | Found hydrogenic basis function :  5 g  17.600
  | Found hydrogenic basis function :  1 s   0.750
  Species O                   : Missing cutoff potential type.
  Defaulting to exp(1/x)/(1-x)^2 type cutoff potential.
  Species O : No 'logarithmic' tag. Using default grid for free atom:
  | Default logarithmic grid data [bohr] : 0.1000E-03 0.1000E+03 0.1012E+01
  Species O : On-site basis accuracy parameter (for Gram-Schmidt orthonormalisation) not specified.
  Using default value basis_acc =  0.1000000E-03.
  Species O                   : Using default innermost maximum threshold i_radial=  2 for radial functions.
  Species O                   : Default cutoff onset for free atom density etc. : 0.40000000E+01 AA.
  Species O                   : Basic radial grid will be enhanced according to radial_multiplier =   2, to contain    73 grid points.
 
  Finished reading input file 'control.in'. Consistency checks are next.
 
  Target number of points in a grid batch is not set. Defaulting to  100
  Method for grid partitioning is not set. Defaulting to parallel hash+maxmin partitioning.
  Batch size limit is not set. Defaulting to    200
  By default, will store active basis functions for each batch.
  If in need of memory, prune_basis_once .false. can be used to disable this option.
  communication_type for Hartree potential was not specified.
  Defaulting to calc_hartree .
  Pulay mixer: Number of initial linear mixing iterations not set.
  Defaulting to    0 iterations.
  Work space size for distributed Hartree potential not set.
  Defaulting to   0.200000E+03 MB.
  Algorithm-dependent basis array size parameters:
  | n_max_pulay                         :       10
  Geometry relaxation not requested: no relaxation will be performed.
  Handling of forces: Unphysical translation and rotation will be removed from forces.
  No accuracy limit for integral partition fn. given. Defaulting to  0.1000E-14.
  No threshold value for u(r) in integrations given. Defaulting to  0.1000E-05.
  No accuracy for occupation numbers given. Defaulting to  0.1000E-07.
  No threshold value for occupation numbers given. Defaulting to  0.0000E+00.
  No accuracy for fermi level given. Defaulting to  0.1000E-19.
  Maximum # of iterations to find E_F not set. Defaulting to  200.
  Preferred method for the eigenvalue solver ('KS_method') not specified in 'control.in'.
  Calling blacs routine to test compilation state
  Since scalapack support is enabled, defaulting to 'elpa'.
  Preferred method for the MBD eigenvalue solver ('mbd_eigensolver') not specified in 'control.in'.
  Calling blacs routine to test compilation state
  Since scalapack support is enabled, defaulting to 'scaLAPACK'.
  Will not use alltoall communication since running on < 1024 CPUs.
  Threshold for basis singularities not set.
  Default threshold for basis singularities:  0.1000E-04
  partition_type (choice of integration weights) for integrals was not specified.
  | Using a version of the partition function of Stratmann and coworkers ('stratmann_smoother').
  | At each grid point, the set of atoms used to build the partition table is smoothly restricted to
  | only those atoms whose free-atom density would be non-zero at that grid point.
  Partitioning for Hartree potential was not defined. Using partition_type for integrals.
  | Adjusted default value of keyword multip_moments_threshold to:       0.10000000E-11
  | This value may affect high angular momentum components of the Hartree potential in periodic systems.
  No q(lm)/r^(l+1) cutoff set for long-range Hartree potential.
  | Using default value of  0.100000E-09 .
  | Verify using the multipole_threshold keyword.
  Defaulting to new monopole extrapolation.
  Density update method: automatic selection selected.
------------------------------------------------------------


------------------------------------------------------------
          Reading geometry description geometry.in.
------------------------------------------------------------
 * Warning! You did not set the 'relativistic' flag in input file 'control.in'.
 * Since you are not attempting to treat any elements beyond Ca(Z=20), FHI-aims
 * will default to 'relativistic none'.
 * You must ensure that this is really what you want!!
 * For example, DO NOT compute total-energy differences between results from
 * different settings of the 'relativistic' flag.
  Input structure read successfully.
  The structure contains       32 atoms,  and a total of        116.000 electrons.

  Input geometry:
  | No unit cell requested.
  | Atomic structure:
  |       Atom                x [A]            y [A]            z [A]
  |    1: Species C             -0.522272         0.108954        -0.069688
  |    2: Species C             -0.350459        -0.039772         1.428242
  |    3: Species O              0.718611        -0.428737         1.916755
  |    4: Species H             -1.486507         0.538353        -0.367586
  |    5: Species H             -0.418284        -0.881137        -0.532278
  |    6: Species H              0.288716         0.737076        -0.457355
  |    7: Species N             -1.437089         0.282172         2.183919
  |    8: Species C             -1.587199         0.123642         3.640158
  |    9: Species C             -0.768966         1.120341         4.509121
  |   10: Species O             -1.347945         1.733130         5.409153
  |   11: Species H             -2.244519         0.645531         1.693180
  |   12: Species H             -2.623263         0.413600         3.851762
  |   13: Species C             -1.384678        -1.324189         4.110303
  |   14: Species H             -1.597465        -1.385811         5.185161
  |   15: Species H             -0.360469        -1.669731         3.932197
  |   16: Species H             -2.075422        -1.995214         3.583091
  |   17: Species N              0.555475         1.173218         4.225778
  |   18: Species C              1.586414         2.062316         4.769722
  |   19: Species C              2.617629         1.378618         5.704428
  |   20: Species O              3.814642         1.604154         5.520754
  |   21: Species H              0.861656         0.553614         3.462186
  |   22: Species H              2.216950         2.326917         3.909596
  |   23: Species C              1.084880         3.374661         5.384595
  |   24: Species H              1.959685         4.001872         5.598218
  |   25: Species H              0.517232         3.224545         6.307169
  |   26: Species H              0.438441         3.908254         4.676746
  |   27: Species N              2.206107         0.575803         6.727144
  |   28: Species C              0.871296         0.194838         7.157219
  |   29: Species H              2.992342         0.187431         7.240051
  |   30: Species H              0.134917         0.972909         6.929029
  |   31: Species H              0.535801        -0.742500         6.685176
  |   32: Species H              0.879568         0.048702         8.244633
  |

  | The smallest distance between any two atoms is         1.01232309 AA.
  |
  | The first atom of this pair is atom number                      7 .
  | The second atom of this pair is atom number                    11 .

  Number of empty states per atom not set in control.in - providing a guess from actual geometry.
  | Total number of empty states used during s.c.f. cycle:       71
  If you use a very high smearing, use empty_states (per atom!) in control.in to increase this value.

  Structure-dependent array size parameters: 
  | Maximum number of distinct radial functions  :       40
  | Maximum number of basis functions            :      840
  | Number of Kohn-Sham states (occupied + empty):      129
------------------------------------------------------------

------------------------------------------------------------
          Preparing all fixed parts of the calculation.
------------------------------------------------------------
  Determining machine precision:
    2.225073858507201E-308
  Setting up grids for atomic and cluster calculations.

  Creating wave function, potential, and density for free atoms.

  Species: H

  List of occupied orbitals and eigenvalues:
    n    l              occ      energy [Ha]    energy [eV]
    1    0           1.0000        -0.238382        -6.4867


  Species: C

  List of occupied orbitals and eigenvalues:
    n    l              occ      energy [Ha]    energy [eV]
    1    0           2.0000       -10.041232      -273.2358
    2    0           2.0000        -0.504327       -13.7234
    2    1           2.0000        -0.193750        -5.2722


  Species: N

  List of occupied orbitals and eigenvalues:
    n    l              occ      energy [Ha]    energy [eV]
    1    0           2.0000       -14.129007      -384.4699
    2    0           2.0000        -0.681802       -18.5528
    2    1           3.0000        -0.260543        -7.0897


  Species: O

  List of occupied orbitals and eigenvalues:
    n    l              occ      energy [Ha]    energy [eV]
    1    0           2.0000       -18.898576      -514.2564
    2    0           2.0000        -0.878795       -23.9132
    2    1           4.0000        -0.332075        -9.0362

  Creating fixed part of basis set: Ionic, confined, hydrogenic.
 
  H                    hydrogenic:
 
  List of hydrogenic basis orbitals: 
    n    l      effective z      eigenvalue [eV]  inner max. [A]     outer max. [A]     outer radius [A]   
    2    0         2.100000       -14.9965           0.193243           1.317208           5.373006
    2    1         3.500000       -41.6672           0.602369           0.602369           4.056063
    1    0         0.850000        -9.8292           0.624871           0.624871           5.373006
    2    1         3.700000       -46.5653           0.573622           0.573622           3.910002
    2    0         1.200000        -4.5995           0.334980           2.228188           5.505995
    3    2         7.000000       -74.0753           0.680699           0.680699           3.769201
 
 
  C                    hydrogenic:
 
  List of hydrogenic basis orbitals: 
    n    l      effective z      eigenvalue [eV]  inner max. [A]     outer max. [A]     outer radius [A]   
    2    1         1.700000        -9.8152           1.245706           1.245706           5.401630
    3    2         6.000000       -54.4226           0.792453           0.792453           4.178599
    2    0         4.900000       -81.6681           0.082559           0.562749           3.353238
    4    3         9.800000       -81.6681           0.863254           0.863254           4.028125
    3    1         5.200000       -40.8774           0.305389           1.215618           4.898362
    3    0         4.300000       -27.9508           0.091041           1.610311           5.401630
    5    4        14.400000      -112.8510           0.917666           0.917666           3.883070
    3    2         6.200000       -58.1113           0.763917           0.763917           4.077671
 
 
  N                    hydrogenic:
 
  List of hydrogenic basis orbitals: 
    n    l      effective z      eigenvalue [eV]  inner max. [A]     outer max. [A]     outer radius [A]   
    2    1         1.800000       -11.0118           1.177451           1.177451           5.427479
    3    2         6.800000       -69.9029           0.704619           0.704619           3.854246
    3    0         5.800000       -50.8549           0.067388           1.191934           4.629968
    4    3        10.800000       -99.1854           0.786571           0.786571           3.761152
    3    1         5.800000       -50.8549           0.274880           1.094176           4.518138
    1    0         0.800000        -8.7059           0.662839           0.662839           5.361532
    5    4        16.000000      -139.3222           0.825990           0.825990           3.625711
    3    2         4.900000       -36.2967           0.968267           0.968267           4.862000
 
 
  O                    hydrogenic:
 
  List of hydrogenic basis orbitals: 
    n    l      effective z      eigenvalue [eV]  inner max. [A]     outer max. [A]     outer radius [A]   
    2    1         1.800000       -11.0118           1.178562           1.178562           5.432602
    3    2         7.600000       -87.3182           0.624125           0.624125           3.541477
    3    0         6.400000       -61.9209           0.061167           1.081902           4.306578
    4    3        11.600000      -114.4238           0.731631           0.731631           3.585037
    3    1         6.200000       -58.1113           0.255680           1.030270           4.306578
    3    2         5.600000       -47.4081           0.847233           0.847233           4.413171
    5    4        17.600000      -168.5799           0.749740           0.749740           3.372465
    1    0         0.750000        -7.6499           0.705284           0.705284           5.366593
 

  Adding cutoff potential to free-atom effective potential.
  Creating atomic-like basis functions for current effective potential.

  Species H                   :

  List of atomic basis orbitals and eigenvalues:
    n    l      energy [Ha]    energy [eV]    outer radius [A]
    1    0        -0.238382        -6.4867       5.373006


  Species C                   :

  List of atomic basis orbitals and eigenvalues:
    n    l      energy [Ha]    energy [eV]    outer radius [A]
    1    0       -10.041232      -273.2358       1.934409
    2    0        -0.504327       -13.7234       5.271162
    2    1        -0.193750        -5.2722       5.401630


  Species N                   :

  List of atomic basis orbitals and eigenvalues:
    n    l      energy [Ha]    energy [eV]    outer radius [A]
    1    0       -14.129007      -384.4699       1.637919
    2    0        -0.681802       -18.5528       5.168461
    2    1        -0.260543        -7.0897       5.361532


  Species O                   :

  List of atomic basis orbitals and eigenvalues:
    n    l      energy [Ha]    energy [eV]    outer radius [A]
    1    0       -18.898576      -514.2564       1.415765
    2    0        -0.878795       -23.9132       5.048385
    2    1        -0.332075        -9.0362       5.301386

  Assembling full basis from fixed parts.
  | Species H :   atomic orbital   1 s accepted.
  | Species H :    hydro orbital   2 s accepted.
  | Species H :    hydro orbital   1 s accepted.
  | Species H :    hydro orbital   2 s accepted.
  | Species H :    hydro orbital   2 p accepted.
  | Species H :    hydro orbital   2 p accepted.
  | Species H :    hydro orbital   3 d accepted.
  | Species C :   atomic orbital   1 s accepted.
  | Species C :    hydro orbital   2 s accepted.
  | Species C :   atomic orbital   2 s accepted.
  | Species C :    hydro orbital   3 s accepted.
  | Species C :    hydro orbital   3 p accepted.
  | Species C :   atomic orbital   2 p accepted.
  | Species C :    hydro orbital   2 p accepted.
  | Species C :    hydro orbital   3 d accepted.
  | Species C :    hydro orbital   3 d accepted.
  | Species C :    hydro orbital   4 f accepted.
  | Species C :    hydro orbital   5 g accepted.
  | Species N :   atomic orbital   1 s accepted.
  | Species N :    hydro orbital   3 s accepted.
  | Species N :   atomic orbital   2 s accepted.
  | Species N :    hydro orbital   1 s accepted.
  | Species N :    hydro orbital   3 p accepted.
  | Species N :   atomic orbital   2 p accepted.
  | Species N :    hydro orbital   2 p accepted.
  | Species N :    hydro orbital   3 d accepted.
  | Species N :    hydro orbital   3 d accepted.
  | Species N :    hydro orbital   4 f accepted.
  | Species N :    hydro orbital   5 g accepted.
  | Species O :   atomic orbital   1 s accepted.
  | Species O :    hydro orbital   3 s accepted.
  | Species O :   atomic orbital   2 s accepted.
  | Species O :    hydro orbital   1 s accepted.
  | Species O :    hydro orbital   3 p accepted.
  | Species O :   atomic orbital   2 p accepted.
  | Species O :    hydro orbital   2 p accepted.
  | Species O :    hydro orbital   3 d accepted.
  | Species O :    hydro orbital   3 d accepted.
  | Species O :    hydro orbital   4 f accepted.
  | Species O :    hydro orbital   5 g accepted.
 
  Basis size parameters after reduction:
  | Total number of radial functions:       40
  | Total number of basis functions :      840
 
  Testing on-site integration grid accuracy.
  |  Species  Function  <phi|h_atom|phi> (log., in eV)  <phi|h_atom|phi> (rad., in eV)
           1        1                 -6.4869821809                 -6.4870742227
           1        2                 13.5044133542                 13.5041049177
           1        3                 32.7854418792                 32.7779770519
           1        4                 33.7995553101                 33.7152624900 ***
           1        5                 28.8558651799                 28.8558652046
           1        6                 59.6361831893                 59.6362535845
           1        7                 60.2733718049                 60.2733715484
           2        8               -273.2358277112               -273.2358261765
           2        9                -10.7624923123                -10.7625144012
           2       10                 17.4634079027                 17.4634252127
           2       11                 53.0363661832                 53.0366180446
           2       12                 15.0981351967                 15.0981317714
           2       13                  3.8522181899                  3.8522770949
           2       14                 12.1181835661                 12.1206868578
           2       15                 29.4320778347                 29.4320780959
           2       16                 54.8753777694                 54.8752901936
           2       17                 59.3533975461                 59.3533974833
           2       18                 93.4537491195                 93.4537492066
           3       19               -384.4698526889               -384.4698499465
           3       20                 12.5691022037                 12.5690910168
           3       21                -15.7489097511                -15.7489165588
           3       22                 27.0978334940                 27.0985589490
           3       23                 18.5949116966                 18.5949125562
           3       24                  1.2212828291                  1.2212855301
           3       25                 13.4428926797                 13.4434051125
           3       26                 35.9380614500                 35.9380613666
           3       27                 39.9231532098                 39.9231654735
           3       28                 72.9957335806                 72.9957336833
           3       29                116.4231321147                116.4231321431
           4       30               -514.2564144315               -514.2564099626
           4       31                 15.1726678541                 15.1726530877
           4       32                -21.5447785304                -21.5447874973
           4       33                 14.4944558459                 14.4944698284
           4       34                 20.8882174564                 20.8882178906
           4       35                 -2.4850315908                 -2.4850322289
           4       36                 13.8600193195                 13.8599826966
           4       37                 45.8243383616                 45.8243383675
           4       38                 52.1840606465                 52.1840622440
           4       39                 85.4074185510                 85.4074185819
           4       40                142.0983717302                142.0983717339
 * Note: Onsite integrals marked "***" above are less accurate than
 * onsite_accuracy_threshold =    0.03000 eV. Usually, this is harmless.
 * When in doubt, tighten the "radial" and/or "radial_multiplier" flags to check.

  Preparing densities etc. for the partition functions (integrals / Hartree potential).

  Preparations completed.
  max(cpu_time)          :      0.236 s.
  Wall clock time (cpu1) :      0.233 s.
------------------------------------------------------------

------------------------------------------------------------
          Begin self-consistency loop: Initialization.

          Date     :  20170309, Time     :  183111.689
------------------------------------------------------------

  Initializing index lists of integration centers etc. from given atomic structure:
  | Number of centers in hartree potential         :        32
  | Number of centers in hartree multipole         :        32
  | Number of centers in electron density summation:        32
  | Number of centers in basis integrals           :        32
  | Number of centers in integrals                 :        32
  | Number of centers in hamiltonian               :        32
  Using modified Scalapack Eigenvalue solver (ELPA)
  * Using 32 tasks for Scalapack Eigenvalue solver.
  Detailed listing of tasks and assigned k-points:
  (for non-periodic systems, the "k-point" denotes an internal label only)
   Task     0 k-point     1 on eos162
   Task     1 k-point     1 on eos162
   Task     2 k-point     1 on eos162
   Task     3 k-point     1 on eos162
   Task     4 k-point     1 on eos162
   Task     5 k-point     1 on eos162
   Task     6 k-point     1 on eos162
   Task     7 k-point     1 on eos162
   Task     8 k-point     1 on eos162
   Task     9 k-point     1 on eos162
   Task    10 k-point     1 on eos162
   Task    11 k-point     1 on eos162
   Task    12 k-point     1 on eos162
   Task    13 k-point     1 on eos162
   Task    14 k-point     1 on eos162
   Task    15 k-point     1 on eos162
   Task    16 k-point     1 on eos162
   Task    17 k-point     1 on eos162
   Task    18 k-point     1 on eos162
   Task    19 k-point     1 on eos162
   Task    20 k-point     1 on eos162
   Task    21 k-point     1 on eos162
   Task    22 k-point     1 on eos162
   Task    23 k-point     1 on eos162
   Task    24 k-point     1 on eos162
   Task    25 k-point     1 on eos162
   Task    26 k-point     1 on eos162
   Task    27 k-point     1 on eos162
   Task    28 k-point     1 on eos162
   Task    29 k-point     1 on eos162
   Task    30 k-point     1 on eos162
   Task    31 k-point     1 on eos162
  Tasks:    32 split into      8 X      4 BLACS grid
  Calculating blocksize based on n_basis =          840 max_nprow =            8 max_npcol =            4
  Scalapack blocksize set to:           16
  Required Scalapack workspace - INTEGER:            1 REAL:             1
  Partitioning the integration grid into batches with parallel hashing+maxmin method.
  | Number of batches:     5001
  | Maximal batch size:     195
  | Minimal batch size:      20
  | Average batch size:     105.524
  | Standard deviation of batch sizes:      31.039

  Integration load balanced across    32 MPI tasks.
  Work distribution over tasks is as follows:
  Task     0 has      16487 integration points.
  Task     1 has      16567 integration points.
  Task     2 has      16594 integration points.
  Task     3 has      16448 integration points.
  Task     4 has      16425 integration points.
  Task     5 has      16448 integration points.
  Task     6 has      16417 integration points.
  Task     7 has      16500 integration points.
  Task     8 has      16591 integration points.
  Task     9 has      16421 integration points.
  Task    10 has      16440 integration points.
  Task    11 has      16590 integration points.
  Task    12 has      16487 integration points.
  Task    13 has      16436 integration points.
  Task    14 has      16582 integration points.
  Task    15 has      16493 integration points.
  Task    16 has      16573 integration points.
  Task    17 has      16488 integration points.
  Task    18 has      16491 integration points.
  Task    19 has      16420 integration points.
  Task    20 has      16521 integration points.
  Task    21 has      16550 integration points.
  Task    22 has      16436 integration points.
  Task    23 has      16587 integration points.
  Task    24 has      16427 integration points.
  Task    25 has      16514 integration points.
  Task    26 has      16481 integration points.
  Task    27 has      16454 integration points.
  Task    28 has      16430 integration points.
  Task    29 has      16585 integration points.
  Task    30 has      16422 integration points.
  Task    31 has      16423 integration points.
  Initializing partition tables, free-atom densities, potentials, etc. across the integration grid (initialize_grid_storage).
  | initialize_grid_storage: Actual outermost partition radius vs. multipole_radius_free
  | (-- VB: in principle, multipole_radius_free should be larger, hence this output)
  | Species        1: Confinement radius =              6.000000000000000 AA, multipole_radius_free =              6.071692442739658 AA.
  | Species        1: outer_partition_radius set to              6.071692442739658 AA .
  | Species        2: Confinement radius =              6.000000000000000 AA, multipole_radius_free =              6.029870734432609 AA.
  | Species        2: outer_partition_radius set to              6.029870734432609 AA .
  | Species        3: Confinement radius =              6.000000000000000 AA, multipole_radius_free =              6.058726835495003 AA.
  | Species        3: outer_partition_radius set to              6.058726835495003 AA .
  | Species        4: Confinement radius =              6.000000000000000 AA, multipole_radius_free =              6.064445521808699 AA.
  | Species        4: outer_partition_radius set to              6.064445521808699 AA .
  | Original list of interatomic distances with          32 x         32 entries is created.
  | Net number of integration points:   527728
  | of which are non-zero points    :   414640
  Obtaining max. number of non-zero basis functions in each batch (get_n_compute_maxes).
  | Maximal number of non-zero basis functions:      778 in task     0
  | Maximal number of non-zero basis functions:      773 in task     1
  | Maximal number of non-zero basis functions:      781 in task     2
  | Maximal number of non-zero basis functions:      775 in task     3
  | Maximal number of non-zero basis functions:      779 in task     4
  | Maximal number of non-zero basis functions:      783 in task     5
  | Maximal number of non-zero basis functions:      769 in task     6
  | Maximal number of non-zero basis functions:      777 in task     7
  | Maximal number of non-zero basis functions:      781 in task     8
  | Maximal number of non-zero basis functions:      784 in task     9
  | Maximal number of non-zero basis functions:      779 in task    10
  | Maximal number of non-zero basis functions:      786 in task    11
  | Maximal number of non-zero basis functions:      785 in task    12
  | Maximal number of non-zero basis functions:      776 in task    13
  | Maximal number of non-zero basis functions:      775 in task    14
  | Maximal number of non-zero basis functions:      780 in task    15
  | Maximal number of non-zero basis functions:      775 in task    16
  | Maximal number of non-zero basis functions:      775 in task    17
  | Maximal number of non-zero basis functions:      775 in task    18
  | Maximal number of non-zero basis functions:      777 in task    19
  | Maximal number of non-zero basis functions:      776 in task    20
  | Maximal number of non-zero basis functions:      769 in task    21
  | Maximal number of non-zero basis functions:      787 in task    22
  | Maximal number of non-zero basis functions:      773 in task    23
  | Maximal number of non-zero basis functions:      765 in task    24
  | Maximal number of non-zero basis functions:      789 in task    25
  | Maximal number of non-zero basis functions:      780 in task    26
  | Maximal number of non-zero basis functions:      789 in task    27
  | Maximal number of non-zero basis functions:      791 in task    28
  | Maximal number of non-zero basis functions:      781 in task    29
  | Maximal number of non-zero basis functions:      763 in task    30
  | Maximal number of non-zero basis functions:      767 in task    31
  Selecting the method for density update.
  Loop over occupied states selected for charge density update.
  Integrating Hamiltonian matrix: batch-based integration.
  Time summed over all CPUs for integration: real work       22.299 s, elapsed       23.043 s
  Integrating overlap matrix.
  Time summed over all CPUs for integration: real work       13.536 s, elapsed       14.059 s
  Deallocating overlap matrix.

  Updating Kohn-Sham eigenvalues, eigenvectors, occupation numbers, and Fermi level.
  Solving generalized eigenproblem
  Solving real symmetric generalised eigenvalue problem by standard ScaLAPACK.
  Transforming overlap matrix with ScaLAPACK and checking for singularities.
  : Overlap matrix is nonsingular, using Cholesky decomposition
  | Lowest eigenvalue:  0.850291E-04
  Factoring overlap matrix with Cholesky decomposition
  Using Cholesky factor for transformation
  Using 1-stage real ELPA solver
  Determining occupation numbers for Kohn-Sham eigenstates.
  | Chemical potential (Fermi level) in eV                 : -.96376490E+01
  | Error in electron count due to remaining E_F inaccuracy: 0.00000000E+00
  | Maximum occupation number of highest empty state:  0.00E+00

  Writing Kohn-Sham eigenvalues.

  State    Occupation    Eigenvalue [Ha]    Eigenvalue [eV]
      1       2.00000         -18.974184         -516.31382
      2       2.00000         -18.973719         -516.30115
      3       2.00000         -18.973375         -516.29181
      4       2.00000         -14.254914         -387.89594
      5       2.00000         -14.254149         -387.87512
      6       2.00000         -14.253089         -387.84629
      7       2.00000         -10.171236         -276.77341
      8       2.00000         -10.171172         -276.77168
      9       2.00000         -10.170642         -276.75725
     10       2.00000         -10.166458         -276.64341
     11       2.00000         -10.147212         -276.11968
     12       2.00000         -10.146684         -276.10533
     13       2.00000         -10.136201         -275.82006
     14       2.00000         -10.134089         -275.76259
     15       2.00000         -10.133537         -275.74756
     16       2.00000          -1.131698          -30.79506
     17       2.00000          -1.129808          -30.74364
     18       2.00000          -1.126048          -30.64133
     19       2.00000          -1.018541          -27.71592
     20       2.00000          -1.011147          -27.51472
     21       2.00000          -1.004083          -27.32248
     22       2.00000          -0.892549          -24.28748
     23       2.00000          -0.874364          -23.79266
     24       2.00000          -0.841942          -22.91041
     25       2.00000          -0.817419          -22.24310
     26       2.00000          -0.783004          -21.30663
     27       2.00000          -0.760634          -20.69792
     28       2.00000          -0.704530          -19.17124
     29       2.00000          -0.682445          -18.57026
     30       2.00000          -0.663916          -18.06607
     31       2.00000          -0.643460          -17.50942
     32       2.00000          -0.637570          -17.34916
     33       2.00000          -0.617037          -16.79044
     34       2.00000          -0.602426          -16.39286
     35       2.00000          -0.583806          -15.88617
     36       2.00000          -0.574885          -15.64341
     37       2.00000          -0.566403          -15.41261
     38       2.00000          -0.562113          -15.29588
     39       2.00000          -0.558565          -15.19932
     40       2.00000          -0.554228          -15.08130
     41       2.00000          -0.548857          -14.93516
     42       2.00000          -0.543758          -14.79641
     43       2.00000          -0.531365          -14.45918
     44       2.00000          -0.528412          -14.37884
     45       2.00000          -0.521820          -14.19945
     46       2.00000          -0.520545          -14.16476
     47       2.00000          -0.511681          -13.92355
     48       2.00000          -0.500611          -13.62232
     49       2.00000          -0.490305          -13.34189
     50       2.00000          -0.484441          -13.18232
     51       2.00000          -0.481762          -13.10941
     52       2.00000          -0.471856          -12.83985
     53       2.00000          -0.416103          -11.32273
     54       2.00000          -0.411345          -11.19326
     55       2.00000          -0.403982          -10.99291
     56       2.00000          -0.382949          -10.42057
     57       2.00000          -0.379748          -10.33348
     58       2.00000          -0.378572          -10.30147
     59       0.00000          -0.169970           -4.62512
     60       0.00000          -0.161619           -4.39788
     61       0.00000          -0.151776           -4.13002
     62       0.00000          -0.080149           -2.18098
     63       0.00000          -0.070252           -1.91165
     64       0.00000          -0.056982           -1.55056
     65       0.00000          -0.048325           -1.31500
     66       0.00000          -0.042648           -1.16051
     67       0.00000          -0.039862           -1.08469
     68       0.00000          -0.038679           -1.05251
     69       0.00000          -0.026671           -0.72575
     70       0.00000          -0.022933           -0.62404
     71       0.00000          -0.020847           -0.56728
     72       0.00000          -0.015731           -0.42808
     73       0.00000          -0.011568           -0.31479
     74       0.00000          -0.006913           -0.18811
     75       0.00000          -0.001012           -0.02754
     76       0.00000           0.001710            0.04654
     77       0.00000           0.004952            0.13476
     78       0.00000           0.006052            0.16468
     79       0.00000           0.007859            0.21386
     80       0.00000           0.008765            0.23850
     81       0.00000           0.021867            0.59504
     82       0.00000           0.028885            0.78599
     83       0.00000           0.035145            0.95634
     84       0.00000           0.039909            1.08597
     85       0.00000           0.045598            1.24079
     86       0.00000           0.055933            1.52202
     87       0.00000           0.058014            1.57863
     88       0.00000           0.061128            1.66337
     89       0.00000           0.062754            1.70763
     90       0.00000           0.068978            1.87698
     91       0.00000           0.074374            2.02383
     92       0.00000           0.081981            2.23080
     93       0.00000           0.088535            2.40917
     94       0.00000           0.090278            2.45659
     95       0.00000           0.099717            2.71343
     96       0.00000           0.103516            2.81682
     97       0.00000           0.109857            2.98935
     98       0.00000           0.110407            3.00432
     99       0.00000           0.118230            3.21720
    100       0.00000           0.125371            3.41152
    101       0.00000           0.130571            3.55302
    102       0.00000           0.131344            3.57405
    103       0.00000           0.136294            3.70874
    104       0.00000           0.143090            3.89367
    105       0.00000           0.147529            4.01446
    106       0.00000           0.150974            4.10821
    107       0.00000           0.155835            4.24048
    108       0.00000           0.164780            4.48389
    109       0.00000           0.167850            4.56744
    110       0.00000           0.169367            4.60871
    111       0.00000           0.179572            4.88640
    112       0.00000           0.181270            4.93262
    113       0.00000           0.182869            4.97612
    114       0.00000           0.188834            5.13843
    115       0.00000           0.193930            5.27710
    116       0.00000           0.200912            5.46710
    117       0.00000           0.203608            5.54046
    118       0.00000           0.211292            5.74955
    119       0.00000           0.215127            5.85391
    120       0.00000           0.218461            5.94463
    121       0.00000           0.221142            6.01757
    122       0.00000           0.230180            6.26351
    123       0.00000           0.234111            6.37047
    124       0.00000           0.239586            6.51947
    125       0.00000           0.243038            6.61340
    126       0.00000           0.250117            6.80603
    127       0.00000           0.256031            6.96696
    128       0.00000           0.258716            7.04002
    129       0.00000           0.267176            7.27023

  Highest occupied state (VBM) at    -10.30147175 eV
  | Occupation number:      2.00000000

  Lowest unoccupied state (CBM) at    -4.62512429 eV
  | Occupation number:      0.00000000

  Overall HOMO-LUMO gap:      5.67634746 eV.
  Calculating total energy contributions from superposition of free atom densities.

  Total energy components:
  | Sum of eigenvalues            :        -437.82278715 Ha      -11913.76420407 eV
  | XC energy correction          :         -98.81790509 Ha       -2688.97201078 eV
  | XC potential correction       :         127.01896512 Ha        3456.36189862 eV
  | Free-atom electrostatic energy:        -333.66033875 Ha       -9079.35977024 eV
  | Hartree energy correction     :           0.00000000 Ha           0.00000000 eV
  | vdW energy correction         :           0.00000000 Ha           0.00000000 eV
  | Entropy correction            :          -0.00000000 Ha          -0.00000000 eV
  | ---------------------------
  | Total energy                  :        -743.28206587 Ha      -20225.73408647 eV
  | Total energy, T -> 0          :        -743.28206587 Ha      -20225.73408647 eV  <-- do not rely on this value for anything but (periodic) metals
  | Electronic free energy        :        -743.28206587 Ha      -20225.73408647 eV

  Derived energy quantities:
  | Kinetic energy                :         735.15009764 Ha       20004.45197215 eV
  | Electrostatic energy          :       -1379.61425843 Ha      -37541.21404784 eV
  | Energy correction for multipole
  | error in Hartree potential    :           0.00000000 Ha           0.00000000 eV
  | Sum of eigenvalues per atom                           :        -372.30513138 eV
  | Total energy (T->0) per atom                          :        -632.05419020 eV  <-- do not rely on this value for anything but (periodic) metals
  | Electronic free energy per atom                       :        -632.05419020 eV
  Initialize hartree_potential_storage
  Max. number of atoms included in rho_multipole:           32

  End scf initialization - timings             :  max(cpu_time)    wall_clock(cpu1)
  | Time for scf. initialization               :        1.944 s           1.941 s
  | Boundary condition initialization          :        0.000 s           0.000 s
  | Integration                                :        1.184 s           1.180 s
  | Solution of K.-S. eqns.                    :        0.076 s           0.074 s
  | Grid partitioning                          :        0.332 s           0.327 s
  | Preloading free-atom quantities on grid    :        0.028 s           0.028 s
  | Free-atom superposition energy             :        0.040 s           0.039 s
  | Total energy evaluation                    :        0.004 s           0.001 s
------------------------------------------------------------

------------------------------------------------------------
          Begin self-consistency iteration #    1

  Date     :  20170309, Time     :  183113.631
------------------------------------------------------------
  Evaluating new KS density.
  Integration grid: deviation in total charge (<rho> - N_e) =   7.105427E-14
  Pulay mixing of updated and previous charge densities.

  Evaluating partitioned Hartree potential by multipole expansion.
  | Analytical far-field extrapolation by fixed multipoles:
  | Hartree multipole sum: apparent total charge =   0.217111E-04
  Summing up the Hartree potential.
  Time summed over all CPUs for potential: real work        9.597 s, elapsed        9.846 s
  | RMS charge density error from multipole expansion :   0.104099E-01

  Integrating Hamiltonian matrix: batch-based integration.
  Time summed over all CPUs for integration: real work       21.997 s, elapsed       22.748 s

  Updating Kohn-Sham eigenvalues, eigenvectors, occupation numbers, and Fermi level.
  Solving generalized eigenproblem
  Solving real symmetric generalised eigenvalue problem by standard ScaLAPACK.
  Using Cholesky factor for transformation
  Using 2-stage real ELPA solver
  K-Point:    1, Trafo times: 1-stage=     0.021 s, 2-stage=     0.019 s ==> Using 2-stage solver
  Determining occupation numbers for Kohn-Sham eigenstates.
  | Chemical potential (Fermi level) in eV                 : -.38449574E+01
  | Error in electron count due to remaining E_F inaccuracy: 0.00000000E+00
  | Maximum occupation number of highest empty state:  0.00E+00

  Writing Kohn-Sham eigenvalues.

  State    Occupation    Eigenvalue [Ha]    Eigenvalue [eV]
      1       2.00000         -18.636765         -507.13219
      2       2.00000         -18.620673         -506.69430
      3       2.00000         -18.600362         -506.14161
      4       2.00000         -14.009001         -381.20430
      5       2.00000         -13.983713         -380.51618
      6       2.00000         -13.973399         -380.23553
      7       2.00000         -10.065960         -273.90870
      8       2.00000         -10.050876         -273.49825
      9       2.00000         -10.038500         -273.16148
     10       2.00000          -9.968516         -271.25712
     11       2.00000          -9.950456         -270.76567
     12       2.00000          -9.880526         -268.86279
     13       2.00000          -9.858256         -268.25680
     14       2.00000          -9.836708         -267.67045
     15       2.00000          -9.823067         -267.29926
     16       2.00000          -0.973388          -26.48723
     17       2.00000          -0.956225          -26.02021
     18       2.00000          -0.946175          -25.74674
     19       2.00000          -0.878505          -23.90534
     20       2.00000          -0.859292          -23.38253
     21       2.00000          -0.842751          -22.93242
     22       2.00000          -0.748633          -20.37134
     23       2.00000          -0.715461          -19.46867
     24       2.00000          -0.693944          -18.88318
     25       2.00000          -0.660916          -17.98443
     26       2.00000          -0.630896          -17.16756
     27       2.00000          -0.617624          -16.80640
     28       2.00000          -0.576506          -15.68752
     29       2.00000          -0.555407          -15.11339
     30       2.00000          -0.523570          -14.24707
     31       2.00000          -0.515252          -14.02072
     32       2.00000          -0.500153          -13.60986
     33       2.00000          -0.459370          -12.50010
     34       2.00000          -0.454359          -12.36373
     35       2.00000          -0.444012          -12.08219
     36       2.00000          -0.434988          -11.83662
     37       2.00000          -0.426614          -11.60875
     38       2.00000          -0.421633          -11.47323
     39       2.00000          -0.413816          -11.26050
     40       2.00000          -0.403577          -10.98188
     41       2.00000          -0.391896          -10.66403
     42       2.00000          -0.386068          -10.50544
     43       2.00000          -0.382014          -10.39514
     44       2.00000          -0.377078          -10.26081
     45       2.00000          -0.369212          -10.04676
     46       2.00000          -0.360921           -9.82116
     47       2.00000          -0.357124           -9.71784
     48       2.00000          -0.351059           -9.55279
     49       2.00000          -0.346851           -9.43830
     50       2.00000          -0.346236           -9.42157
     51       2.00000          -0.329662           -8.97057
     52       2.00000          -0.323672           -8.80757
     53       2.00000          -0.255592           -6.95502
     54       2.00000          -0.238294           -6.48431
     55       2.00000          -0.228500           -6.21781
     56       2.00000          -0.216018           -5.87816
     57       2.00000          -0.207398           -5.64359
     58       2.00000          -0.196134           -5.33707
     59       0.00000          -0.059701           -1.62454
     60       0.00000          -0.045257           -1.23150
     61       0.00000          -0.042646           -1.16045
     62       0.00000          -0.031086           -0.84589
     63       0.00000          -0.020581           -0.56003
     64       0.00000          -0.010655           -0.28993
     65       0.00000          -0.001668           -0.04540
     66       0.00000           0.002961            0.08056
     67       0.00000           0.012917            0.35148
     68       0.00000           0.021077            0.57353
     69       0.00000           0.022882            0.62265
     70       0.00000           0.036008            0.97984
     71       0.00000           0.038432            1.04579
     72       0.00000           0.041954            1.14162
     73       0.00000           0.044962            1.22347
     74       0.00000           0.045963            1.25072
     75       0.00000           0.059088            1.60788
     76       0.00000           0.062878            1.71099
     77       0.00000           0.071197            1.93737
     78       0.00000           0.082077            2.23342
     79       0.00000           0.084543            2.30054
     80       0.00000           0.089894            2.44614
     81       0.00000           0.094064            2.55960
     82       0.00000           0.098101            2.66947
     83       0.00000           0.101212            2.75412
     84       0.00000           0.109785            2.98740
     85       0.00000           0.110718            3.01278
     86       0.00000           0.114562            3.11738
     87       0.00000           0.123634            3.36425
     88       0.00000           0.127659            3.47378
     89       0.00000           0.131976            3.59124
     90       0.00000           0.140251            3.81642
     91       0.00000           0.148793            4.04885
     92       0.00000           0.157161            4.27657
     93       0.00000           0.158564            4.31474
     94       0.00000           0.162373            4.41840
     95       0.00000           0.169033            4.59962
     96       0.00000           0.174994            4.76184
     97       0.00000           0.178733            4.86358
     98       0.00000           0.179381            4.88121
     99       0.00000           0.187271            5.09591
    100       0.00000           0.191253            5.20426
    101       0.00000           0.194709            5.29829
    102       0.00000           0.198621            5.40476
    103       0.00000           0.201303            5.47774
    104       0.00000           0.203850            5.54705
    105       0.00000           0.208376            5.67020
    106       0.00000           0.214661            5.84124
    107       0.00000           0.223336            6.07729
    108       0.00000           0.226444            6.16187
    109       0.00000           0.230188            6.26374
    110       0.00000           0.232983            6.33979
    111       0.00000           0.241322            6.56671
    112       0.00000           0.244697            6.65854
    113       0.00000           0.250668            6.82102
    114       0.00000           0.252258            6.86428
    115       0.00000           0.259902            7.07229
    116       0.00000           0.265512            7.22494
    117       0.00000           0.270916            7.37201
    118       0.00000           0.280453            7.63152
    119       0.00000           0.282690            7.69239
    120       0.00000           0.285162            7.75966
    121       0.00000           0.297267            8.08904
    122       0.00000           0.302372            8.22796
    123       0.00000           0.310933            8.46093
    124       0.00000           0.312552            8.50498
    125       0.00000           0.314710            8.56369
    126       0.00000           0.322357            8.77178
    127       0.00000           0.332343            9.04350
    128       0.00000           0.338501            9.21108
    129       0.00000           0.342330            9.31526

  Highest occupied state (VBM) at     -5.33706858 eV
  | Occupation number:      2.00000000

  Lowest unoccupied state (CBM) at    -1.62453850 eV
  | Occupation number:      0.00000000

  Overall HOMO-LUMO gap:      3.71253008 eV.

  Total energy components:
  | Sum of eigenvalues            :        -417.22715072 Ha      -11353.32842215 eV
  | XC energy correction          :        -100.74320975 Ha       -2741.36221631 eV
  | XC potential correction       :         129.51559818 Ha        3524.29874093 eV
  | Free-atom electrostatic energy:        -333.66033875 Ha       -9079.35977024 eV
  | Hartree energy correction     :         -20.59676786 Ha        -560.46656968 eV
  | vdW energy correction         :           0.00000000 Ha           0.00000000 eV
  | Entropy correction            :           0.00000000 Ha           0.00000000 eV
  | ---------------------------
  | Total energy                  :        -742.71186890 Ha      -20210.21823744 eV
  | Total energy, T -> 0          :        -742.71186890 Ha      -20210.21823744 eV  <-- do not rely on this value for anything but (periodic) metals
  | Electronic free energy        :        -742.71186890 Ha      -20210.21823744 eV

  Derived energy quantities:
  | Kinetic energy                :         743.97235294 Ha       20244.51775330 eV
  | Electrostatic energy          :       -1385.94101209 Ha      -37713.37377443 eV
  | Energy correction for multipole
  | error in Hartree potential    :          -0.04123745 Ha          -1.12212807 eV
  | Sum of eigenvalues per atom                           :        -354.79151319 eV
  | Total energy (T->0) per atom                          :        -631.56931992 eV  <-- do not rely on this value for anything but (periodic) metals
  | Electronic free energy per atom                       :        -631.56931992 eV

  Self-consistency convergence accuracy:
  | Change of charge density      :  0.9007E+00
  | Change of sum of eigenvalues  :  0.5604E+03 eV
  | Change of total energy        :  0.1552E+02 eV

  End self-consistency iteration #     1       :  max(cpu_time)    wall_clock(cpu1)
  | Time for this iteration                    :        1.572 s           1.568 s
  | Charge density update                      :        0.496 s           0.493 s
[...]
   ----------------------------------------------------------------
   Total forces(  20)            :  0.213972E-02 -0.902279E-03 -0.147640E-02
  atom #   21
   Hellmann-Feynman              : -0.149474E-01  0.126753E-01  0.238630E-01
   Ionic forces                  :  0.000000E+00  0.000000E+00  0.000000E+00
   Multipole                     :  0.126705E-01  0.186129E-01  0.194256E-01
   Pulay + GGA                   : -0.347812E-02 -0.407572E-01 -0.503637E-01
   Van der Waals                 :  0.539681E-02  0.104244E-01  0.853433E-02
   ----------------------------------------------------------------
   Total forces(  21)            : -0.358207E-03  0.955426E-03  0.145916E-02
  atom #   22
   Hellmann-Feynman              : -0.280972E-02 -0.139338E-02  0.555969E-01
   Ionic forces                  :  0.000000E+00  0.000000E+00  0.000000E+00
   Multipole                     : -0.128598E-01 -0.189282E-02  0.590630E-02
   Pulay + GGA                   :  0.207836E-01  0.151511E-01 -0.615419E-01
   Van der Waals                 : -0.587886E-02 -0.118158E-01  0.608180E-03
   ----------------------------------------------------------------
   Total forces(  22)            : -0.764741E-03  0.491548E-04  0.569416E-03
  atom #   23
   Hellmann-Feynman              : -0.495160E+00  0.117260E+01  0.711949E+00
   Ionic forces                  :  0.000000E+00  0.000000E+00  0.000000E+00
   Multipole                     :  0.168687E+00 -0.252577E+00 -0.227066E+00
   Pulay + GGA                   :  0.320933E+00 -0.932171E+00 -0.483828E+00
   Van der Waals                 :  0.567649E-02  0.102279E-01 -0.843881E-03
   ----------------------------------------------------------------
   Total forces(  23)            :  0.136267E-03 -0.192234E-02  0.210491E-03
  atom #   24
   Hellmann-Feynman              :  0.233111E-02 -0.595182E-01 -0.306454E-01
   Ionic forces                  :  0.000000E+00  0.000000E+00  0.000000E+00
   Multipole                     : -0.316376E-01  0.176604E-01  0.169952E-01
   Pulay + GGA                   :  0.353412E-01  0.428943E-01  0.119443E-01
   Van der Waals                 : -0.587113E-02 -0.126945E-02  0.225287E-02
   ----------------------------------------------------------------
   Total forces(  24)            :  0.163546E-03 -0.232949E-03  0.546985E-03
  atom #   25
   Hellmann-Feynman              : -0.277629E-02 -0.125055E-01 -0.477407E-01
   Ionic forces                  :  0.000000E+00  0.000000E+00  0.000000E+00
   Multipole                     :  0.894259E-02  0.975427E-02 -0.204299E-01
   Pulay + GGA                   : -0.107341E-01 -0.456871E-02  0.618710E-01
   Van der Waals                 :  0.443363E-02  0.754536E-02  0.625190E-02
   ----------------------------------------------------------------
   Total forces(  25)            : -0.134217E-03  0.225381E-03 -0.477053E-04
  atom #   26
   Hellmann-Feynman              :  0.191367E-01 -0.555918E-01  0.135278E-01
   Ionic forces                  :  0.000000E+00  0.000000E+00  0.000000E+00
   Multipole                     :  0.432738E-02  0.862379E-02  0.315632E-01
   Pulay + GGA                   : -0.250782E-01  0.398354E-01 -0.480340E-01
   Van der Waals                 :  0.219533E-02  0.741078E-02  0.324905E-02
   ----------------------------------------------------------------
   Total forces(  26)            :  0.581173E-03  0.278217E-03  0.306097E-03
  atom #   27
   Hellmann-Feynman              :  0.131563E+01  0.540307E+00 -0.251411E+00
   Ionic forces                  :  0.000000E+00  0.000000E+00  0.000000E+00
   Multipole                     :  0.981551E-01  0.121470E+00 -0.685168E-01
   Pulay + GGA                   : -0.140851E+01 -0.663110E+00  0.325889E+00
   Van der Waals                 : -0.711712E-02  0.273266E-02 -0.600130E-02
   ----------------------------------------------------------------
   Total forces(  27)            : -0.184511E-02  0.139942E-02 -0.400851E-04
  atom #   28
   Hellmann-Feynman              : -0.211920E+01 -0.373465E+00  0.787729E+00
   Ionic forces                  :  0.000000E+00  0.000000E+00  0.000000E+00
   Multipole                     :  0.113131E+00  0.694222E-01 -0.362618E-01
   Pulay + GGA                   :  0.200766E+01  0.314662E+00 -0.761318E+00
   Van der Waals                 :  0.176574E-02 -0.102684E-01  0.765356E-02
   ----------------------------------------------------------------
   Total forces(  28)            :  0.336491E-02  0.350496E-03 -0.219716E-02
  atom #   29
   Hellmann-Feynman              : -0.388773E-03  0.420008E-01 -0.591221E-01
   Ionic forces                  :  0.000000E+00  0.000000E+00  0.000000E+00
   Multipole                     : -0.400823E-01 -0.160738E-01  0.227261E-01
   Pulay + GGA                   :  0.419012E-01 -0.326052E-01  0.420880E-01
   Van der Waals                 : -0.182565E-02  0.537598E-02 -0.672163E-02
   ----------------------------------------------------------------
   Total forces(  29)            : -0.395494E-03 -0.130223E-02 -0.102960E-02
  atom #   30
   Hellmann-Feynman              :  0.304920E-01  0.721052E-02 -0.487827E-02
   Ionic forces                  :  0.000000E+00  0.000000E+00  0.000000E+00
   Multipole                     :  0.601019E-02 -0.318679E-01  0.458970E-02
   Pulay + GGA                   : -0.258914E-01  0.385270E-01 -0.116276E-01
   Van der Waals                 : -0.101842E-01 -0.143774E-01  0.118321E-01
   ----------------------------------------------------------------
   Total forces(  30)            :  0.426612E-03 -0.507892E-03 -0.840462E-04
  atom #   31
   Hellmann-Feynman              :  0.483892E-01  0.254908E-01  0.958096E-02
   Ionic forces                  :  0.000000E+00  0.000000E+00  0.000000E+00
   Multipole                     : -0.337943E-02  0.250028E-01  0.210424E-01
   Pulay + GGA                   : -0.385281E-01 -0.583365E-01 -0.142235E-01
   Van der Waals                 : -0.642749E-02  0.766505E-02 -0.162842E-01
   ----------------------------------------------------------------
   Total forces(  31)            :  0.542448E-04 -0.177872E-03  0.115608E-03
  atom #   32
   Hellmann-Feynman              :  0.290134E-01  0.171413E-01 -0.385780E-01
   Ionic forces                  :  0.000000E+00  0.000000E+00  0.000000E+00
   Multipole                     : -0.267790E-01 -0.673211E-02 -0.176192E-01
   Pulay + GGA                   :  0.565279E-03 -0.149121E-01  0.635974E-01
   Van der Waals                 : -0.305935E-02  0.475786E-02 -0.771374E-02
   ----------------------------------------------------------------
   Total forces(  32)            : -0.259678E-03  0.254963E-03 -0.313512E-03

  Timings for VdW correction (Tkatchenko-Scheffler 2009 or later):
  | CPU time:        0.128 s, Wall clock time:        0.125 s.
  Removing unitary transformations (pure translations, rotations) from forces on atoms.
  Atomic forces before filtering:
  | Net force on center of mass :  -0.803334E-04 -0.148106E-03 -0.926455E-03 eV/A
  | Net torque on center of mass:   0.574685E-03  0.158169E-02 -0.221831E-02 eV
  Atomic forces after filtering:
  | Net force on center of mass :  -0.143735E-17  0.000000E+00  0.435562E-19 eV/A
  | Net torque on center of mass:   0.608492E-17 -0.949616E-17  0.421796E-17 eV

  Energy and forces in a compact form:
  | Total energy uncorrected      :         -0.202086281355156E+05 eV
  | Total energy corrected        :         -0.202086281355156E+05 eV  <-- do not rely on this value for anything but (periodic) metals
  | Electronic free energy        :         -0.202086281355156E+05 eV
  Total atomic forces (unitary forces cleaned) [eV/Ang]:
  |   1          0.389244195562346E-03          0.481905740122425E-03          0.521112169340803E-03
  |   2         -0.357237670706022E-02          0.934735842490288E-03          0.205688050284759E-02
  |   3          0.150755341854897E-02          0.218129996792970E-03          0.696269054344847E-03
  |   4         -0.495922595200611E-04         -0.822216910521177E-03         -0.774524469825726E-03
  |   5          0.649167615057528E-03         -0.492761250582821E-03          0.878986316340639E-03
  |   6         -0.154534089465475E-03         -0.252641187722138E-03          0.180477914065628E-03
  |   7          0.155759862917500E-02         -0.150969590361469E-02         -0.203887883786505E-02
  |   8         -0.588030619280069E-03         -0.131164010617363E-02         -0.261326460523442E-02
  |   9          0.226333058626566E-02         -0.242879052105754E-03         -0.108207136728633E-02
  |  10         -0.108572961535006E-02          0.221992359201056E-02          0.417999035635063E-03
  |  11         -0.701920871608462E-03          0.272626441114951E-03          0.126537408076556E-02
  |  12          0.863564981030083E-03          0.338969446182439E-04          0.214983322858721E-03
  |  13          0.449503260051079E-03          0.151119756197907E-02         -0.560461299783960E-03
  |  14         -0.690341908926087E-04         -0.245822443160477E-03         -0.430673222461368E-04
  |  15         -0.575220670923998E-04          0.156639234875257E-04          0.419509983631761E-03
  |  16          0.166450365845250E-03          0.303035780508664E-03         -0.181848940963476E-03
  |  17         -0.194318876005996E-03         -0.319197904363851E-03          0.134800812206054E-02
  |  18         -0.734583512123098E-03         -0.257287973821744E-03         -0.509413341165015E-03
  |  19         -0.351755796526900E-02          0.716408558962913E-03          0.133250653632070E-02
  |  20          0.212354937046814E-02         -0.848017603664233E-03         -0.143039626720987E-02
  |  21         -0.350314397235050E-03          0.969292196643153E-03          0.149126397558731E-02
  |  22         -0.783259313263840E-03          0.815819221056217E-04          0.607953072179314E-03
  |  23          0.964599929995817E-04         -0.190549017898611E-02          0.243757782501810E-03
  |  24          0.114138032950982E-03         -0.204119925109924E-03          0.584385370342567E-03
  |  25         -0.176297149612011E-03          0.234405314717593E-03         -0.171099798496962E-04
  |  26          0.537375224089288E-03          0.286230334496130E-03          0.336351683940747E-03
  |  27         -0.185284937956860E-02          0.143158175349159E-02         -0.167288825861096E-05
  |  28          0.336036791973106E-02          0.364337692369525E-03         -0.216502967119126E-02
  |  29         -0.400318345328415E-03         -0.125931076930864E-02         -0.987510306020346E-03
  |  30          0.412479604960039E-03         -0.504135323104643E-03         -0.553415043600339E-04
  |  31          0.647734506867000E-04         -0.168608974412388E-03          0.146121953069245E-03
  |  32         -0.267317288746341E-03          0.268871910740995E-03         -0.281350074572920E-03

  ------------------------------------ 
  Start decomposition of the XC Energy 
  ------------------------------------ 
  Hartree-Fock part   :          0.000000000 Ha              0.000000000 eV
  ------------------------------------ 
  X Energy            :        -96.988032788 Ha          -2639.178652082 eV
  C Energy GGA        :         -3.870569228 Ha           -105.323547503 eV
  Total XC Energy     :       -100.858602016 Ha          -2744.502199585 eV
  LDA X and C from self-consistent density 
  X Energy LDA        :        -88.007557599 Ha          -2394.807488729 eV
  C Energy LDA        :         -7.532844205 Ha           -204.979120052 eV
  ------------------------------------ 
  End decomposition of the XC Energy 
  ------------------------------------ 
   
  ESP charge fitting starts.
  | Calculation :  00000001  of  00000001
  | Full density
  Computing multipole expansion for total density.
  Generating points for esp charges.
  Partitioning the integration grid into batches with parallel hashing+maxmin method.
  | Number of batches:     3856
  | Maximal batch size:     199
  | Minimal batch size:      53
  | Average batch size:     126.640
  | Standard deviation of batch sizes:      18.605

  Integration load balanced across    32 MPI tasks.
  Work distribution over tasks is as follows:
  Initializing partition tables, free-atom densities, potentials, etc. across the integration grid (initialize_grid_storage).
  | Original list of interatomic distances with          32 x         32 entries is created.
  | Net number of integration points:   488325
  | of which are non-zero points    :   488325
  Summing up potential from multipole expanded  density.
  Summing up the Hartree potential.
  Time summed over all CPUs for potential: real work        6.278 s, elapsed        6.600 s
  Fitting esp charges to potential.
  |
  | ESP charges fitted to the electrostatic potential :
  |
  | Atom         1: C, ESP charge:      0.83782361
  |
  | Atom         2: C, ESP charge:     -0.69381202
  |
  | Atom         3: O, ESP charge:      0.53558212
  |
  | Atom         4: H, ESP charge:     -0.21027489
  |
  | Atom         5: H, ESP charge:     -0.25062610
  |
  | Atom         6: H, ESP charge:     -0.24784307
  |
  | Atom         7: N, ESP charge:      0.60872732
  |
  | Atom         8: C, ESP charge:     -0.49886786
  |
  | Atom         9: C, ESP charge:     -0.12252265
  |
  | Atom        10: O, ESP charge:      0.45207117
  |
  | Atom        11: H, ESP charge:     -0.32756057
  |
  | Atom        12: H, ESP charge:     -0.01901208
  |
  | Atom        13: C, ESP charge:      0.63209819
  |
  | Atom        14: H, ESP charge:     -0.16754799
  |
  | Atom        15: H, ESP charge:     -0.21323161
  |
  | Atom        16: H, ESP charge:     -0.15371751
  |
  | Atom        17: N, ESP charge:      0.23426567
  |
  | Atom        18: C, ESP charge:     -0.50602760
  |
  | Atom        19: C, ESP charge:     -0.35291294
  |
  | Atom        20: O, ESP charge:      0.52661946
  |
  | Atom        21: H, ESP charge:     -0.20319330
  |
  | Atom        22: H, ESP charge:      0.01328246
  |
  | Atom        23: C, ESP charge:      0.78548378
  |
  | Atom        24: H, ESP charge:     -0.19612986
  |
  | Atom        25: H, ESP charge:     -0.24730948
  |
  | Atom        26: H, ESP charge:     -0.20617240
  |
  | Atom        27: N, ESP charge:      0.48176314
  |
  | Atom        28: C, ESP charge:     -0.13711927
  |
  | Atom        29: H, ESP charge:     -0.32083986
  |
  | Atom        30: H, ESP charge:     -0.00035449
  |
  | Atom        31: H, ESP charge:      0.01803567
  |
  | Atom        32: H, ESP charge:     -0.05067705

  RRMS:       0.00328303

  Done.

------------------------------------------------------------------------------
  Final output of selected total energy values:

  The following output summarizes some interesting total energy values
  at the end of a run (AFTER all relaxation, molecular dynamics, etc.).

  | Total energy of the DFT / Hartree-Fock s.c.f. calculation      :         -20208.628135516 eV
  | Final zero-broadening corrected energy (caution - metals only) :         -20208.628135516 eV
  | For reference only, the value of 1 Hartree used in FHI-aims is :             27.211384500 eV

  Before relying on these values, please be sure to understand exactly which
  total energy value is referred to by a given number. Different objects may
  all carry the same name 'total energy'. Definitions:

  Total energy of the DFT / Hartree-Fock s.c.f. calculation:
  | Note that this energy does not include ANY quantities calculated after the
  | s.c.f. cycle, in particular not ANY RPA, MP2, etc. many-body perturbation terms.

  Final zero-broadening corrected energy:
  | For metallic systems only, a broadening of the occupation numbers at the Fermi
  | level can be extrapolated back to zero broadening by an electron-gas inspired
  | formula. For all systems that are not real metals, this value can be
  | meaningless and should be avoided.

------------------------------------------------------------------------------
  Methods described in the following list of references were used in this FHI-aims run.
  If you publish the results, please make sure to cite these reference if they apply.
  FHI-aims is an academic code, and for our developers (often, Ph.D. students
  and postdocs), scientific credit in the community is essential.
  Thank you for helping us!

  For any use of FHI-aims, please cite:

    Volker Blum, Ralf Gehrke, Felix Hanke, Paula Havu, Ville Havu,
    Xinguo Ren, Karsten Reuter, and Matthias Scheffler
    'Ab initio molecular simulations with numeric atom-centered orbitals'
    Computer Physics Communications 180, 2175-2196 (2009)
    http://dx.doi.org/10.1016/j.cpc.2009.06.022


  The scalable eigensolver library ELPA was used in your run.
  ELPA is essential especially for large systems on hundreds or thousands of CPUs.
  For ELPA, please cite:

    Andreas Marek, Volker Blum, Rainer Johanni, Ville Havu, Bruno Lang,
    Thomas Auckenthaler, Alexander Heinecke, Hans-Joachim Bungartz, and Hermann Lederer,
    'The ELPA Library - Scalable Parallel Eigenvalue Solutions
    for Electronic Structure Theory and Computational Science'
    The Journal of Physics: Condensed Matter 26, 213201 (2014).
    http://dx.doi.org/10.1088/0953-8984/26/21/213201


  For ELPA's efficient two-stage tridiagonalization used in your run, please cite:

    T. Auckenthaler, V. Blum, H.-J. Bungartz, T. Huckle, R. Johanni, L. Kraemer,
    B. Lang, H. Lederer, and P. R. Willems,
    'Parallel solution of partial symmetric eigenvalue problems'
    'from  electronic structure calculations'
    Parallel Computing 37, 783-794 (2011).
    http://dx.doi.org/10.1016/j.parco.2011.05.002


  For the real-space grid partitioning and parallelization used in this calculation, please cite:

    Ville Havu, Volker Blum, Paula Havu, and Matthias Scheffler,
    'Efficient O(N) integration for all-electron electronic structure calculation'
    'using numerically tabulated basis functions'
    Journal of Computational Physics 228, 8367-8379 (2009).
    http://dx.doi.org/10.1016/j.jcp.2009.08.008

  Of course, there are many other important community references, e.g., those cited in the
  above references. Our list is limited to references that describe implementations in the
  FHI-aims code. The reason is purely practical (length of this list) - please credit others as well.

------------------------------------------------------------
          Leaving FHI-aims.
          Date     :  20170309, Time     :  183138.144

          Computational steps:
          | Number of self-consistency cycles          :           13

          Detailed time accounting                     :  max(cpu_time)    wall_clock(cpu1)
          | Total time                                 :       27.338 s          27.503 s
          | Preparation time                           :        0.236 s           0.233 s
          | Grid partitioning                          :        0.332 s           0.327 s
          | Preloading free-atom quantities on grid    :        0.028 s           0.028 s
          | Free-atom superposition energy             :        0.040 s           0.039 s
          | Total time for integrations                :       10.629 s          10.599 s
          | Total time for solution of K.-S. equations :        0.496 s           0.465 s
          | Total time for density & force components  :        7.921 s           7.893 s
          | Total time for mixing                      :        0.112 s           0.093 s
          | Total time for Hartree multipole update    :        0.064 s           0.056 s
          | Total time for Hartree multipole sum       :        5.420 s           5.387 s
          | Total time for total energy evaluation     :        0.028 s           0.021 s
          | Total time for vdW correction              :        0.128 s           0.125 s

          Have a nice day.
------------------------------------------------------------
