  MPI-parallelism will be employed.
------------------------------------------------------------
          Invoking FHI-aims ...
          Version 150427
          Git rev.: 9dd23e0 BL: Update Version stamp
          Compiled on 2015/11/03 at 22:05:20 on host eos03.

          When using FHI-aims, please cite the following reference:

          Volker Blum, Ralf Gehrke, Felix Hanke, Paula Havu,
          Ville Havu, Xinguo Ren, Karsten Reuter, and Matthias Scheffler,
          'Ab Initio Molecular Simulations with Numeric Atom-Centered Orbitals: FHI-aims',
          Computer Physics Communications 180, 2175-2196 (2009)

          For any questions about FHI-aims, please visit the aimsclub website
          with its forums and wiki. Contributions to both the forums and the
          wiki are warmly encouraged - they are for you, and everyone is welcome there.

------------------------------------------------------------

  Date     :  20170309, Time     :  183325.417
  Time zero on CPU 1             :   0.396024000000000E+00  s.
  Internal wall clock time zero  :           258316405.417  s.

  Using       32 parallel tasks.
  Task        0 on host eos162 reporting.
  Task        1 on host eos162 reporting.
  Task        2 on host eos162 reporting.
  Task        3 on host eos162 reporting.
  Task        4 on host eos162 reporting.
  Task        5 on host eos162 reporting.
  Task        6 on host eos162 reporting.
  Task        7 on host eos162 reporting.
  Task        8 on host eos162 reporting.
  Task        9 on host eos162 reporting.
  Task       10 on host eos162 reporting.
  Task       11 on host eos162 reporting.
  Task       12 on host eos162 reporting.
  Task       13 on host eos162 reporting.
  Task       14 on host eos162 reporting.
  Task       15 on host eos162 reporting.
  Task       16 on host eos162 reporting.
  Task       17 on host eos162 reporting.
  Task       18 on host eos162 reporting.
  Task       19 on host eos162 reporting.
  Task       20 on host eos162 reporting.
  Task       21 on host eos162 reporting.
  Task       22 on host eos162 reporting.
  Task       23 on host eos162 reporting.
  Task       24 on host eos162 reporting.
  Task       25 on host eos162 reporting.
  Task       26 on host eos162 reporting.
  Task       27 on host eos162 reporting.
  Task       28 on host eos162 reporting.
  Task       29 on host eos162 reporting.
  Task       30 on host eos162 reporting.
  Task       31 on host eos162 reporting.

  Performing system and environment tests:
  | Environment variable OMP_NUM_THREADS correctly set to 1.
  | Stacksize not measured: no C compiler
  | Checking for scalapack...
  | Testing pdtran()...
  | All pdtran() tests passed.

  Obtaining array dimensions for all initial allocations:
  
  -----------------------------------------------------------------------
  Parsing control.in (first pass over file, find array dimensions only).
  The contents of control.in will be repeated verbatim below
  unless switched off by setting 'verbatim_writeout .false.' .
  in the first line of control.in .
  -----------------------------------------------------------------------
  
  #########################################################################################
  #
  # Input for System
  #
  #########################################################################################
  #
  #
  #  Physical model
  #
    xc                 pbe
    vdw_correction_hirshfeld
    spin               none
    charge             0.
  #
  #  SCF convergence
  #
    occupation_type    gaussian 0.05
    mixer              pulay
      n_max_pulay        10
      charge_mix_param   0.5
    sc_accuracy_rho    1E-4
    sc_accuracy_eev    1E-2
    sc_accuracy_etot   1E-5
    sc_accuracy_forces 1E-4
    sc_iter_limit      1000
  #
  #  ESP charge
  #
    output esp
    esp equal_grid_n 80 80 80
  #
  #
  ################################################################################
  #
  #  FHI-aims code project
  # Volker Blum, Fritz Haber Institute Berlin, 2009
  #
  #  Suggested "tight" defaults for H atom (to be pasted into control.in file)
  #
  ################################################################################
    species        H
  #     global species definitions
      nucleus             1
      mass                1.00794
  #
      l_hartree           6
  #
      cut_pot             4.0  2.0  1.0
      basis_dep_cutoff    1e-4
  #
      radial_base         24 7.0
      radial_multiplier   2
      angular_grids       specified
        division   0.1930   50
        division   0.3175  110
        division   0.4293  194
        division   0.5066  302
        division   0.5626  434
  #      division   0.5922  590
  #      division   0.6227  974
  #      division   0.6868 1202
  #      outer_grid  770
        outer_grid  434
  ################################################################################
  #
  #  Definition of "minimal" basis
  #
  ################################################################################
  #     valence basis states
      valence      1  s   1.
  #     ion occupancy
      ion_occ      1  s   0.5
  ################################################################################
  #
  #  Suggested additional basis functions. For production calculations,
  #  uncomment them one after another (the most important basis functions are
  #  listed first).
  #
  #  Basis constructed for dimers: 0.5 A, 0.7 A, 1.0 A, 1.5 A, 2.5 A
  #
  ################################################################################
  #  "First tier" - improvements: -1014.90 meV to -62.69 meV
       hydro 2 s 2.1
       hydro 2 p 3.5
  #  "Second tier" - improvements: -12.89 meV to -1.83 meV
       hydro 1 s 0.85
       hydro 2 p 3.7
       hydro 2 s 1.2
       hydro 3 d 7
  #  "Third tier" - improvements: -0.25 meV to -0.12 meV
  #     hydro 4 f 11.2
  #     hydro 3 p 4.8
  #     hydro 4 d 9
  #     hydro 3 s 3.2
  ################################################################################
  #
  # For methods that use the localized form of the "resolution of identity" for
  # the two-electron Coulomb operator (RI_method LVL), particularly Hartree-Fock and
  # hybrid density functional calculations, the highest accuracy can be obtained by
  # uncommenting the line beginning with "for_aux"  below, thus adding an extra g radial
  # function to the construction of the product basis set for the expansion.
  # See Ref. New J. Phys. 17, 093020 (2015) for more information, particularly Figs. 1 and 6.
  #
  ################################################################################
  #
  # for_aux hydro 5 g 6.0
  ################################################################################
  #
  #  FHI-aims code project
  # Volker Blum, Fritz Haber Institute Berlin, 2009
  #
  #  Suggested "tight" defaults for C atom (to be pasted into control.in file)
  #
  ################################################################################
    species        C
  #     global species definitions
      nucleus             6
      mass                12.0107
  #
      l_hartree           6
  #
      cut_pot             4.0  2.0  1.0
      basis_dep_cutoff    1e-4
  #
      radial_base         34 7.0
      radial_multiplier   2
      angular_grids specified
        division   0.2187   50
        division   0.4416  110
        division   0.6335  194
        division   0.7727  302
        division   0.8772  434
  #      division   0.9334  590
  #      division   0.9924  770
  #      division   1.0230  974
  #      division   1.5020 1202
  #     outer_grid  974
        outer_grid  434
  ################################################################################
  #
  #  Definition of "minimal" basis
  #
  ################################################################################
  #     valence basis states
      valence      2  s   2.
      valence      2  p   2.
  #     ion occupancy
      ion_occ      2  s   1.
      ion_occ      2  p   1.
  ################################################################################
  #
  #  Suggested additional basis functions. For production calculations,
  #  uncomment them one after another (the most important basis functions are
  #  listed first).
  #
  #  Constructed for dimers: 1.0 A, 1.25 A, 1.5 A, 2.0 A, 3.0 A
  #
  ################################################################################
  #  "First tier" - improvements: -1214.57 meV to -155.61 meV
       hydro 2 p 1.7
       hydro 3 d 6
       hydro 2 s 4.9
  #  "Second tier" - improvements: -67.75 meV to -5.23 meV
       hydro 4 f 9.8
       hydro 3 p 5.2
       hydro 3 s 4.3
       hydro 5 g 14.4
       hydro 3 d 6.2
  #  "Third tier" - improvements: -2.43 meV to -0.60 meV
  #     hydro 2 p 5.6
  #     hydro 2 s 1.4
  #     hydro 3 d 4.9
  #     hydro 4 f 11.2
  #  "Fourth tier" - improvements: -0.39 meV to -0.18 meV
  #     hydro 2 p 2.1
  #     hydro 5 g 16.4
  #     hydro 4 d 13.2
  #     hydro 3 s 13.6
  #     hydro 4 f 17.6
  #  Further basis functions - improvements: -0.08 meV and below
  #     hydro 3 s 2
  #     hydro 3 p 6
  #     hydro 4 d 20
  ################################################################################
  #
  # For methods that use the localized form of the "resolution of identity" for
  # the two-electron Coulomb operator (RI_method LVL), particularly Hartree-Fock and
  # hybrid density functional calculations, the highest accuracy can be obtained by
  # uncommenting the line beginning with "for_aux"  below, thus adding an extra g radial
  # function to the construction of the product basis set for the expansion.
  # See Ref. New J. Phys. 17, 093020 (2015) for more information, particularly Figs. 1 and 6.
  #
  ################################################################################
  #
  # for_aux hydro 5 g 6.0
  ################################################################################
  #
  #  FHI-aims code project
  # Volker Blum, Fritz Haber Institute Berlin, 2009
  #
  #  Suggested "tight" defaults for N atom (to be pasted into control.in file)
  #
  ################################################################################
    species        N
  #     global species definitions
      nucleus             7
      mass                14.0067
  #
      l_hartree           6
  #
      cut_pot             4.0  2.0  1.0
      basis_dep_cutoff    1e-4
  #
      radial_base         35 7.0
      radial_multiplier   2
      angular_grids       specified
        division   0.1841   50
        division   0.3514  110
        division   0.5126  194
        division   0.6292  302
        division   0.6939  434
  #      division   0.7396  590
  #      division   0.7632  770
  #      division   0.8122  974
  #      division   1.1604 1202
  #      outer_grid  974
        outer_grid  434
  ################################################################################
  #
  #  Definition of "minimal" basis
  #
  ################################################################################
  #     valence basis states
      valence      2  s   2.
      valence      2  p   3.
  #     ion occupancy
      ion_occ      2  s   1.
      ion_occ      2  p   2.
  ################################################################################
  #
  #  Suggested additional basis functions. For production calculations,
  #  uncomment them one after another (the most important basis functions are
  #  listed first).
  #
  #  Constructed for dimers: 1.0 A, 1.1 A, 1.5 A, 2.0 A, 3.0 A
  #
  ################################################################################
  #  "First tier" - improvements: -1193.42 meV to -220.60 meV
       hydro 2 p 1.8
       hydro 3 d 6.8
       hydro 3 s 5.8
  #  "Second tier" - improvements: -80.21 meV to -6.86 meV
       hydro 4 f 10.8
       hydro 3 p 5.8
       hydro 1 s 0.8
       hydro 5 g 16
       hydro 3 d 4.9
  #  "Third tier" - improvements: -4.29 meV to -0.53 meV
  #     hydro 3 s 16
  #     ionic 2 p auto
  #     hydro 3 d 6.6
  #     hydro 4 f 11.6
  #  "Fourth tier" - improvements: -0.75 meV to -0.25 meV
  #     hydro 2 p 4.5
  #     hydro 2 s 2.4
  #     hydro 5 g 14.4
  #     hydro 4 d 14.4
  #     hydro 4 f 16.8
  # Further basis functions - -0.21 meV and below
  #     hydro 3 p 14.8
  #     hydro 3 s 4.4
  #     hydro 3 d 19.6
  #     hydro 5 g 12.8
  ################################################################################
  #
  # For methods that use the localized form of the "resolution of identity" for
  # the two-electron Coulomb operator (RI_method LVL), particularly Hartree-Fock and
  # hybrid density functional calculations, the highest accuracy can be obtained by
  # uncommenting the line beginning with "for_aux"  below, thus adding an extra g radial
  # function to the construction of the product basis set for the expansion.
  # See Ref. New J. Phys. 17, 093020 (2015) for more information, particularly Figs. 1 and 6.
  #
  ################################################################################
  #
  # for_aux hydro 5 g 6.0
  ################################################################################
  #
  #  FHI-aims code project
  # Volker Blum, Fritz Haber Institute Berlin, 2009
  #
  #  Suggested "tight" defaults for O atom (to be pasted into control.in file)
  #
  ################################################################################
    species        O
  #     global species definitions
      nucleus             8
      mass                15.9994
  #
      l_hartree           6
  #
      cut_pot             4.0  2.0  1.0
      basis_dep_cutoff    1e-4
  #
      radial_base         36 7.0
      radial_multiplier   2
       angular_grids specified
        division   0.1817   50
        division   0.3417  110
        division   0.4949  194
        division   0.6251  302
        division   0.8014  434
  #      division   0.8507  590
  #      division   0.8762  770
  #      division   0.9023  974
  #      division   1.2339 1202
  #      outer_grid 974
        outer_grid  434
  ################################################################################
  #
  #  Definition of "minimal" basis
  #
  ################################################################################
  #     valence basis states
      valence      2  s   2.
      valence      2  p   4.
  #     ion occupancy
      ion_occ      2  s   1.
      ion_occ      2  p   3.
  ################################################################################
  #
  #  Suggested additional basis functions. For production calculations,
  #  uncomment them one after another (the most important basis functions are
  #  listed first).
  #
  #  Constructed for dimers: 1.0 A, 1.208 A, 1.5 A, 2.0 A, 3.0 A
  #
  ################################################################################
  #  "First tier" - improvements: -699.05 meV to -159.38 meV
       hydro 2 p 1.8
       hydro 3 d 7.6
       hydro 3 s 6.4
  #  "Second tier" - improvements: -49.91 meV to -5.39 meV
       hydro 4 f 11.6
       hydro 3 p 6.2
       hydro 3 d 5.6
       hydro 5 g 17.6
       hydro 1 s 0.75
  #  "Third tier" - improvements: -2.83 meV to -0.50 meV
  #     ionic 2 p auto
  #     hydro 4 f 10.8
  #     hydro 4 d 4.7
  #     hydro 2 s 6.8
  #  "Fourth tier" - improvements: -0.40 meV to -0.12 meV
  #     hydro 3 p 5
  #     hydro 3 s 3.3
  #     hydro 5 g 15.6
  #     hydro 4 f 17.6
  #     hydro 4 d 14
  # Further basis functions - -0.08 meV and below
  #     hydro 3 s 2.1
  #     hydro 4 d 11.6
  #     hydro 3 p 16
  #     hydro 2 s 17.2
  ################################################################################
  #
  # For methods that use the localized form of the "resolution of identity" for
  # the two-electron Coulomb operator (RI_method LVL), particularly Hartree-Fock and
  # hybrid density functional calculations, the highest accuracy can be obtained by
  # uncommenting the line beginning with "for_aux"  below, thus adding an extra g radial
  # function to the construction of the product basis set for the expansion.
  # See Ref. New J. Phys. 17, 093020 (2015) for more information, particularly Figs. 1 and 6.
  #
  ################################################################################
  #
  # for_aux hydro 5 g 6.0
  
  -----------------------------------------------------------------------
  Completed first pass over input file control.in .
  -----------------------------------------------------------------------
  
  
  -----------------------------------------------------------------------
  Parsing geometry.in (first pass over file, find array dimensions only).
  The contents of geometry.in will be repeated verbatim below
  unless switched off by setting 'verbatim_writeout .false.' .
  in the first line of geometry.in .
  -----------------------------------------------------------------------
  
  #
  # This is the geometry file that corresponds to the current relaxation step.
  # If you do not want this file to be written, set the "write_restart_geometry" flag to .false.
  #
  atom      -0.04560476     -0.63010403      0.05410496 C
  atom       0.01413747     -0.80441962      1.55818635 C
  atom       1.08591934     -0.90746812      2.15367943 O
  atom       0.91366432     -0.95651119     -0.35741182 H
  atom      -0.17568107      0.43542849     -0.18306086 H
  atom      -0.86527822     -1.17929123     -0.42454433 H
  atom      -1.16270501     -0.81891740      2.27418195 N
  atom      -2.55194127     -0.89532150      1.81544280 C
  atom      -2.84062276     -2.16919536      0.97999466 C
  atom      -3.18061024     -2.09880172     -0.19922792 O
  atom      -1.01707835     -0.97592901      3.27051658 H
  atom      -3.13475410     -0.98402602      2.74234262 H
  atom      -3.04753845      0.35773311      1.09246004 C
  atom      -2.58919737      0.47287233      0.10549213 H
  atom      -2.81672613      1.23937864      1.70270541 H
  atom      -4.13282765      0.30418522      0.94087963 H
  atom      -2.74529375     -3.40777712      1.57894277 N
  atom      -2.26379663     -3.86012639      2.89483694 C
  atom      -2.82557732     -2.99220648      4.04921532 C
  atom      -2.10271891     -2.37364307      4.82739731 O
  atom      -2.89400247     -4.14485612      0.89373921 H
  atom      -2.73531297     -4.84845670      3.02704648 H
  atom      -0.75152431     -4.05629043      2.98664996 C
  atom      -0.49119108     -4.50532779      3.95327625 H
  atom      -0.19691044     -3.11843181      2.89339566 H
  atom      -0.42227836     -4.73564692      2.18970099 H
  atom      -4.18633264     -2.99934144      4.13339545 N
  atom      -4.91971637     -2.20173831      5.09894177 C
  atom      -4.70015426     -3.46246033      3.39164812 H
  atom      -5.69448278     -2.80498682      5.58900829 H
  atom      -5.39566668     -1.32812437      4.62790018 H
  atom      -4.20732975     -1.84951045      5.85206868 H
  
  -----------------------------------------------------------------------
  Completed first pass over input file geometry.in .
  -----------------------------------------------------------------------
  

  Basic array size parameters:
  | Number of species                 :        4
  | Number of atoms                   :       32
  | Max. basis fn. angular momentum   :        4
  | Max. atomic/ionic basis occupied n:        2
  | Max. number of basis fn. types    :        2
  | Max. radial fns per species/type  :        8
  | Max. logarithmic grid size        :     1301
  | Max. radial integration grid size :       73
  | Max. angular integration grid size:      434
  | Max. angular grid division number :        8
  | Radial grid for Hartree potential :     1301
  | Number of spin channels           :        1

------------------------------------------------------------
          Reading file control.in.
------------------------------------------------------------
  XC: Using PBE gradient-corrected functionals.
  Spin treatment: No spin polarisation.
  Charge =   0.000000E+00: Neutral system requested explicitly.
  Occupation type: Gaussian broadening, width =   0.500000E-01 eV.
  Using pulay charge density mixing.
  Pulay mixing - number of memorized iterations:   10
  Charge density mixing - mixing parameter:     0.5000
  Convergence accuracy of self-consistent charge density:  0.1000E-03
  Convergence accuracy of sum of eigenvalues:  0.1000E-01
  Convergence accuracy of total energy:  0.1000E-04
  Convergence accuracy of forces:  0.1000E-03
  Maximum number of s.-c. iterations  :  1000
  Fitting ESP-charges to Potential. 
  | Esp charge output options: 
  | ESP Grid method: 3, cubic grid
  | Number of points in x, ,y, z:  0080 0080 0080
  |
 
  Reading configuration options for species H                   .
  | Found nuclear charge :   1.0000
  | Found atomic mass :    1.00794000000000      amu
  | Found l_max for Hartree potential  :   6
  | Found cutoff potl. onset [A], width [A], scale factor :    4.00000    2.00000    1.00000
  | Threshold for basis-dependent cutoff potential is   0.100000E-03
  | Found data for basic radial integration grid :    24 points, outermost radius =    7.000 A
  | Found multiplier for basic radial grid :   2
  | Found angular grid specification: user-specified.
  | Specified grid contains     6 separate shells.
  | Check grid settings after all constraints further below.
  | Found free-atom valence shell :  1 s   1.000
  | No ionic wave fns used. Skipping ion_occ.
  | Found hydrogenic basis function :  2 s   2.100
  | Found hydrogenic basis function :  2 p   3.500
  | Found hydrogenic basis function :  1 s   0.850
  | Found hydrogenic basis function :  2 p   3.700
  | Found hydrogenic basis function :  2 s   1.200
  | Found hydrogenic basis function :  3 d   7.000
  Species H                   : Missing cutoff potential type.
  Defaulting to exp(1/x)/(1-x)^2 type cutoff potential.
  Species H : No 'logarithmic' tag. Using default grid for free atom:
  | Default logarithmic grid data [bohr] : 0.1000E-03 0.1000E+03 0.1012E+01
  Species H : On-site basis accuracy parameter (for Gram-Schmidt orthonormalisation) not specified.
  Using default value basis_acc =  0.1000000E-03.
  Species H                   : Using default innermost maximum threshold i_radial=  2 for radial functions.
  Species H                   : Default cutoff onset for free atom density etc. : 0.40000000E+01 AA.
  Species H                   : Basic radial grid will be enhanced according to radial_multiplier =   2, to contain    49 grid points.
 
  Reading configuration options for species C                   .
  | Found nuclear charge :   6.0000
  | Found atomic mass :    12.0107000000000      amu
  | Found l_max for Hartree potential  :   6
  | Found cutoff potl. onset [A], width [A], scale factor :    4.00000    2.00000    1.00000
  | Threshold for basis-dependent cutoff potential is   0.100000E-03
  | Found data for basic radial integration grid :    34 points, outermost radius =    7.000 A
  | Found multiplier for basic radial grid :   2
  | Found angular grid specification: user-specified.
  | Specified grid contains     6 separate shells.
  | Check grid settings after all constraints further below.
  | Found free-atom valence shell :  2 s   2.000
  | Found free-atom valence shell :  2 p   2.000
  | No ionic wave fns used. Skipping ion_occ.
  | No ionic wave fns used. Skipping ion_occ.
  | Found hydrogenic basis function :  2 p   1.700
  | Found hydrogenic basis function :  3 d   6.000
  | Found hydrogenic basis function :  2 s   4.900
  | Found hydrogenic basis function :  4 f   9.800
  | Found hydrogenic basis function :  3 p   5.200
  | Found hydrogenic basis function :  3 s   4.300
  | Found hydrogenic basis function :  5 g  14.400
  | Found hydrogenic basis function :  3 d   6.200
  Species C                   : Missing cutoff potential type.
  Defaulting to exp(1/x)/(1-x)^2 type cutoff potential.
  Species C : No 'logarithmic' tag. Using default grid for free atom:
  | Default logarithmic grid data [bohr] : 0.1000E-03 0.1000E+03 0.1012E+01
  Species C : On-site basis accuracy parameter (for Gram-Schmidt orthonormalisation) not specified.
  Using default value basis_acc =  0.1000000E-03.
  Species C                   : Using default innermost maximum threshold i_radial=  2 for radial functions.
  Species C                   : Default cutoff onset for free atom density etc. : 0.40000000E+01 AA.
  Species C                   : Basic radial grid will be enhanced according to radial_multiplier =   2, to contain    69 grid points.
 
  Reading configuration options for species N                   .
  | Found nuclear charge :   7.0000
  | Found atomic mass :    14.0067000000000      amu
  | Found l_max for Hartree potential  :   6
  | Found cutoff potl. onset [A], width [A], scale factor :    4.00000    2.00000    1.00000
  | Threshold for basis-dependent cutoff potential is   0.100000E-03
  | Found data for basic radial integration grid :    35 points, outermost radius =    7.000 A
  | Found multiplier for basic radial grid :   2
  | Found angular grid specification: user-specified.
  | Specified grid contains     6 separate shells.
  | Check grid settings after all constraints further below.
  | Found free-atom valence shell :  2 s   2.000
  | Found free-atom valence shell :  2 p   3.000
  | No ionic wave fns used. Skipping ion_occ.
  | No ionic wave fns used. Skipping ion_occ.
  | Found hydrogenic basis function :  2 p   1.800
  | Found hydrogenic basis function :  3 d   6.800
  | Found hydrogenic basis function :  3 s   5.800
  | Found hydrogenic basis function :  4 f  10.800
  | Found hydrogenic basis function :  3 p   5.800
  | Found hydrogenic basis function :  1 s   0.800
  | Found hydrogenic basis function :  5 g  16.000
  | Found hydrogenic basis function :  3 d   4.900
  Species N                   : Missing cutoff potential type.
  Defaulting to exp(1/x)/(1-x)^2 type cutoff potential.
  Species N : No 'logarithmic' tag. Using default grid for free atom:
  | Default logarithmic grid data [bohr] : 0.1000E-03 0.1000E+03 0.1012E+01
  Species N : On-site basis accuracy parameter (for Gram-Schmidt orthonormalisation) not specified.
  Using default value basis_acc =  0.1000000E-03.
  Species N                   : Using default innermost maximum threshold i_radial=  2 for radial functions.
  Species N                   : Default cutoff onset for free atom density etc. : 0.40000000E+01 AA.
  Species N                   : Basic radial grid will be enhanced according to radial_multiplier =   2, to contain    71 grid points.
 
  Reading configuration options for species O                   .
  | Found nuclear charge :   8.0000
  | Found atomic mass :    15.9994000000000      amu
  | Found l_max for Hartree potential  :   6
  | Found cutoff potl. onset [A], width [A], scale factor :    4.00000    2.00000    1.00000
  | Threshold for basis-dependent cutoff potential is   0.100000E-03
  | Found data for basic radial integration grid :    36 points, outermost radius =    7.000 A
  | Found multiplier for basic radial grid :   2
  | Found angular grid specification: user-specified.
  | Specified grid contains     6 separate shells.
  | Check grid settings after all constraints further below.
  | Found free-atom valence shell :  2 s   2.000
  | Found free-atom valence shell :  2 p   4.000
  | No ionic wave fns used. Skipping ion_occ.
  | No ionic wave fns used. Skipping ion_occ.
  | Found hydrogenic basis function :  2 p   1.800
  | Found hydrogenic basis function :  3 d   7.600
  | Found hydrogenic basis function :  3 s   6.400
  | Found hydrogenic basis function :  4 f  11.600
  | Found hydrogenic basis function :  3 p   6.200
  | Found hydrogenic basis function :  3 d   5.600
  | Found hydrogenic basis function :  5 g  17.600
  | Found hydrogenic basis function :  1 s   0.750
  Species O                   : Missing cutoff potential type.
  Defaulting to exp(1/x)/(1-x)^2 type cutoff potential.
  Species O : No 'logarithmic' tag. Using default grid for free atom:
  | Default logarithmic grid data [bohr] : 0.1000E-03 0.1000E+03 0.1012E+01
  Species O : On-site basis accuracy parameter (for Gram-Schmidt orthonormalisation) not specified.
  Using default value basis_acc =  0.1000000E-03.
  Species O                   : Using default innermost maximum threshold i_radial=  2 for radial functions.
  Species O                   : Default cutoff onset for free atom density etc. : 0.40000000E+01 AA.
  Species O                   : Basic radial grid will be enhanced according to radial_multiplier =   2, to contain    73 grid points.
 
  Finished reading input file 'control.in'. Consistency checks are next.
 
  Target number of points in a grid batch is not set. Defaulting to  100
  Method for grid partitioning is not set. Defaulting to parallel hash+maxmin partitioning.
  Batch size limit is not set. Defaulting to    200
  By default, will store active basis functions for each batch.
  If in need of memory, prune_basis_once .false. can be used to disable this option.
  communication_type for Hartree potential was not specified.
  Defaulting to calc_hartree .
  Pulay mixer: Number of initial linear mixing iterations not set.
  Defaulting to    0 iterations.
  Work space size for distributed Hartree potential not set.
  Defaulting to   0.200000E+03 MB.
  Algorithm-dependent basis array size parameters:
  | n_max_pulay                         :       10
  Geometry relaxation not requested: no relaxation will be performed.
  Handling of forces: Unphysical translation and rotation will be removed from forces.
  No accuracy limit for integral partition fn. given. Defaulting to  0.1000E-14.
  No threshold value for u(r) in integrations given. Defaulting to  0.1000E-05.
  No accuracy for occupation numbers given. Defaulting to  0.1000E-07.
  No threshold value for occupation numbers given. Defaulting to  0.0000E+00.
  No accuracy for fermi level given. Defaulting to  0.1000E-19.
  Maximum # of iterations to find E_F not set. Defaulting to  200.
  Preferred method for the eigenvalue solver ('KS_method') not specified in 'control.in'.
  Calling blacs routine to test compilation state
  Since scalapack support is enabled, defaulting to 'elpa'.
  Preferred method for the MBD eigenvalue solver ('mbd_eigensolver') not specified in 'control.in'.
  Calling blacs routine to test compilation state
  Since scalapack support is enabled, defaulting to 'scaLAPACK'.
  Will not use alltoall communication since running on < 1024 CPUs.
  Threshold for basis singularities not set.
  Default threshold for basis singularities:  0.1000E-04
  partition_type (choice of integration weights) for integrals was not specified.
  | Using a version of the partition function of Stratmann and coworkers ('stratmann_smoother').
  | At each grid point, the set of atoms used to build the partition table is smoothly restricted to
  | only those atoms whose free-atom density would be non-zero at that grid point.
  Partitioning for Hartree potential was not defined. Using partition_type for integrals.
  | Adjusted default value of keyword multip_moments_threshold to:       0.10000000E-11
  | This value may affect high angular momentum components of the Hartree potential in periodic systems.
  No q(lm)/r^(l+1) cutoff set for long-range Hartree potential.
  | Using default value of  0.100000E-09 .
  | Verify using the multipole_threshold keyword.
  Defaulting to new monopole extrapolation.
  Density update method: automatic selection selected.
------------------------------------------------------------


------------------------------------------------------------
          Reading geometry description geometry.in.
------------------------------------------------------------
 * Warning! You did not set the 'relativistic' flag in input file 'control.in'.
 * Since you are not attempting to treat any elements beyond Ca(Z=20), FHI-aims
 * will default to 'relativistic none'.
 * You must ensure that this is really what you want!!
 * For example, DO NOT compute total-energy differences between results from
 * different settings of the 'relativistic' flag.
  Input structure read successfully.
  The structure contains       32 atoms,  and a total of        116.000 electrons.

  Input geometry:
  | No unit cell requested.
  | Atomic structure:
  |       Atom                x [A]            y [A]            z [A]
  |    1: Species C             -0.045605        -0.630104         0.054105
  |    2: Species C              0.014137        -0.804420         1.558186
  |    3: Species O              1.085919        -0.907468         2.153679
  |    4: Species H              0.913664        -0.956511        -0.357412
  |    5: Species H             -0.175681         0.435428        -0.183061
  |    6: Species H             -0.865278        -1.179291        -0.424544
  |    7: Species N             -1.162705        -0.818917         2.274182
  |    8: Species C             -2.551941        -0.895321         1.815443
  |    9: Species C             -2.840623        -2.169195         0.979995
  |   10: Species O             -3.180610        -2.098802        -0.199228
  |   11: Species H             -1.017078        -0.975929         3.270517
  |   12: Species H             -3.134754        -0.984026         2.742343
  |   13: Species C             -3.047538         0.357733         1.092460
  |   14: Species H             -2.589197         0.472872         0.105492
  |   15: Species H             -2.816726         1.239379         1.702705
  |   16: Species H             -4.132828         0.304185         0.940880
  |   17: Species N             -2.745294        -3.407777         1.578943
  |   18: Species C             -2.263797        -3.860126         2.894837
  |   19: Species C             -2.825577        -2.992206         4.049215
  |   20: Species O             -2.102719        -2.373643         4.827397
  |   21: Species H             -2.894002        -4.144856         0.893739
  |   22: Species H             -2.735313        -4.848457         3.027046
  |   23: Species C             -0.751524        -4.056290         2.986650
  |   24: Species H             -0.491191        -4.505328         3.953276
  |   25: Species H             -0.196910        -3.118432         2.893396
  |   26: Species H             -0.422278        -4.735647         2.189701
  |   27: Species N             -4.186333        -2.999341         4.133395
  |   28: Species C             -4.919716        -2.201738         5.098942
  |   29: Species H             -4.700154        -3.462460         3.391648
  |   30: Species H             -5.694483        -2.804987         5.589008
  |   31: Species H             -5.395667        -1.328124         4.627900
  |   32: Species H             -4.207330        -1.849510         5.852069
  |

  | The smallest distance between any two atoms is         1.01423906 AA.
  |
  | The first atom of this pair is atom number                     27 .
  | The second atom of this pair is atom number                    29 .

  Number of empty states per atom not set in control.in - providing a guess from actual geometry.
  | Total number of empty states used during s.c.f. cycle:       71
  If you use a very high smearing, use empty_states (per atom!) in control.in to increase this value.

  Structure-dependent array size parameters: 
  | Maximum number of distinct radial functions  :       40
  | Maximum number of basis functions            :      840
  | Number of Kohn-Sham states (occupied + empty):      129
------------------------------------------------------------

------------------------------------------------------------
          Preparing all fixed parts of the calculation.
------------------------------------------------------------
  Determining machine precision:
    2.225073858507201E-308
  Setting up grids for atomic and cluster calculations.

  Creating wave function, potential, and density for free atoms.

  Species: H

  List of occupied orbitals and eigenvalues:
    n    l              occ      energy [Ha]    energy [eV]
    1    0           1.0000        -0.238382        -6.4867


  Species: C

  List of occupied orbitals and eigenvalues:
    n    l              occ      energy [Ha]    energy [eV]
    1    0           2.0000       -10.041232      -273.2358
    2    0           2.0000        -0.504327       -13.7234
    2    1           2.0000        -0.193750        -5.2722


  Species: N

  List of occupied orbitals and eigenvalues:
    n    l              occ      energy [Ha]    energy [eV]
    1    0           2.0000       -14.129007      -384.4699
    2    0           2.0000        -0.681802       -18.5528
    2    1           3.0000        -0.260543        -7.0897


  Species: O

  List of occupied orbitals and eigenvalues:
    n    l              occ      energy [Ha]    energy [eV]
    1    0           2.0000       -18.898576      -514.2564
    2    0           2.0000        -0.878795       -23.9132
    2    1           4.0000        -0.332075        -9.0362

  Creating fixed part of basis set: Ionic, confined, hydrogenic.
 
  H                    hydrogenic:
 
  List of hydrogenic basis orbitals: 
    n    l      effective z      eigenvalue [eV]  inner max. [A]     outer max. [A]     outer radius [A]   
    2    0         2.100000       -14.9965           0.193243           1.317208           5.373006
    2    1         3.500000       -41.6672           0.602369           0.602369           4.056063
    1    0         0.850000        -9.8292           0.624871           0.624871           5.373006
    2    1         3.700000       -46.5653           0.573622           0.573622           3.910002
    2    0         1.200000        -4.5995           0.334980           2.228188           5.505995
    3    2         7.000000       -74.0753           0.680699           0.680699           3.769201
 
 
  C                    hydrogenic:
 
  List of hydrogenic basis orbitals: 
    n    l      effective z      eigenvalue [eV]  inner max. [A]     outer max. [A]     outer radius [A]   
    2    1         1.700000        -9.8152           1.245706           1.245706           5.401630
    3    2         6.000000       -54.4226           0.792453           0.792453           4.178599
    2    0         4.900000       -81.6681           0.082559           0.562749           3.353238
    4    3         9.800000       -81.6681           0.863254           0.863254           4.028125
    3    1         5.200000       -40.8774           0.305389           1.215618           4.898362
    3    0         4.300000       -27.9508           0.091041           1.610311           5.401630
    5    4        14.400000      -112.8510           0.917666           0.917666           3.883070
    3    2         6.200000       -58.1113           0.763917           0.763917           4.077671
 
 
  N                    hydrogenic:
 
  List of hydrogenic basis orbitals: 
    n    l      effective z      eigenvalue [eV]  inner max. [A]     outer max. [A]     outer radius [A]   
    2    1         1.800000       -11.0118           1.177451           1.177451           5.427479
    3    2         6.800000       -69.9029           0.704619           0.704619           3.854246
    3    0         5.800000       -50.8549           0.067388           1.191934           4.629968
    4    3        10.800000       -99.1854           0.786571           0.786571           3.761152
    3    1         5.800000       -50.8549           0.274880           1.094176           4.518138
    1    0         0.800000        -8.7059           0.662839           0.662839           5.361532
    5    4        16.000000      -139.3222           0.825990           0.825990           3.625711
    3    2         4.900000       -36.2967           0.968267           0.968267           4.862000
 
 
  O                    hydrogenic:
 
  List of hydrogenic basis orbitals: 
    n    l      effective z      eigenvalue [eV]  inner max. [A]     outer max. [A]     outer radius [A]   
    2    1         1.800000       -11.0118           1.178562           1.178562           5.432602
    3    2         7.600000       -87.3182           0.624125           0.624125           3.541477
    3    0         6.400000       -61.9209           0.061167           1.081902           4.306578
    4    3        11.600000      -114.4238           0.731631           0.731631           3.585037
    3    1         6.200000       -58.1113           0.255680           1.030270           4.306578
    3    2         5.600000       -47.4081           0.847233           0.847233           4.413171
    5    4        17.600000      -168.5799           0.749740           0.749740           3.372465
    1    0         0.750000        -7.6499           0.705284           0.705284           5.366593
 

  Adding cutoff potential to free-atom effective potential.
  Creating atomic-like basis functions for current effective potential.

  Species H                   :

  List of atomic basis orbitals and eigenvalues:
    n    l      energy [Ha]    energy [eV]    outer radius [A]
    1    0        -0.238382        -6.4867       5.373006


  Species C                   :

  List of atomic basis orbitals and eigenvalues:
    n    l      energy [Ha]    energy [eV]    outer radius [A]
    1    0       -10.041232      -273.2358       1.934409
    2    0        -0.504327       -13.7234       5.271162
    2    1        -0.193750        -5.2722       5.401630


  Species N                   :

  List of atomic basis orbitals and eigenvalues:
    n    l      energy [Ha]    energy [eV]    outer radius [A]
    1    0       -14.129007      -384.4699       1.637919
    2    0        -0.681802       -18.5528       5.168461
    2    1        -0.260543        -7.0897       5.361532


  Species O                   :

  List of atomic basis orbitals and eigenvalues:
    n    l      energy [Ha]    energy [eV]    outer radius [A]
    1    0       -18.898576      -514.2564       1.415765
    2    0        -0.878795       -23.9132       5.048385
    2    1        -0.332075        -9.0362       5.301386

  Assembling full basis from fixed parts.
  | Species H :   atomic orbital   1 s accepted.
  | Species H :    hydro orbital   2 s accepted.
  | Species H :    hydro orbital   1 s accepted.
  | Species H :    hydro orbital   2 s accepted.
  | Species H :    hydro orbital   2 p accepted.
  | Species H :    hydro orbital   2 p accepted.
  | Species H :    hydro orbital   3 d accepted.
  | Species C :   atomic orbital   1 s accepted.
  | Species C :    hydro orbital   2 s accepted.
  | Species C :   atomic orbital   2 s accepted.
  | Species C :    hydro orbital   3 s accepted.
  | Species C :    hydro orbital   3 p accepted.
  | Species C :   atomic orbital   2 p accepted.
  | Species C :    hydro orbital   2 p accepted.
  | Species C :    hydro orbital   3 d accepted.
  | Species C :    hydro orbital   3 d accepted.
  | Species C :    hydro orbital   4 f accepted.
  | Species C :    hydro orbital   5 g accepted.
  | Species N :   atomic orbital   1 s accepted.
  | Species N :    hydro orbital   3 s accepted.
  | Species N :   atomic orbital   2 s accepted.
  | Species N :    hydro orbital   1 s accepted.
  | Species N :    hydro orbital   3 p accepted.
  | Species N :   atomic orbital   2 p accepted.
  | Species N :    hydro orbital   2 p accepted.
  | Species N :    hydro orbital   3 d accepted.
  | Species N :    hydro orbital   3 d accepted.
  | Species N :    hydro orbital   4 f accepted.
  | Species N :    hydro orbital   5 g accepted.
  | Species O :   atomic orbital   1 s accepted.
  | Species O :    hydro orbital   3 s accepted.
  | Species O :   atomic orbital   2 s accepted.
  | Species O :    hydro orbital   1 s accepted.
  | Species O :    hydro orbital   3 p accepted.
  | Species O :   atomic orbital   2 p accepted.
  | Species O :    hydro orbital   2 p accepted.
  | Species O :    hydro orbital   3 d accepted.
  | Species O :    hydro orbital   3 d accepted.
  | Species O :    hydro orbital   4 f accepted.
  | Species O :    hydro orbital   5 g accepted.
 
  Basis size parameters after reduction:
  | Total number of radial functions:       40
  | Total number of basis functions :      840
 
  Testing on-site integration grid accuracy.
  |  Species  Function  <phi|h_atom|phi> (log., in eV)  <phi|h_atom|phi> (rad., in eV)
           1        1                 -6.4869821809                 -6.4870742227
           1        2                 13.5044133542                 13.5041049177
           1        3                 32.7854418792                 32.7779770519
           1        4                 33.7995553101                 33.7152624900 ***
           1        5                 28.8558651799                 28.8558652046
           1        6                 59.6361831893                 59.6362535845
           1        7                 60.2733718049                 60.2733715484
           2        8               -273.2358277112               -273.2358261765
           2        9                -10.7624923123                -10.7625144012
           2       10                 17.4634079027                 17.4634252127
           2       11                 53.0363661832                 53.0366180446
           2       12                 15.0981351967                 15.0981317714
           2       13                  3.8522181899                  3.8522770949
           2       14                 12.1181835661                 12.1206868578
           2       15                 29.4320778347                 29.4320780959
           2       16                 54.8753777694                 54.8752901936
           2       17                 59.3533975461                 59.3533974833
           2       18                 93.4537491195                 93.4537492066
           3       19               -384.4698526889               -384.4698499465
           3       20                 12.5691022037                 12.5690910168
           3       21                -15.7489097511                -15.7489165588
           3       22                 27.0978334940                 27.0985589490
           3       23                 18.5949116966                 18.5949125562
           3       24                  1.2212828291                  1.2212855301
           3       25                 13.4428926797                 13.4434051125
           3       26                 35.9380614500                 35.9380613666
           3       27                 39.9231532098                 39.9231654735
           3       28                 72.9957335806                 72.9957336833
           3       29                116.4231321147                116.4231321431
           4       30               -514.2564144315               -514.2564099626
           4       31                 15.1726678541                 15.1726530877
           4       32                -21.5447785304                -21.5447874973
           4       33                 14.4944558459                 14.4944698284
           4       34                 20.8882174564                 20.8882178906
           4       35                 -2.4850315908                 -2.4850322289
           4       36                 13.8600193195                 13.8599826966
           4       37                 45.8243383616                 45.8243383675
           4       38                 52.1840606465                 52.1840622440
           4       39                 85.4074185510                 85.4074185819
           4       40                142.0983717302                142.0983717339
 * Note: Onsite integrals marked "***" above are less accurate than
 * onsite_accuracy_threshold =    0.03000 eV. Usually, this is harmless.
 * When in doubt, tighten the "radial" and/or "radial_multiplier" flags to check.

  Preparing densities etc. for the partition functions (integrals / Hartree potential).

  Preparations completed.
  max(cpu_time)          :      0.236 s.
  Wall clock time (cpu1) :      0.237 s.
------------------------------------------------------------

------------------------------------------------------------
          Begin self-consistency loop: Initialization.

          Date     :  20170309, Time     :  183326.473
------------------------------------------------------------

  Initializing index lists of integration centers etc. from given atomic structure:
  | Number of centers in hartree potential         :        32
  | Number of centers in hartree multipole         :        32
  | Number of centers in electron density summation:        32
  | Number of centers in basis integrals           :        32
  | Number of centers in integrals                 :        32
  | Number of centers in hamiltonian               :        32
  Using modified Scalapack Eigenvalue solver (ELPA)
  * Using 32 tasks for Scalapack Eigenvalue solver.
  Detailed listing of tasks and assigned k-points:
  (for non-periodic systems, the "k-point" denotes an internal label only)
   Task     0 k-point     1 on eos162
   Task     1 k-point     1 on eos162
   Task     2 k-point     1 on eos162
   Task     3 k-point     1 on eos162
   Task     4 k-point     1 on eos162
   Task     5 k-point     1 on eos162
   Task     6 k-point     1 on eos162
   Task     7 k-point     1 on eos162
   Task     8 k-point     1 on eos162
   Task     9 k-point     1 on eos162
   Task    10 k-point     1 on eos162
   Task    11 k-point     1 on eos162
   Task    12 k-point     1 on eos162
   Task    13 k-point     1 on eos162
   Task    14 k-point     1 on eos162
   Task    15 k-point     1 on eos162
   Task    16 k-point     1 on eos162
   Task    17 k-point     1 on eos162
   Task    18 k-point     1 on eos162
   Task    19 k-point     1 on eos162
   Task    20 k-point     1 on eos162
   Task    21 k-point     1 on eos162
   Task    22 k-point     1 on eos162
   Task    23 k-point     1 on eos162
   Task    24 k-point     1 on eos162
   Task    25 k-point     1 on eos162
   Task    26 k-point     1 on eos162
   Task    27 k-point     1 on eos162
   Task    28 k-point     1 on eos162
   Task    29 k-point     1 on eos162
   Task    30 k-point     1 on eos162
   Task    31 k-point     1 on eos162
  Tasks:    32 split into      8 X      4 BLACS grid
  Calculating blocksize based on n_basis =          840 max_nprow =            8 max_npcol =            4
  Scalapack blocksize set to:           16
  Required Scalapack workspace - INTEGER:            1 REAL:             1
  Partitioning the integration grid into batches with parallel hashing+maxmin method.
  | Number of batches:     5038
  | Maximal batch size:     200
  | Minimal batch size:      33
  | Average batch size:     104.750
  | Standard deviation of batch sizes:      29.217

  Integration load balanced across    32 MPI tasks.
  Work distribution over tasks is as follows:
  Task     0 has      16519 integration points.
  Task     1 has      16494 integration points.
  Task     2 has      16427 integration points.
  Task     3 has      16494 integration points.
  Task     4 has      16435 integration points.
  Task     5 has      16473 integration points.
  Task     6 has      16421 integration points.
  Task     7 has      16502 integration points.
  Task     8 has      16467 integration points.
  Task     9 has      16525 integration points.
  Task    10 has      16529 integration points.
  Task    11 has      16529 integration points.
  Task    12 has      16570 integration points.
  Task    13 has      16471 integration points.
  Task    14 has      16535 integration points.
  Task    15 has      16476 integration points.
  Task    16 has      16522 integration points.
  Task    17 has      16520 integration points.
  Task    18 has      16489 integration points.
  Task    19 has      16566 integration points.
  Task    20 has      16498 integration points.
  Task    21 has      16439 integration points.
  Task    22 has      16432 integration points.
  Task    23 has      16485 integration points.
  Task    24 has      16436 integration points.
  Task    25 has      16430 integration points.
  Task    26 has      16574 integration points.
  Task    27 has      16526 integration points.
  Task    28 has      16425 integration points.
  Task    29 has      16570 integration points.
  Task    30 has      16427 integration points.
  Task    31 has      16522 integration points.
  Initializing partition tables, free-atom densities, potentials, etc. across the integration grid (initialize_grid_storage).
  | initialize_grid_storage: Actual outermost partition radius vs. multipole_radius_free
  | (-- VB: in principle, multipole_radius_free should be larger, hence this output)
  | Species        1: Confinement radius =              6.000000000000000 AA, multipole_radius_free =              6.071692442739658 AA.
  | Species        1: outer_partition_radius set to              6.071692442739658 AA .
  | Species        2: Confinement radius =              6.000000000000000 AA, multipole_radius_free =              6.029870734432609 AA.
  | Species        2: outer_partition_radius set to              6.029870734432609 AA .
  | Species        3: Confinement radius =              6.000000000000000 AA, multipole_radius_free =              6.058726835495003 AA.
  | Species        3: outer_partition_radius set to              6.058726835495003 AA .
  | Species        4: Confinement radius =              6.000000000000000 AA, multipole_radius_free =              6.064445521808699 AA.
  | Species        4: outer_partition_radius set to              6.064445521808699 AA .
  | Original list of interatomic distances with          32 x         32 entries is created.
  | Net number of integration points:   527728
  | of which are non-zero points    :   411525
  Obtaining max. number of non-zero basis functions in each batch (get_n_compute_maxes).
  | Maximal number of non-zero basis functions:      809 in task     0
  | Maximal number of non-zero basis functions:      818 in task     1
  | Maximal number of non-zero basis functions:      815 in task     2
  | Maximal number of non-zero basis functions:      814 in task     3
  | Maximal number of non-zero basis functions:      809 in task     4
  | Maximal number of non-zero basis functions:      812 in task     5
  | Maximal number of non-zero basis functions:      813 in task     6
  | Maximal number of non-zero basis functions:      793 in task     7
  | Maximal number of non-zero basis functions:      812 in task     8
  | Maximal number of non-zero basis functions:      814 in task     9
  | Maximal number of non-zero basis functions:      785 in task    10
  | Maximal number of non-zero basis functions:      808 in task    11
  | Maximal number of non-zero basis functions:      803 in task    12
  | Maximal number of non-zero basis functions:      815 in task    13
  | Maximal number of non-zero basis functions:      778 in task    14
  | Maximal number of non-zero basis functions:      805 in task    15
  | Maximal number of non-zero basis functions:      805 in task    16
  | Maximal number of non-zero basis functions:      809 in task    17
  | Maximal number of non-zero basis functions:      807 in task    18
  | Maximal number of non-zero basis functions:      809 in task    19
  | Maximal number of non-zero basis functions:      808 in task    20
  | Maximal number of non-zero basis functions:      814 in task    21
  | Maximal number of non-zero basis functions:      806 in task    22
  | Maximal number of non-zero basis functions:      805 in task    23
  | Maximal number of non-zero basis functions:      802 in task    24
  | Maximal number of non-zero basis functions:      812 in task    25
  | Maximal number of non-zero basis functions:      810 in task    26
  | Maximal number of non-zero basis functions:      806 in task    27
  | Maximal number of non-zero basis functions:      795 in task    28
  | Maximal number of non-zero basis functions:      813 in task    29
  | Maximal number of non-zero basis functions:      812 in task    30
  | Maximal number of non-zero basis functions:      802 in task    31
  Selecting the method for density update.
  Loop over occupied states selected for charge density update.
  Integrating Hamiltonian matrix: batch-based integration.
  Time summed over all CPUs for integration: real work       24.047 s, elapsed       24.792 s
  Integrating overlap matrix.
  Time summed over all CPUs for integration: real work       14.729 s, elapsed       15.112 s
  Deallocating overlap matrix.

  Updating Kohn-Sham eigenvalues, eigenvectors, occupation numbers, and Fermi level.
  Solving generalized eigenproblem
  Solving real symmetric generalised eigenvalue problem by standard ScaLAPACK.
  Transforming overlap matrix with ScaLAPACK and checking for singularities.
  : Overlap matrix is nonsingular, using Cholesky decomposition
  | Lowest eigenvalue:  0.924987E-04
  Factoring overlap matrix with Cholesky decomposition
  Using Cholesky factor for transformation
  Using 1-stage real ELPA solver
  Determining occupation numbers for Kohn-Sham eigenstates.
  | Chemical potential (Fermi level) in eV                 : -.95623999E+01
  | Error in electron count due to remaining E_F inaccuracy: 0.00000000E+00
  | Maximum occupation number of highest empty state:  0.00E+00

  Writing Kohn-Sham eigenvalues.

  State    Occupation    Eigenvalue [Ha]    Eigenvalue [eV]
      1       2.00000         -18.974789         -516.33028
      2       2.00000         -18.974450         -516.32105
      3       2.00000         -18.973720         -516.30119
      4       2.00000         -14.256174         -387.93024
      5       2.00000         -14.251551         -387.80443
      6       2.00000         -14.250433         -387.77400
      7       2.00000         -10.171640         -276.78440
      8       2.00000         -10.171594         -276.78315
      9       2.00000         -10.171338         -276.77619
     10       2.00000         -10.166785         -276.65230
     11       2.00000         -10.147919         -276.13892
     12       2.00000         -10.146998         -276.11387
     13       2.00000         -10.135336         -275.79652
     14       2.00000         -10.134613         -275.77686
     15       2.00000         -10.132098         -275.70842
     16       2.00000          -1.133919          -30.85551
     17       2.00000          -1.131216          -30.78195
     18       2.00000          -1.130188          -30.75397
     19       2.00000          -1.018366          -27.71114
     20       2.00000          -1.010521          -27.49767
     21       2.00000          -0.999137          -27.18789
     22       2.00000          -0.881418          -23.98460
     23       2.00000          -0.875941          -23.83557
     24       2.00000          -0.849212          -23.10823
     25       2.00000          -0.823658          -22.41287
     26       2.00000          -0.775520          -21.10297
     27       2.00000          -0.756886          -20.59591
     28       2.00000          -0.702606          -19.11889
     29       2.00000          -0.685099          -18.64250
     30       2.00000          -0.668833          -18.19988
     31       2.00000          -0.637975          -17.36018
     32       2.00000          -0.619122          -16.84715
     33       2.00000          -0.615323          -16.74378
     34       2.00000          -0.608560          -16.55977
     35       2.00000          -0.592155          -16.11337
     36       2.00000          -0.580731          -15.80249
     37       2.00000          -0.564114          -15.35032
     38       2.00000          -0.559596          -15.22738
     39       2.00000          -0.557693          -15.17560
     40       2.00000          -0.556358          -15.13927
     41       2.00000          -0.551416          -15.00480
     42       2.00000          -0.546053          -14.85885
     43       2.00000          -0.532816          -14.49867
     44       2.00000          -0.526055          -14.31468
     45       2.00000          -0.516920          -14.06610
     46       2.00000          -0.512557          -13.94738
     47       2.00000          -0.512010          -13.93250
     48       2.00000          -0.503697          -13.70630
     49       2.00000          -0.499172          -13.58317
     50       2.00000          -0.484644          -13.18783
     51       2.00000          -0.480181          -13.06640
     52       2.00000          -0.476710          -12.97194
     53       2.00000          -0.414131          -11.26908
     54       2.00000          -0.404774          -11.01446
     55       2.00000          -0.401325          -10.92061
     56       2.00000          -0.389767          -10.60609
     57       2.00000          -0.380981          -10.36703
     58       2.00000          -0.379103          -10.31593
     59       0.00000          -0.170605           -4.64239
     60       0.00000          -0.163833           -4.45813
     61       0.00000          -0.157805           -4.29410
     62       0.00000          -0.081509           -2.21796
     63       0.00000          -0.064955           -1.76750
     64       0.00000          -0.058321           -1.58700
     65       0.00000          -0.055914           -1.52149
     66       0.00000          -0.042833           -1.16555
     67       0.00000          -0.030061           -0.81799
     68       0.00000          -0.027117           -0.73790
     69       0.00000          -0.024590           -0.66914
     70       0.00000          -0.020434           -0.55605
     71       0.00000          -0.017683           -0.48117
     72       0.00000          -0.015773           -0.42920
     73       0.00000          -0.012922           -0.35163
     74       0.00000          -0.008779           -0.23889
     75       0.00000          -0.004557           -0.12401
     76       0.00000           0.001540            0.04190
     77       0.00000           0.005810            0.15809
     78       0.00000           0.008599            0.23399
     79       0.00000           0.012012            0.32686
     80       0.00000           0.012984            0.35332
     81       0.00000           0.015533            0.42268
     82       0.00000           0.023411            0.63706
     83       0.00000           0.029330            0.79812
     84       0.00000           0.039442            1.07328
     85       0.00000           0.040842            1.11137
     86       0.00000           0.046992            1.27873
     87       0.00000           0.053820            1.46452
     88       0.00000           0.059926            1.63068
     89       0.00000           0.064396            1.75232
     90       0.00000           0.072697            1.97818
     91       0.00000           0.076854            2.09131
     92       0.00000           0.079850            2.17283
     93       0.00000           0.085130            2.31651
     94       0.00000           0.088557            2.40975
     95       0.00000           0.096816            2.63449
     96       0.00000           0.100273            2.72856
     97       0.00000           0.109380            2.97638
     98       0.00000           0.114956            3.12812
     99       0.00000           0.118628            3.22803
    100       0.00000           0.124277            3.38175
    101       0.00000           0.131702            3.58380
    102       0.00000           0.134240            3.65285
    103       0.00000           0.139128            3.78588
    104       0.00000           0.140298            3.81771
    105       0.00000           0.148590            4.04335
    106       0.00000           0.157381            4.28256
    107       0.00000           0.159011            4.32690
    108       0.00000           0.160012            4.35414
    109       0.00000           0.171178            4.65798
    110       0.00000           0.175085            4.76429
    111       0.00000           0.180163            4.90249
    112       0.00000           0.181871            4.94897
    113       0.00000           0.187344            5.09790
    114       0.00000           0.193164            5.25626
    115       0.00000           0.201444            5.48158
    116       0.00000           0.204143            5.55501
    117       0.00000           0.206968            5.63188
    118       0.00000           0.208901            5.68448
    119       0.00000           0.212896            5.79320
    120       0.00000           0.216530            5.89207
    121       0.00000           0.226146            6.15375
    122       0.00000           0.234645            6.38502
    123       0.00000           0.236277            6.42944
    124       0.00000           0.245289            6.67467
    125       0.00000           0.252506            6.87103
    126       0.00000           0.256318            6.97476
    127       0.00000           0.258531            7.03499
    128       0.00000           0.266168            7.24279
    129       0.00000           0.269923            7.34498

  Highest occupied state (VBM) at    -10.31592525 eV
  | Occupation number:      2.00000000

  Lowest unoccupied state (CBM) at    -4.64238551 eV
  | Occupation number:      0.00000000

  Overall HOMO-LUMO gap:      5.67353974 eV.
  Calculating total energy contributions from superposition of free atom densities.

  Total energy components:
  | Sum of eigenvalues            :        -437.81179127 Ha      -11913.46499092 eV
  | XC energy correction          :         -98.82129944 Ha       -2689.06437580 eV
  | XC potential correction       :         127.02439896 Ha        3456.50976107 eV
  | Free-atom electrostatic energy:        -333.66847293 Ha       -9079.58111242 eV
  | Hartree energy correction     :           0.00000000 Ha           0.00000000 eV
  | vdW energy correction         :           0.00000000 Ha           0.00000000 eV
  | Entropy correction            :          -0.00000000 Ha          -0.00000000 eV
  | ---------------------------
  | Total energy                  :        -743.27716468 Ha      -20225.60071807 eV
  | Total energy, T -> 0          :        -743.27716468 Ha      -20225.60071807 eV  <-- do not rely on this value for anything but (periodic) metals
  | Electronic free energy        :        -743.27716468 Ha      -20225.60071807 eV

  Derived energy quantities:
  | Kinetic energy                :         735.15613585 Ha       20004.61628005 eV
  | Electrostatic energy          :       -1379.61200108 Ha      -37541.15262232 eV
  | Energy correction for multipole
  | error in Hartree potential    :           0.00000000 Ha           0.00000000 eV
  | Sum of eigenvalues per atom                           :        -372.29578097 eV
  | Total energy (T->0) per atom                          :        -632.05002244 eV  <-- do not rely on this value for anything but (periodic) metals
  | Electronic free energy per atom                       :        -632.05002244 eV
  Initialize hartree_potential_storage
  Max. number of atoms included in rho_multipole:           32

  End scf initialization - timings             :  max(cpu_time)    wall_clock(cpu1)
  | Time for scf. initialization               :        2.036 s           2.035 s
  | Boundary condition initialization          :        0.000 s           0.001 s
  | Integration                                :        1.268 s           1.269 s
  | Solution of K.-S. eqns.                    :        0.076 s           0.075 s
  | Grid partitioning                          :        0.316 s           0.309 s
  | Preloading free-atom quantities on grid    :        0.028 s           0.027 s
  | Free-atom superposition energy             :        0.044 s           0.041 s
  | Total energy evaluation                    :        0.000 s           0.001 s
------------------------------------------------------------

------------------------------------------------------------
          Begin self-consistency iteration #    1

  Date     :  20170309, Time     :  183328.509
------------------------------------------------------------
  Evaluating new KS density.
  Integration grid: deviation in total charge (<rho> - N_e) =   4.263256E-14
  Pulay mixing of updated and previous charge densities.

  Evaluating partitioned Hartree potential by multipole expansion.
  | Analytical far-field extrapolation by fixed multipoles:
  | Hartree multipole sum: apparent total charge =   0.949556E-04
  Summing up the Hartree potential.
  Time summed over all CPUs for potential: real work        9.620 s, elapsed        9.874 s
  | RMS charge density error from multipole expansion :   0.106913E-01

  Integrating Hamiltonian matrix: batch-based integration.
  Time summed over all CPUs for integration: real work       23.926 s, elapsed       24.805 s

  Updating Kohn-Sham eigenvalues, eigenvectors, occupation numbers, and Fermi level.
  Solving generalized eigenproblem
  Solving real symmetric generalised eigenvalue problem by standard ScaLAPACK.
  Using Cholesky factor for transformation
  Using 2-stage real ELPA solver
  K-Point:    1, Trafo times: 1-stage=     0.021 s, 2-stage=     0.019 s ==> Using 2-stage solver
  Determining occupation numbers for Kohn-Sham eigenstates.
  | Chemical potential (Fermi level) in eV                 : -.48260585E+01
  | Error in electron count due to remaining E_F inaccuracy: 0.00000000E+00
  | Maximum occupation number of highest empty state:  0.00E+00

  Writing Kohn-Sham eigenvalues.

  State    Occupation    Eigenvalue [Ha]    Eigenvalue [eV]
      1       2.00000         -18.633384         -507.04018
      2       2.00000         -18.630400         -506.95898
      3       2.00000         -18.600718         -506.15128
      4       2.00000         -14.008305         -381.18538
      5       2.00000         -14.002547         -381.02869
      6       2.00000         -13.980428         -380.42680
      7       2.00000         -10.071093         -274.04838
      8       2.00000         -10.068213         -273.97001
      9       2.00000         -10.041856         -273.25281
     10       2.00000          -9.981810         -271.61886
     11       2.00000          -9.967983         -271.24262
     12       2.00000          -9.893404         -269.21321
     13       2.00000          -9.835912         -267.64878
     14       2.00000          -9.828166         -267.43800
     15       2.00000          -9.827912         -267.43110
     16       2.00000          -0.978655          -26.63055
     17       2.00000          -0.970620          -26.41192
     18       2.00000          -0.945931          -25.74010
     19       2.00000          -0.882100          -24.00317
     20       2.00000          -0.869263          -23.65384
     21       2.00000          -0.853243          -23.21792
     22       2.00000          -0.740473          -20.14929
     23       2.00000          -0.723262          -19.68097
     24       2.00000          -0.686831          -18.68961
     25       2.00000          -0.684031          -18.61342
     26       2.00000          -0.635768          -17.30014
     27       2.00000          -0.617348          -16.79888
     28       2.00000          -0.579057          -15.75695
     29       2.00000          -0.564746          -15.36752
     30       2.00000          -0.542373          -14.75872
     31       2.00000          -0.512712          -13.95161
     32       2.00000          -0.490209          -13.33926
     33       2.00000          -0.486553          -13.23978
     34       2.00000          -0.468673          -12.75325
     35       2.00000          -0.451688          -12.29105
     36       2.00000          -0.437054          -11.89286
     37       2.00000          -0.430132          -11.70448
     38       2.00000          -0.418418          -11.38573
     39       2.00000          -0.410057          -11.15822
     40       2.00000          -0.401097          -10.91442
     41       2.00000          -0.393963          -10.72029
     42       2.00000          -0.383125          -10.42537
     43       2.00000          -0.380133          -10.34395
     44       2.00000          -0.376204          -10.23703
     45       2.00000          -0.372469          -10.13539
     46       2.00000          -0.368390          -10.02441
     47       2.00000          -0.368168          -10.01836
     48       2.00000          -0.362462           -9.86310
     49       2.00000          -0.350598           -9.54027
     50       2.00000          -0.345625           -9.40492
     51       2.00000          -0.336591           -9.15911
     52       2.00000          -0.325541           -8.85843
     53       2.00000          -0.253225           -6.89061
     54       2.00000          -0.241674           -6.57627
     55       2.00000          -0.237768           -6.47000
     56       2.00000          -0.225735           -6.14255
     57       2.00000          -0.212064           -5.77056
     58       2.00000          -0.197795           -5.38227
     59       0.00000          -0.067605           -1.83963
     60       0.00000          -0.064097           -1.74418
     61       0.00000          -0.046109           -1.25468
     62       0.00000          -0.036230           -0.98588
     63       0.00000          -0.024579           -0.66884
     64       0.00000          -0.011044           -0.30051
     65       0.00000          -0.005407           -0.14712
     66       0.00000           0.006040            0.16436
     67       0.00000           0.008039            0.21875
     68       0.00000           0.017836            0.48534
     69       0.00000           0.024956            0.67909
     70       0.00000           0.034450            0.93744
     71       0.00000           0.036693            0.99848
     72       0.00000           0.042386            1.15339
     73       0.00000           0.050068            1.36242
     74       0.00000           0.054206            1.47502
     75       0.00000           0.055297            1.50471
     76       0.00000           0.059028            1.60622
     77       0.00000           0.071061            1.93366
     78       0.00000           0.075930            2.06616
     79       0.00000           0.083462            2.27112
     80       0.00000           0.088417            2.40595
     81       0.00000           0.093741            2.55084
     82       0.00000           0.097411            2.65068
     83       0.00000           0.100847            2.74418
     84       0.00000           0.104194            2.83525
     85       0.00000           0.113199            3.08029
     86       0.00000           0.116963            3.18272
     87       0.00000           0.123561            3.36226
     88       0.00000           0.125618            3.41824
     89       0.00000           0.129030            3.51108
     90       0.00000           0.129485            3.52347
     91       0.00000           0.140237            3.81603
     92       0.00000           0.145608            3.96220
     93       0.00000           0.153299            4.17149
     94       0.00000           0.157227            4.27837
     95       0.00000           0.160455            4.36620
     96       0.00000           0.164116            4.46581
     97       0.00000           0.168205            4.57710
     98       0.00000           0.176408            4.80032
     99       0.00000           0.181534            4.93978
    100       0.00000           0.189744            5.16319
    101       0.00000           0.193594            5.26797
    102       0.00000           0.197910            5.38540
    103       0.00000           0.202772            5.51771
    104       0.00000           0.206881            5.62951
    105       0.00000           0.213588            5.81203
    106       0.00000           0.215125            5.85384
    107       0.00000           0.221684            6.03232
    108       0.00000           0.224675            6.11373
    109       0.00000           0.232144            6.31695
    110       0.00000           0.237362            6.45895
    111       0.00000           0.243654            6.63015
    112       0.00000           0.245357            6.67651
    113       0.00000           0.248508            6.76225
    114       0.00000           0.257376            7.00356
    115       0.00000           0.261899            7.12663
    116       0.00000           0.265419            7.22241
    117       0.00000           0.268479            7.30569
    118       0.00000           0.277512            7.55148
    119       0.00000           0.279514            7.60595
    120       0.00000           0.287686            7.82834
    121       0.00000           0.293213            7.97874
    122       0.00000           0.294750            8.02056
    123       0.00000           0.307566            8.36930
    124       0.00000           0.315688            8.59032
    125       0.00000           0.317664            8.64406
    126       0.00000           0.328797            8.94703
    127       0.00000           0.331945            9.03268
    128       0.00000           0.336334            9.15212
    129       0.00000           0.343778            9.35469

  Highest occupied state (VBM) at     -5.38226816 eV
  | Occupation number:      2.00000000

  Lowest unoccupied state (CBM) at    -1.83963176 eV
  | Occupation number:      0.00000000

  Overall HOMO-LUMO gap:      3.54263640 eV.

  Total energy components:
  | Sum of eigenvalues            :        -417.76791144 Ha      -11368.04326989 eV
  | XC energy correction          :        -100.74211098 Ha       -2741.33231735 eV
  | XC potential correction       :         129.51471607 Ha        3524.27473731 eV
  | Free-atom electrostatic energy:        -333.66847293 Ha       -9079.58111242 eV
  | Hartree energy correction     :         -20.04573432 Ha        -545.47218405 eV
  | vdW energy correction         :           0.00000000 Ha           0.00000000 eV
  | Entropy correction            :          -0.00000000 Ha          -0.00000000 eV
  | ---------------------------
  | Total energy                  :        -742.70951360 Ha      -20210.15414641 eV
  | Total energy, T -> 0          :        -742.70951360 Ha      -20210.15414641 eV  <-- do not rely on this value for anything but (periodic) metals
  | Electronic free energy        :        -742.70951360 Ha      -20210.15414641 eV

  Derived energy quantities:
  | Kinetic energy                :         743.96895279 Ha       20244.42523056 eV
  | Electrostatic energy          :       -1385.93635541 Ha      -37713.24705962 eV
  | Energy correction for multipole
  | error in Hartree potential    :          -0.04146814 Ha          -1.12840551 eV
  | Sum of eigenvalues per atom                           :        -355.25135218 eV
  | Total energy (T->0) per atom                          :        -631.56731708 eV  <-- do not rely on this value for anything but (periodic) metals
  | Electronic free energy per atom                       :        -631.56731708 eV

  Self-consistency convergence accuracy:
  | Change of charge density      :  0.9024E+00
  | Change of sum of eigenvalues  :  0.5454E+03 eV
  | Change of total energy        :  0.1545E+02 eV

  End self-consistency iteration #     1       :  max(cpu_time)    wall_clock(cpu1)
  | Time for this iteration                    :        1.656 s           1.655 s
  | Charge density update                      :        0.516 s           0.515 s
[...]
   ----------------------------------------------------------------
   Total forces(  20)            :  0.460994E-03  0.256765E-04  0.109436E-02
  atom #   21
   Hellmann-Feynman              : -0.178261E-02  0.566191E-01 -0.827215E-02
   Ionic forces                  :  0.000000E+00  0.000000E+00  0.000000E+00
   Multipole                     :  0.924140E-02 -0.159930E-01  0.327261E-01
   Pulay + GGA                   : -0.814570E-02 -0.525245E-01 -0.325541E-01
   Van der Waals                 :  0.555807E-03  0.119219E-01  0.872368E-02
   ----------------------------------------------------------------
   Total forces(  21)            : -0.131109E-03  0.234760E-04  0.623584E-03
  atom #   22
   Hellmann-Feynman              :  0.380803E-01  0.419402E-01 -0.527683E-02
   Ionic forces                  :  0.000000E+00  0.000000E+00  0.000000E+00
   Multipole                     :  0.495111E-02  0.410529E-02  0.932336E-02
   Pulay + GGA                   : -0.419978E-01 -0.496372E-01 -0.170564E-02
   Van der Waals                 : -0.530777E-03  0.377766E-02 -0.213324E-02
   ----------------------------------------------------------------
   Total forces(  22)            :  0.502816E-03  0.185972E-03  0.207648E-03
  atom #   23
   Hellmann-Feynman              :  0.112205E+01 -0.197547E-01  0.943305E-01
   Ionic forces                  :  0.000000E+00  0.000000E+00  0.000000E+00
   Multipole                     : -0.281993E+00  0.688726E-02 -0.474592E-01
   Pulay + GGA                   : -0.843491E+00 -0.353652E-03 -0.390150E-01
   Van der Waals                 :  0.180910E-02  0.142084E-01 -0.762306E-02
   ----------------------------------------------------------------
   Total forces(  23)            : -0.162108E-02  0.987316E-03  0.233291E-03
  atom #   24
   Hellmann-Feynman              : -0.352011E-01  0.389498E-01 -0.155876E-01
   Ionic forces                  :  0.000000E+00  0.000000E+00  0.000000E+00
   Multipole                     :  0.195681E-01  0.736230E-02 -0.244466E-01
   Pulay + GGA                   :  0.710890E-02 -0.463530E-01  0.449911E-01
   Van der Waals                 :  0.855213E-02 -0.408499E-03 -0.509704E-02
   ----------------------------------------------------------------
   Total forces(  24)            :  0.279907E-04 -0.449351E-03 -0.140155E-03
  atom #   25
   Hellmann-Feynman              : -0.121800E-01 -0.169811E-01  0.232118E-01
   Ionic forces                  :  0.000000E+00  0.000000E+00  0.000000E+00
   Multipole                     : -0.682630E-02 -0.228619E-01  0.118940E-02
   Pulay + GGA                   :  0.155595E-01  0.477690E-01 -0.155429E-01
   Van der Waals                 :  0.355540E-02 -0.818011E-02 -0.826470E-02
   ----------------------------------------------------------------
   Total forces(  25)            :  0.108623E-03 -0.254081E-03  0.593622E-03
  atom #   26
   Hellmann-Feynman              : -0.311414E-01  0.231309E-01  0.331429E-01
   Ionic forces                  :  0.000000E+00  0.000000E+00  0.000000E+00
   Multipole                     :  0.253541E-01  0.114157E-01  0.106384E-01
   Pulay + GGA                   :  0.299551E-02 -0.437302E-01 -0.435859E-01
   Van der Waals                 :  0.274854E-02  0.940992E-02 -0.346344E-03
   ----------------------------------------------------------------
   Total forces(  26)            : -0.433102E-04  0.226331E-03 -0.150956E-03
  atom #   27
   Hellmann-Feynman              :  0.791336E+00 -0.157707E+01  0.163798E+00
   Ionic forces                  :  0.000000E+00  0.000000E+00  0.000000E+00
   Multipole                     :  0.257965E+00  0.327942E-02  0.671787E-01
   Pulay + GGA                   : -0.105670E+01  0.156822E+01 -0.226054E+00
   Van der Waals                 :  0.713716E-02  0.588265E-02 -0.376890E-02
   ----------------------------------------------------------------
   Total forces(  27)            : -0.260969E-03  0.315844E-03  0.115351E-02
  atom #   28
   Hellmann-Feynman              : -0.945112E+00  0.130586E+01  0.182291E+01
   Ionic forces                  :  0.000000E+00  0.000000E+00  0.000000E+00
   Multipole                     :  0.726378E-01 -0.134434E+00 -0.116443E+00
   Pulay + GGA                   :  0.866747E+00 -0.117218E+01 -0.169175E+01
   Van der Waals                 :  0.684208E-02 -0.588699E-03 -0.159031E-01
   ----------------------------------------------------------------
   Total forces(  28)            :  0.111506E-02 -0.135007E-02 -0.118409E-02
  atom #   29
   Hellmann-Feynman              :  0.396931E-01  0.181539E-01  0.843202E-02
   Ionic forces                  :  0.000000E+00  0.000000E+00  0.000000E+00
   Multipole                     : -0.152700E-01  0.132101E-01  0.353865E-01
   Pulay + GGA                   : -0.301335E-01 -0.376790E-01 -0.396423E-01
   Van der Waals                 :  0.510997E-02  0.723470E-02 -0.623404E-02
   ----------------------------------------------------------------
   Total forces(  29)            : -0.600423E-03  0.919703E-03 -0.205787E-02
  atom #   30
   Hellmann-Feynman              :  0.435250E-01 -0.819283E-02 -0.284343E-01
   Ionic forces                  :  0.000000E+00  0.000000E+00  0.000000E+00
   Multipole                     :  0.518201E-02  0.366066E-01  0.590825E-03
   Pulay + GGA                   : -0.523056E-01 -0.295990E-01  0.269198E-01
   Van der Waals                 :  0.407517E-02  0.947124E-03  0.124721E-02
   ----------------------------------------------------------------
   Total forces(  30)            :  0.476535E-03 -0.238132E-03  0.323552E-03
  atom #   31
   Hellmann-Feynman              :  0.246367E-01 -0.402876E-01  0.340452E-02
   Ionic forces                  :  0.000000E+00  0.000000E+00  0.000000E+00
   Multipole                     :  0.105992E-02 -0.161607E-01  0.272165E-01
   Pulay + GGA                   : -0.334711E-01  0.525863E-01 -0.259886E-01
   Van der Waals                 :  0.769098E-02  0.358163E-02 -0.403795E-02
   ----------------------------------------------------------------
   Total forces(  31)            : -0.835450E-04 -0.280480E-03  0.594450E-03
  atom #   32
   Hellmann-Feynman              :  0.313277E-01 -0.380963E-01 -0.477505E-01
   Ionic forces                  :  0.000000E+00  0.000000E+00  0.000000E+00
   Multipole                     : -0.504729E-01  0.118240E-01  0.142649E-02
   Pulay + GGA                   :  0.205941E-01  0.253311E-01  0.505696E-01
   Van der Waals                 : -0.686185E-03  0.523909E-03 -0.450192E-02
   ----------------------------------------------------------------
   Total forces(  32)            :  0.762645E-03 -0.417263E-03 -0.256356E-03

  Timings for VdW correction (Tkatchenko-Scheffler 2009 or later):
  | CPU time:        0.128 s, Wall clock time:        0.127 s.
  Removing unitary transformations (pure translations, rotations) from forces on atoms.
  Atomic forces before filtering:
  | Net force on center of mass :  -0.591173E-03 -0.333814E-03 -0.132664E-03 eV/A
  | Net torque on center of mass:   0.221793E-02  0.269673E-03 -0.177758E-02 eV
  Atomic forces after filtering:
  | Net force on center of mass :   0.130669E-17 -0.113246E-17  0.827567E-18 eV/A
  | Net torque on center of mass:  -0.719127E-17  0.396442E-17  0.261605E-17 eV

  Energy and forces in a compact form:
  | Total energy uncorrected      :         -0.202084900530718E+05 eV
  | Total energy corrected        :         -0.202084900530718E+05 eV  <-- do not rely on this value for anything but (periodic) metals
  | Electronic free energy        :         -0.202084900530718E+05 eV
  Total atomic forces (unitary forces cleaned) [eV/Ang]:
  |   1          0.227816851031609E-03          0.158123059110428E-03          0.551708284353286E-03
  |   2         -0.640697840282275E-03          0.101831429872933E-02          0.918294608951331E-03
  |   3          0.191437656135199E-03          0.691342834008359E-04          0.183073516669693E-03
  |   4         -0.101763071060022E-03         -0.416138329440825E-03          0.172481564137847E-05
  |   5          0.424303421525246E-03         -0.286655404972081E-03         -0.505852611248571E-03
  |   6         -0.941920479538929E-04          0.138093802098101E-03         -0.419903726505048E-03
  |   7         -0.191027400465115E-02         -0.812952634438395E-03         -0.284395545755064E-02
  |   8          0.164325957167763E-02         -0.113578852731527E-02          0.908846906433191E-03
  |   9         -0.344143836537498E-03          0.349195249514585E-02         -0.140404921695421E-02
  |  10         -0.117415162542396E-03         -0.796969375651255E-03          0.109966882333419E-02
  |  11         -0.538330218274588E-03         -0.351900051293325E-03         -0.369644244371019E-03
  |  12          0.705812824250572E-04          0.615517475089410E-03         -0.178521456130855E-03
  |  13         -0.441729329674752E-03         -0.106999769437517E-02         -0.377072995609840E-03
  |  14          0.534880241173090E-03          0.307493636735448E-03          0.300739450005277E-03
  |  15          0.799179163195529E-04          0.161199128312628E-03          0.580844266832064E-04
  |  16          0.328438951814042E-03          0.472604535795633E-03         -0.246133329773078E-03
  |  17          0.669827061535558E-03         -0.174206347006584E-02          0.351924733448512E-02
  |  18         -0.496482116688278E-03          0.103140520146400E-02         -0.392006053537606E-03
  |  19         -0.599380004353789E-03         -0.841804738647065E-03         -0.211838660279420E-02
  |  20          0.474161733375552E-03          0.770957466221906E-04          0.110591332764324E-02
  |  21         -0.741391344663526E-04          0.159056468836605E-05          0.659336762946386E-03
  |  22          0.560021811320043E-03          0.199942563390599E-03          0.255208872732946E-03
  |  23         -0.157511018440893E-02          0.102924984808903E-02          0.277599023159082E-03
  |  24          0.759489671310501E-04         -0.388453303904960E-03         -0.875721137421795E-04
  |  25          0.141508802271755E-03         -0.205618771560287E-03          0.625748622577568E-03
  |  26          0.161582781195469E-04          0.260471379452622E-03         -0.944289120136626E-04
  |  27         -0.235558151796053E-03          0.326305007922068E-03          0.116523994066536E-02
  |  28          0.112448517068109E-02         -0.133499185446320E-02         -0.118832212938109E-02
  |  29         -0.564891440836849E-03          0.911084901532279E-03         -0.204124597168566E-02
  |  30          0.492384001450647E-03         -0.226509617559565E-03          0.325216648358022E-03
  |  31         -0.845236451311947E-04         -0.279672783826620E-03          0.574263426826477E-03
  |  32          0.763498470671358E-03         -0.380061370064956E-03         -0.262819970168117E-03

  ------------------------------------ 
  Start decomposition of the XC Energy 
  ------------------------------------ 
  Hartree-Fock part   :          0.000000000 Ha              0.000000000 eV
  ------------------------------------ 
  X Energy            :        -96.980135454 Ha          -2638.963754701 eV
  C Energy GGA        :         -3.871806419 Ha           -105.357213184 eV
  Total XC Energy     :       -100.851941873 Ha          -2744.320967885 eV
  LDA X and C from self-consistent density 
  X Energy LDA        :        -88.001937872 Ha          -2394.654568169 eV
  C Energy LDA        :         -7.532694025 Ha           -204.975033428 eV
  ------------------------------------ 
  End decomposition of the XC Energy 
  ------------------------------------ 
   
  ESP charge fitting starts.
  | Calculation :  00000001  of  00000001
  | Full density
  Computing multipole expansion for total density.
  Generating points for esp charges.
  Partitioning the integration grid into batches with parallel hashing+maxmin method.
  | Number of batches:     3865
  | Maximal batch size:     200
  | Minimal batch size:      53
  | Average batch size:     126.182
  | Standard deviation of batch sizes:      18.968

  Integration load balanced across    32 MPI tasks.
  Work distribution over tasks is as follows:
  Initializing partition tables, free-atom densities, potentials, etc. across the integration grid (initialize_grid_storage).
  | Original list of interatomic distances with          32 x         32 entries is created.
  | Net number of integration points:   487693
  | of which are non-zero points    :   487693
  Summing up potential from multipole expanded  density.
  Summing up the Hartree potential.
  Time summed over all CPUs for potential: real work        6.449 s, elapsed        6.657 s
  Fitting esp charges to potential.
  |
  | ESP charges fitted to the electrostatic potential :
  |
  | Atom         1: C, ESP charge:      0.67117642
  |
  | Atom         2: C, ESP charge:     -0.65844671
  |
  | Atom         3: O, ESP charge:      0.53965941
  |
  | Atom         4: H, ESP charge:     -0.18241713
  |
  | Atom         5: H, ESP charge:     -0.18220106
  |
  | Atom         6: H, ESP charge:     -0.20805616
  |
  | Atom         7: N, ESP charge:      0.56875697
  |
  | Atom         8: C, ESP charge:     -0.78625899
  |
  | Atom         9: C, ESP charge:     -0.29175414
  |
  | Atom        10: O, ESP charge:      0.51795638
  |
  | Atom        11: H, ESP charge:     -0.21359138
  |
  | Atom        12: H, ESP charge:      0.12185903
  |
  | Atom        13: C, ESP charge:      0.19730315
  |
  | Atom        14: H, ESP charge:     -0.03128600
  |
  | Atom        15: H, ESP charge:     -0.01271338
  |
  | Atom        16: H, ESP charge:     -0.03181946
  |
  | Atom        17: N, ESP charge:      0.65231510
  |
  | Atom        18: C, ESP charge:     -0.59594786
  |
  | Atom        19: C, ESP charge:     -0.19876240
  |
  | Atom        20: O, ESP charge:      0.41025750
  |
  | Atom        21: H, ESP charge:     -0.34232247
  |
  | Atom        22: H, ESP charge:      0.07610206
  |
  | Atom        23: C, ESP charge:      0.40526011
  |
  | Atom        24: H, ESP charge:     -0.09581652
  |
  | Atom        25: H, ESP charge:     -0.12260853
  |
  | Atom        26: H, ESP charge:     -0.09506363
  |
  | Atom        27: N, ESP charge:      0.27199269
  |
  | Atom        28: C, ESP charge:      0.17856668
  |
  | Atom        29: H, ESP charge:     -0.25505529
  |
  | Atom        30: H, ESP charge:     -0.10120528
  |
  | Atom        31: H, ESP charge:     -0.07694568
  |
  | Atom        32: H, ESP charge:     -0.12893343

  RRMS:       0.00300529

  Done.

------------------------------------------------------------------------------
  Final output of selected total energy values:

  The following output summarizes some interesting total energy values
  at the end of a run (AFTER all relaxation, molecular dynamics, etc.).

  | Total energy of the DFT / Hartree-Fock s.c.f. calculation      :         -20208.490053072 eV
  | Final zero-broadening corrected energy (caution - metals only) :         -20208.490053072 eV
  | For reference only, the value of 1 Hartree used in FHI-aims is :             27.211384500 eV

  Before relying on these values, please be sure to understand exactly which
  total energy value is referred to by a given number. Different objects may
  all carry the same name 'total energy'. Definitions:

  Total energy of the DFT / Hartree-Fock s.c.f. calculation:
  | Note that this energy does not include ANY quantities calculated after the
  | s.c.f. cycle, in particular not ANY RPA, MP2, etc. many-body perturbation terms.

  Final zero-broadening corrected energy:
  | For metallic systems only, a broadening of the occupation numbers at the Fermi
  | level can be extrapolated back to zero broadening by an electron-gas inspired
  | formula. For all systems that are not real metals, this value can be
  | meaningless and should be avoided.

------------------------------------------------------------------------------
  Methods described in the following list of references were used in this FHI-aims run.
  If you publish the results, please make sure to cite these reference if they apply.
  FHI-aims is an academic code, and for our developers (often, Ph.D. students
  and postdocs), scientific credit in the community is essential.
  Thank you for helping us!

  For any use of FHI-aims, please cite:

    Volker Blum, Ralf Gehrke, Felix Hanke, Paula Havu, Ville Havu,
    Xinguo Ren, Karsten Reuter, and Matthias Scheffler
    'Ab initio molecular simulations with numeric atom-centered orbitals'
    Computer Physics Communications 180, 2175-2196 (2009)
    http://dx.doi.org/10.1016/j.cpc.2009.06.022


  The scalable eigensolver library ELPA was used in your run.
  ELPA is essential especially for large systems on hundreds or thousands of CPUs.
  For ELPA, please cite:

    Andreas Marek, Volker Blum, Rainer Johanni, Ville Havu, Bruno Lang,
    Thomas Auckenthaler, Alexander Heinecke, Hans-Joachim Bungartz, and Hermann Lederer,
    'The ELPA Library - Scalable Parallel Eigenvalue Solutions
    for Electronic Structure Theory and Computational Science'
    The Journal of Physics: Condensed Matter 26, 213201 (2014).
    http://dx.doi.org/10.1088/0953-8984/26/21/213201


  For ELPA's efficient two-stage tridiagonalization used in your run, please cite:

    T. Auckenthaler, V. Blum, H.-J. Bungartz, T. Huckle, R. Johanni, L. Kraemer,
    B. Lang, H. Lederer, and P. R. Willems,
    'Parallel solution of partial symmetric eigenvalue problems'
    'from  electronic structure calculations'
    Parallel Computing 37, 783-794 (2011).
    http://dx.doi.org/10.1016/j.parco.2011.05.002


  For the real-space grid partitioning and parallelization used in this calculation, please cite:

    Ville Havu, Volker Blum, Paula Havu, and Matthias Scheffler,
    'Efficient O(N) integration for all-electron electronic structure calculation'
    'using numerically tabulated basis functions'
    Journal of Computational Physics 228, 8367-8379 (2009).
    http://dx.doi.org/10.1016/j.jcp.2009.08.008

  Of course, there are many other important community references, e.g., those cited in the
  above references. Our list is limited to references that describe implementations in the
  FHI-aims code. The reason is purely practical (length of this list) - please credit others as well.

------------------------------------------------------------
          Leaving FHI-aims.
          Date     :  20170309, Time     :  183358.103

          Computational steps:
          | Number of self-consistency cycles          :           14

          Detailed time accounting                     :  max(cpu_time)    wall_clock(cpu1)
          | Total time                                 :       32.474 s          32.686 s
          | Preparation time                           :        0.236 s           0.237 s
          | Grid partitioning                          :        0.316 s           0.309 s
          | Preloading free-atom quantities on grid    :        0.028 s           0.027 s
          | Free-atom superposition energy             :        0.044 s           0.041 s
          | Total time for integrations                :       12.329 s          12.315 s
          | Total time for solution of K.-S. equations :        0.528 s           0.492 s
          | Total time for density & force components  :       10.353 s          10.333 s
          | Total time for mixing                      :        0.124 s           0.101 s
          | Total time for Hartree multipole update    :        0.068 s           0.060 s
          | Total time for Hartree multipole sum       :        6.336 s           6.310 s
          | Total time for total energy evaluation     :        0.028 s           0.024 s
          | Total time for vdW correction              :        0.128 s           0.127 s

          Have a nice day.
------------------------------------------------------------
