  MPI-parallelism will be employed.
------------------------------------------------------------
          Invoking FHI-aims ...
          Version 150427
          Git rev.: 9dd23e0 BL: Update Version stamp
          Compiled on 2015/11/03 at 22:05:20 on host eos03.

          When using FHI-aims, please cite the following reference:

          Volker Blum, Ralf Gehrke, Felix Hanke, Paula Havu,
          Ville Havu, Xinguo Ren, Karsten Reuter, and Matthias Scheffler,
          'Ab Initio Molecular Simulations with Numeric Atom-Centered Orbitals: FHI-aims',
          Computer Physics Communications 180, 2175-2196 (2009)

          For any questions about FHI-aims, please visit the aimsclub website
          with its forums and wiki. Contributions to both the forums and the
          wiki are warmly encouraged - they are for you, and everyone is welcome there.

------------------------------------------------------------

  Date     :  20170309, Time     :  191210.202
  Time zero on CPU 1             :   0.312018000000000E+00  s.
  Internal wall clock time zero  :           258318730.202  s.

  Using       32 parallel tasks.
  Task        0 on host eos040 reporting.
  Task        1 on host eos040 reporting.
  Task        2 on host eos040 reporting.
  Task        3 on host eos040 reporting.
  Task        4 on host eos040 reporting.
  Task        5 on host eos040 reporting.
  Task        6 on host eos040 reporting.
  Task        7 on host eos040 reporting.
  Task        8 on host eos040 reporting.
  Task        9 on host eos040 reporting.
  Task       10 on host eos040 reporting.
  Task       11 on host eos040 reporting.
  Task       12 on host eos040 reporting.
  Task       13 on host eos040 reporting.
  Task       14 on host eos040 reporting.
  Task       15 on host eos040 reporting.
  Task       16 on host eos040 reporting.
  Task       17 on host eos040 reporting.
  Task       18 on host eos040 reporting.
  Task       19 on host eos040 reporting.
  Task       20 on host eos040 reporting.
  Task       21 on host eos040 reporting.
  Task       22 on host eos040 reporting.
  Task       23 on host eos040 reporting.
  Task       24 on host eos040 reporting.
  Task       25 on host eos040 reporting.
  Task       26 on host eos040 reporting.
  Task       27 on host eos040 reporting.
  Task       28 on host eos040 reporting.
  Task       29 on host eos040 reporting.
  Task       30 on host eos040 reporting.
  Task       31 on host eos040 reporting.

  Performing system and environment tests:
  | Environment variable OMP_NUM_THREADS correctly set to 1.
  | Stacksize not measured: no C compiler
  | Checking for scalapack...
  | Testing pdtran()...
  | All pdtran() tests passed.

  Obtaining array dimensions for all initial allocations:
  
  -----------------------------------------------------------------------
  Parsing control.in (first pass over file, find array dimensions only).
  The contents of control.in will be repeated verbatim below
  unless switched off by setting 'verbatim_writeout .false.' .
  in the first line of control.in .
  -----------------------------------------------------------------------
  
  #########################################################################################
  #
  # Input for System
  #
  #########################################################################################
  #
  #
  #  Physical model
  #
    xc                 pbe
    vdw_correction_hirshfeld
    spin               none
    charge             0.
  #
  #  SCF convergence
  #
    occupation_type    gaussian 0.05
    mixer              pulay
      n_max_pulay        10
      charge_mix_param   0.5
    sc_accuracy_rho    1E-4
    sc_accuracy_eev    1E-2
    sc_accuracy_etot   1E-5
    sc_accuracy_forces 1E-4
    sc_iter_limit      1000
  #
  #  ESP charge
  #
    output esp
    esp equal_grid_n 80 80 80
  #
  #
  ################################################################################
  #
  #  FHI-aims code project
  # Volker Blum, Fritz Haber Institute Berlin, 2009
  #
  #  Suggested "tight" defaults for H atom (to be pasted into control.in file)
  #
  ################################################################################
    species        H
  #     global species definitions
      nucleus             1
      mass                1.00794
  #
      l_hartree           6
  #
      cut_pot             4.0  2.0  1.0
      basis_dep_cutoff    1e-4
  #
      radial_base         24 7.0
      radial_multiplier   2
      angular_grids       specified
        division   0.1930   50
        division   0.3175  110
        division   0.4293  194
        division   0.5066  302
        division   0.5626  434
  #      division   0.5922  590
  #      division   0.6227  974
  #      division   0.6868 1202
  #      outer_grid  770
        outer_grid  434
  ################################################################################
  #
  #  Definition of "minimal" basis
  #
  ################################################################################
  #     valence basis states
      valence      1  s   1.
  #     ion occupancy
      ion_occ      1  s   0.5
  ################################################################################
  #
  #  Suggested additional basis functions. For production calculations,
  #  uncomment them one after another (the most important basis functions are
  #  listed first).
  #
  #  Basis constructed for dimers: 0.5 A, 0.7 A, 1.0 A, 1.5 A, 2.5 A
  #
  ################################################################################
  #  "First tier" - improvements: -1014.90 meV to -62.69 meV
       hydro 2 s 2.1
       hydro 2 p 3.5
  #  "Second tier" - improvements: -12.89 meV to -1.83 meV
       hydro 1 s 0.85
       hydro 2 p 3.7
       hydro 2 s 1.2
       hydro 3 d 7
  #  "Third tier" - improvements: -0.25 meV to -0.12 meV
  #     hydro 4 f 11.2
  #     hydro 3 p 4.8
  #     hydro 4 d 9
  #     hydro 3 s 3.2
  ################################################################################
  #
  # For methods that use the localized form of the "resolution of identity" for
  # the two-electron Coulomb operator (RI_method LVL), particularly Hartree-Fock and
  # hybrid density functional calculations, the highest accuracy can be obtained by
  # uncommenting the line beginning with "for_aux"  below, thus adding an extra g radial
  # function to the construction of the product basis set for the expansion.
  # See Ref. New J. Phys. 17, 093020 (2015) for more information, particularly Figs. 1 and 6.
  #
  ################################################################################
  #
  # for_aux hydro 5 g 6.0
  ################################################################################
  #
  #  FHI-aims code project
  # Volker Blum, Fritz Haber Institute Berlin, 2009
  #
  #  Suggested "tight" defaults for C atom (to be pasted into control.in file)
  #
  ################################################################################
    species        C
  #     global species definitions
      nucleus             6
      mass                12.0107
  #
      l_hartree           6
  #
      cut_pot             4.0  2.0  1.0
      basis_dep_cutoff    1e-4
  #
      radial_base         34 7.0
      radial_multiplier   2
      angular_grids specified
        division   0.2187   50
        division   0.4416  110
        division   0.6335  194
        division   0.7727  302
        division   0.8772  434
  #      division   0.9334  590
  #      division   0.9924  770
  #      division   1.0230  974
  #      division   1.5020 1202
  #     outer_grid  974
        outer_grid  434
  ################################################################################
  #
  #  Definition of "minimal" basis
  #
  ################################################################################
  #     valence basis states
      valence      2  s   2.
      valence      2  p   2.
  #     ion occupancy
      ion_occ      2  s   1.
      ion_occ      2  p   1.
  ################################################################################
  #
  #  Suggested additional basis functions. For production calculations,
  #  uncomment them one after another (the most important basis functions are
  #  listed first).
  #
  #  Constructed for dimers: 1.0 A, 1.25 A, 1.5 A, 2.0 A, 3.0 A
  #
  ################################################################################
  #  "First tier" - improvements: -1214.57 meV to -155.61 meV
       hydro 2 p 1.7
       hydro 3 d 6
       hydro 2 s 4.9
  #  "Second tier" - improvements: -67.75 meV to -5.23 meV
       hydro 4 f 9.8
       hydro 3 p 5.2
       hydro 3 s 4.3
       hydro 5 g 14.4
       hydro 3 d 6.2
  #  "Third tier" - improvements: -2.43 meV to -0.60 meV
  #     hydro 2 p 5.6
  #     hydro 2 s 1.4
  #     hydro 3 d 4.9
  #     hydro 4 f 11.2
  #  "Fourth tier" - improvements: -0.39 meV to -0.18 meV
  #     hydro 2 p 2.1
  #     hydro 5 g 16.4
  #     hydro 4 d 13.2
  #     hydro 3 s 13.6
  #     hydro 4 f 17.6
  #  Further basis functions - improvements: -0.08 meV and below
  #     hydro 3 s 2
  #     hydro 3 p 6
  #     hydro 4 d 20
  ################################################################################
  #
  # For methods that use the localized form of the "resolution of identity" for
  # the two-electron Coulomb operator (RI_method LVL), particularly Hartree-Fock and
  # hybrid density functional calculations, the highest accuracy can be obtained by
  # uncommenting the line beginning with "for_aux"  below, thus adding an extra g radial
  # function to the construction of the product basis set for the expansion.
  # See Ref. New J. Phys. 17, 093020 (2015) for more information, particularly Figs. 1 and 6.
  #
  ################################################################################
  #
  # for_aux hydro 5 g 6.0
  ################################################################################
  #
  #  FHI-aims code project
  # Volker Blum, Fritz Haber Institute Berlin, 2009
  #
  #  Suggested "tight" defaults for N atom (to be pasted into control.in file)
  #
  ################################################################################
    species        N
  #     global species definitions
      nucleus             7
      mass                14.0067
  #
      l_hartree           6
  #
      cut_pot             4.0  2.0  1.0
      basis_dep_cutoff    1e-4
  #
      radial_base         35 7.0
      radial_multiplier   2
      angular_grids       specified
        division   0.1841   50
        division   0.3514  110
        division   0.5126  194
        division   0.6292  302
        division   0.6939  434
  #      division   0.7396  590
  #      division   0.7632  770
  #      division   0.8122  974
  #      division   1.1604 1202
  #      outer_grid  974
        outer_grid  434
  ################################################################################
  #
  #  Definition of "minimal" basis
  #
  ################################################################################
  #     valence basis states
      valence      2  s   2.
      valence      2  p   3.
  #     ion occupancy
      ion_occ      2  s   1.
      ion_occ      2  p   2.
  ################################################################################
  #
  #  Suggested additional basis functions. For production calculations,
  #  uncomment them one after another (the most important basis functions are
  #  listed first).
  #
  #  Constructed for dimers: 1.0 A, 1.1 A, 1.5 A, 2.0 A, 3.0 A
  #
  ################################################################################
  #  "First tier" - improvements: -1193.42 meV to -220.60 meV
       hydro 2 p 1.8
       hydro 3 d 6.8
       hydro 3 s 5.8
  #  "Second tier" - improvements: -80.21 meV to -6.86 meV
       hydro 4 f 10.8
       hydro 3 p 5.8
       hydro 1 s 0.8
       hydro 5 g 16
       hydro 3 d 4.9
  #  "Third tier" - improvements: -4.29 meV to -0.53 meV
  #     hydro 3 s 16
  #     ionic 2 p auto
  #     hydro 3 d 6.6
  #     hydro 4 f 11.6
  #  "Fourth tier" - improvements: -0.75 meV to -0.25 meV
  #     hydro 2 p 4.5
  #     hydro 2 s 2.4
  #     hydro 5 g 14.4
  #     hydro 4 d 14.4
  #     hydro 4 f 16.8
  # Further basis functions - -0.21 meV and below
  #     hydro 3 p 14.8
  #     hydro 3 s 4.4
  #     hydro 3 d 19.6
  #     hydro 5 g 12.8
  ################################################################################
  #
  # For methods that use the localized form of the "resolution of identity" for
  # the two-electron Coulomb operator (RI_method LVL), particularly Hartree-Fock and
  # hybrid density functional calculations, the highest accuracy can be obtained by
  # uncommenting the line beginning with "for_aux"  below, thus adding an extra g radial
  # function to the construction of the product basis set for the expansion.
  # See Ref. New J. Phys. 17, 093020 (2015) for more information, particularly Figs. 1 and 6.
  #
  ################################################################################
  #
  # for_aux hydro 5 g 6.0
  ################################################################################
  #
  #  FHI-aims code project
  # Volker Blum, Fritz Haber Institute Berlin, 2009
  #
  #  Suggested "tight" defaults for O atom (to be pasted into control.in file)
  #
  ################################################################################
    species        O
  #     global species definitions
      nucleus             8
      mass                15.9994
  #
      l_hartree           6
  #
      cut_pot             4.0  2.0  1.0
      basis_dep_cutoff    1e-4
  #
      radial_base         36 7.0
      radial_multiplier   2
       angular_grids specified
        division   0.1817   50
        division   0.3417  110
        division   0.4949  194
        division   0.6251  302
        division   0.8014  434
  #      division   0.8507  590
  #      division   0.8762  770
  #      division   0.9023  974
  #      division   1.2339 1202
  #      outer_grid 974
        outer_grid  434
  ################################################################################
  #
  #  Definition of "minimal" basis
  #
  ################################################################################
  #     valence basis states
      valence      2  s   2.
      valence      2  p   4.
  #     ion occupancy
      ion_occ      2  s   1.
      ion_occ      2  p   3.
  ################################################################################
  #
  #  Suggested additional basis functions. For production calculations,
  #  uncomment them one after another (the most important basis functions are
  #  listed first).
  #
  #  Constructed for dimers: 1.0 A, 1.208 A, 1.5 A, 2.0 A, 3.0 A
  #
  ################################################################################
  #  "First tier" - improvements: -699.05 meV to -159.38 meV
       hydro 2 p 1.8
       hydro 3 d 7.6
       hydro 3 s 6.4
  #  "Second tier" - improvements: -49.91 meV to -5.39 meV
       hydro 4 f 11.6
       hydro 3 p 6.2
       hydro 3 d 5.6
       hydro 5 g 17.6
       hydro 1 s 0.75
  #  "Third tier" - improvements: -2.83 meV to -0.50 meV
  #     ionic 2 p auto
  #     hydro 4 f 10.8
  #     hydro 4 d 4.7
  #     hydro 2 s 6.8
  #  "Fourth tier" - improvements: -0.40 meV to -0.12 meV
  #     hydro 3 p 5
  #     hydro 3 s 3.3
  #     hydro 5 g 15.6
  #     hydro 4 f 17.6
  #     hydro 4 d 14
  # Further basis functions - -0.08 meV and below
  #     hydro 3 s 2.1
  #     hydro 4 d 11.6
  #     hydro 3 p 16
  #     hydro 2 s 17.2
  ################################################################################
  #
  # For methods that use the localized form of the "resolution of identity" for
  # the two-electron Coulomb operator (RI_method LVL), particularly Hartree-Fock and
  # hybrid density functional calculations, the highest accuracy can be obtained by
  # uncommenting the line beginning with "for_aux"  below, thus adding an extra g radial
  # function to the construction of the product basis set for the expansion.
  # See Ref. New J. Phys. 17, 093020 (2015) for more information, particularly Figs. 1 and 6.
  #
  ################################################################################
  #
  # for_aux hydro 5 g 6.0
  
  -----------------------------------------------------------------------
  Completed first pass over input file control.in .
  -----------------------------------------------------------------------
  
  
  -----------------------------------------------------------------------
  Parsing geometry.in (first pass over file, find array dimensions only).
  The contents of geometry.in will be repeated verbatim below
  unless switched off by setting 'verbatim_writeout .false.' .
  in the first line of geometry.in .
  -----------------------------------------------------------------------
  
  #
  # This is the geometry file that corresponds to the current relaxation step.
  # If you do not want this file to be written, set the "write_restart_geometry" flag to .false.
  #
  atom      -0.76951599      0.15158908     -0.15512209 C
  atom      -0.57212987     -0.06685346      1.33545040 C
  atom       0.44060664     -0.57965183      1.79223090 O
  atom      -1.82439882      0.17791409     -0.45838612 H
  atom      -0.25093498     -0.64171975     -0.70249122 H
  atom      -0.30642516      1.11148377     -0.42468580 H
  atom      -1.64170319      0.34598127      2.11056000 N
  atom      -1.56733293      0.58753390      3.54553612 C
  atom      -0.80403623      1.92011712      3.81039606 C
  atom      -0.18593230      2.48677381      2.91608227 O
  atom      -2.31647365      0.92307224      1.62024077 H
  atom      -2.61111090      0.73177200      3.86779868 H
  atom      -1.00059210     -0.61233376      4.32372529 C
  atom      -1.25770712     -0.54332223      5.38694735 H
  atom       0.08493704     -0.68151692      4.21642000 H
  atom      -1.43813481     -1.53766041      3.93012890 H
  atom      -0.85389293      2.46330397      5.06987407 N
  atom      -1.58438800      2.05453814      6.27078539 C
  atom      -2.32430305      3.30887797      6.79934818 C
  atom      -1.84368301      4.00796626      7.68736547 O
  atom      -0.28563454      3.30436490      5.15623186 H
  atom      -2.32471663      1.30149819      5.97194504 H
  atom      -0.66789547      1.48187277      7.34977318 C
  atom      -0.08857732      0.64272503      6.94777651 H
  atom      -1.25369551      1.13229126      8.21004395 H
  atom       0.02145145      2.25411208      7.71032214 H
  atom      -3.51923079      3.62392527      6.21372930 N
  atom      -4.15598180      2.99858675      5.06795987 C
  atom      -3.90534027      4.50088782      6.55020609 H
  atom      -5.14602314      3.44745237      4.93457884 H
  atom      -4.30786440      1.92138039      5.22527869 H
  atom      -3.58563121      3.14479491      4.13763294 H
  
  -----------------------------------------------------------------------
  Completed first pass over input file geometry.in .
  -----------------------------------------------------------------------
  

  Basic array size parameters:
  | Number of species                 :        4
  | Number of atoms                   :       32
  | Max. basis fn. angular momentum   :        4
  | Max. atomic/ionic basis occupied n:        2
  | Max. number of basis fn. types    :        2
  | Max. radial fns per species/type  :        8
  | Max. logarithmic grid size        :     1301
  | Max. radial integration grid size :       73
  | Max. angular integration grid size:      434
  | Max. angular grid division number :        8
  | Radial grid for Hartree potential :     1301
  | Number of spin channels           :        1

------------------------------------------------------------
          Reading file control.in.
------------------------------------------------------------
  XC: Using PBE gradient-corrected functionals.
  Spin treatment: No spin polarisation.
  Charge =   0.000000E+00: Neutral system requested explicitly.
  Occupation type: Gaussian broadening, width =   0.500000E-01 eV.
  Using pulay charge density mixing.
  Pulay mixing - number of memorized iterations:   10
  Charge density mixing - mixing parameter:     0.5000
  Convergence accuracy of self-consistent charge density:  0.1000E-03
  Convergence accuracy of sum of eigenvalues:  0.1000E-01
  Convergence accuracy of total energy:  0.1000E-04
  Convergence accuracy of forces:  0.1000E-03
  Maximum number of s.-c. iterations  :  1000
  Fitting ESP-charges to Potential. 
  | Esp charge output options: 
  | ESP Grid method: 3, cubic grid
  | Number of points in x, ,y, z:  0080 0080 0080
  |
 
  Reading configuration options for species H                   .
  | Found nuclear charge :   1.0000
  | Found atomic mass :    1.00794000000000      amu
  | Found l_max for Hartree potential  :   6
  | Found cutoff potl. onset [A], width [A], scale factor :    4.00000    2.00000    1.00000
  | Threshold for basis-dependent cutoff potential is   0.100000E-03
  | Found data for basic radial integration grid :    24 points, outermost radius =    7.000 A
  | Found multiplier for basic radial grid :   2
  | Found angular grid specification: user-specified.
  | Specified grid contains     6 separate shells.
  | Check grid settings after all constraints further below.
  | Found free-atom valence shell :  1 s   1.000
  | No ionic wave fns used. Skipping ion_occ.
  | Found hydrogenic basis function :  2 s   2.100
  | Found hydrogenic basis function :  2 p   3.500
  | Found hydrogenic basis function :  1 s   0.850
  | Found hydrogenic basis function :  2 p   3.700
  | Found hydrogenic basis function :  2 s   1.200
  | Found hydrogenic basis function :  3 d   7.000
  Species H                   : Missing cutoff potential type.
  Defaulting to exp(1/x)/(1-x)^2 type cutoff potential.
  Species H : No 'logarithmic' tag. Using default grid for free atom:
  | Default logarithmic grid data [bohr] : 0.1000E-03 0.1000E+03 0.1012E+01
  Species H : On-site basis accuracy parameter (for Gram-Schmidt orthonormalisation) not specified.
  Using default value basis_acc =  0.1000000E-03.
  Species H                   : Using default innermost maximum threshold i_radial=  2 for radial functions.
  Species H                   : Default cutoff onset for free atom density etc. : 0.40000000E+01 AA.
  Species H                   : Basic radial grid will be enhanced according to radial_multiplier =   2, to contain    49 grid points.
 
  Reading configuration options for species C                   .
  | Found nuclear charge :   6.0000
  | Found atomic mass :    12.0107000000000      amu
  | Found l_max for Hartree potential  :   6
  | Found cutoff potl. onset [A], width [A], scale factor :    4.00000    2.00000    1.00000
  | Threshold for basis-dependent cutoff potential is   0.100000E-03
  | Found data for basic radial integration grid :    34 points, outermost radius =    7.000 A
  | Found multiplier for basic radial grid :   2
  | Found angular grid specification: user-specified.
  | Specified grid contains     6 separate shells.
  | Check grid settings after all constraints further below.
  | Found free-atom valence shell :  2 s   2.000
  | Found free-atom valence shell :  2 p   2.000
  | No ionic wave fns used. Skipping ion_occ.
  | No ionic wave fns used. Skipping ion_occ.
  | Found hydrogenic basis function :  2 p   1.700
  | Found hydrogenic basis function :  3 d   6.000
  | Found hydrogenic basis function :  2 s   4.900
  | Found hydrogenic basis function :  4 f   9.800
  | Found hydrogenic basis function :  3 p   5.200
  | Found hydrogenic basis function :  3 s   4.300
  | Found hydrogenic basis function :  5 g  14.400
  | Found hydrogenic basis function :  3 d   6.200
  Species C                   : Missing cutoff potential type.
  Defaulting to exp(1/x)/(1-x)^2 type cutoff potential.
  Species C : No 'logarithmic' tag. Using default grid for free atom:
  | Default logarithmic grid data [bohr] : 0.1000E-03 0.1000E+03 0.1012E+01
  Species C : On-site basis accuracy parameter (for Gram-Schmidt orthonormalisation) not specified.
  Using default value basis_acc =  0.1000000E-03.
  Species C                   : Using default innermost maximum threshold i_radial=  2 for radial functions.
  Species C                   : Default cutoff onset for free atom density etc. : 0.40000000E+01 AA.
  Species C                   : Basic radial grid will be enhanced according to radial_multiplier =   2, to contain    69 grid points.
 
  Reading configuration options for species N                   .
  | Found nuclear charge :   7.0000
  | Found atomic mass :    14.0067000000000      amu
  | Found l_max for Hartree potential  :   6
  | Found cutoff potl. onset [A], width [A], scale factor :    4.00000    2.00000    1.00000
  | Threshold for basis-dependent cutoff potential is   0.100000E-03
  | Found data for basic radial integration grid :    35 points, outermost radius =    7.000 A
  | Found multiplier for basic radial grid :   2
  | Found angular grid specification: user-specified.
  | Specified grid contains     6 separate shells.
  | Check grid settings after all constraints further below.
  | Found free-atom valence shell :  2 s   2.000
  | Found free-atom valence shell :  2 p   3.000
  | No ionic wave fns used. Skipping ion_occ.
  | No ionic wave fns used. Skipping ion_occ.
  | Found hydrogenic basis function :  2 p   1.800
  | Found hydrogenic basis function :  3 d   6.800
  | Found hydrogenic basis function :  3 s   5.800
  | Found hydrogenic basis function :  4 f  10.800
  | Found hydrogenic basis function :  3 p   5.800
  | Found hydrogenic basis function :  1 s   0.800
  | Found hydrogenic basis function :  5 g  16.000
  | Found hydrogenic basis function :  3 d   4.900
  Species N                   : Missing cutoff potential type.
  Defaulting to exp(1/x)/(1-x)^2 type cutoff potential.
  Species N : No 'logarithmic' tag. Using default grid for free atom:
  | Default logarithmic grid data [bohr] : 0.1000E-03 0.1000E+03 0.1012E+01
  Species N : On-site basis accuracy parameter (for Gram-Schmidt orthonormalisation) not specified.
  Using default value basis_acc =  0.1000000E-03.
  Species N                   : Using default innermost maximum threshold i_radial=  2 for radial functions.
  Species N                   : Default cutoff onset for free atom density etc. : 0.40000000E+01 AA.
  Species N                   : Basic radial grid will be enhanced according to radial_multiplier =   2, to contain    71 grid points.
 
  Reading configuration options for species O                   .
  | Found nuclear charge :   8.0000
  | Found atomic mass :    15.9994000000000      amu
  | Found l_max for Hartree potential  :   6
  | Found cutoff potl. onset [A], width [A], scale factor :    4.00000    2.00000    1.00000
  | Threshold for basis-dependent cutoff potential is   0.100000E-03
  | Found data for basic radial integration grid :    36 points, outermost radius =    7.000 A
  | Found multiplier for basic radial grid :   2
  | Found angular grid specification: user-specified.
  | Specified grid contains     6 separate shells.
  | Check grid settings after all constraints further below.
  | Found free-atom valence shell :  2 s   2.000
  | Found free-atom valence shell :  2 p   4.000
  | No ionic wave fns used. Skipping ion_occ.
  | No ionic wave fns used. Skipping ion_occ.
  | Found hydrogenic basis function :  2 p   1.800
  | Found hydrogenic basis function :  3 d   7.600
  | Found hydrogenic basis function :  3 s   6.400
  | Found hydrogenic basis function :  4 f  11.600
  | Found hydrogenic basis function :  3 p   6.200
  | Found hydrogenic basis function :  3 d   5.600
  | Found hydrogenic basis function :  5 g  17.600
  | Found hydrogenic basis function :  1 s   0.750
  Species O                   : Missing cutoff potential type.
  Defaulting to exp(1/x)/(1-x)^2 type cutoff potential.
  Species O : No 'logarithmic' tag. Using default grid for free atom:
  | Default logarithmic grid data [bohr] : 0.1000E-03 0.1000E+03 0.1012E+01
  Species O : On-site basis accuracy parameter (for Gram-Schmidt orthonormalisation) not specified.
  Using default value basis_acc =  0.1000000E-03.
  Species O                   : Using default innermost maximum threshold i_radial=  2 for radial functions.
  Species O                   : Default cutoff onset for free atom density etc. : 0.40000000E+01 AA.
  Species O                   : Basic radial grid will be enhanced according to radial_multiplier =   2, to contain    73 grid points.
 
  Finished reading input file 'control.in'. Consistency checks are next.
 
  Target number of points in a grid batch is not set. Defaulting to  100
  Method for grid partitioning is not set. Defaulting to parallel hash+maxmin partitioning.
  Batch size limit is not set. Defaulting to    200
  By default, will store active basis functions for each batch.
  If in need of memory, prune_basis_once .false. can be used to disable this option.
  communication_type for Hartree potential was not specified.
  Defaulting to calc_hartree .
  Pulay mixer: Number of initial linear mixing iterations not set.
  Defaulting to    0 iterations.
  Work space size for distributed Hartree potential not set.
  Defaulting to   0.200000E+03 MB.
  Algorithm-dependent basis array size parameters:
  | n_max_pulay                         :       10
  Geometry relaxation not requested: no relaxation will be performed.
  Handling of forces: Unphysical translation and rotation will be removed from forces.
  No accuracy limit for integral partition fn. given. Defaulting to  0.1000E-14.
  No threshold value for u(r) in integrations given. Defaulting to  0.1000E-05.
  No accuracy for occupation numbers given. Defaulting to  0.1000E-07.
  No threshold value for occupation numbers given. Defaulting to  0.0000E+00.
  No accuracy for fermi level given. Defaulting to  0.1000E-19.
  Maximum # of iterations to find E_F not set. Defaulting to  200.
  Preferred method for the eigenvalue solver ('KS_method') not specified in 'control.in'.
  Calling blacs routine to test compilation state
  Since scalapack support is enabled, defaulting to 'elpa'.
  Preferred method for the MBD eigenvalue solver ('mbd_eigensolver') not specified in 'control.in'.
  Calling blacs routine to test compilation state
  Since scalapack support is enabled, defaulting to 'scaLAPACK'.
  Will not use alltoall communication since running on < 1024 CPUs.
  Threshold for basis singularities not set.
  Default threshold for basis singularities:  0.1000E-04
  partition_type (choice of integration weights) for integrals was not specified.
  | Using a version of the partition function of Stratmann and coworkers ('stratmann_smoother').
  | At each grid point, the set of atoms used to build the partition table is smoothly restricted to
  | only those atoms whose free-atom density would be non-zero at that grid point.
  Partitioning for Hartree potential was not defined. Using partition_type for integrals.
  | Adjusted default value of keyword multip_moments_threshold to:       0.10000000E-11
  | This value may affect high angular momentum components of the Hartree potential in periodic systems.
  No q(lm)/r^(l+1) cutoff set for long-range Hartree potential.
  | Using default value of  0.100000E-09 .
  | Verify using the multipole_threshold keyword.
  Defaulting to new monopole extrapolation.
  Density update method: automatic selection selected.
------------------------------------------------------------


------------------------------------------------------------
          Reading geometry description geometry.in.
------------------------------------------------------------
 * Warning! You did not set the 'relativistic' flag in input file 'control.in'.
 * Since you are not attempting to treat any elements beyond Ca(Z=20), FHI-aims
 * will default to 'relativistic none'.
 * You must ensure that this is really what you want!!
 * For example, DO NOT compute total-energy differences between results from
 * different settings of the 'relativistic' flag.
  Input structure read successfully.
  The structure contains       32 atoms,  and a total of        116.000 electrons.

  Input geometry:
  | No unit cell requested.
  | Atomic structure:
  |       Atom                x [A]            y [A]            z [A]
  |    1: Species C             -0.769516         0.151589        -0.155122
  |    2: Species C             -0.572130        -0.066853         1.335450
  |    3: Species O              0.440607        -0.579652         1.792231
  |    4: Species H             -1.824399         0.177914        -0.458386
  |    5: Species H             -0.250935        -0.641720        -0.702491
  |    6: Species H             -0.306425         1.111484        -0.424686
  |    7: Species N             -1.641703         0.345981         2.110560
  |    8: Species C             -1.567333         0.587534         3.545536
  |    9: Species C             -0.804036         1.920117         3.810396
  |   10: Species O             -0.185932         2.486774         2.916082
  |   11: Species H             -2.316474         0.923072         1.620241
  |   12: Species H             -2.611111         0.731772         3.867799
  |   13: Species C             -1.000592        -0.612334         4.323725
  |   14: Species H             -1.257707        -0.543322         5.386947
  |   15: Species H              0.084937        -0.681517         4.216420
  |   16: Species H             -1.438135        -1.537660         3.930129
  |   17: Species N             -0.853893         2.463304         5.069874
  |   18: Species C             -1.584388         2.054538         6.270785
  |   19: Species C             -2.324303         3.308878         6.799348
  |   20: Species O             -1.843683         4.007966         7.687365
  |   21: Species H             -0.285635         3.304365         5.156232
  |   22: Species H             -2.324717         1.301498         5.971945
  |   23: Species C             -0.667895         1.481873         7.349773
  |   24: Species H             -0.088577         0.642725         6.947777
  |   25: Species H             -1.253696         1.132291         8.210044
  |   26: Species H              0.021451         2.254112         7.710322
  |   27: Species N             -3.519231         3.623925         6.213729
  |   28: Species C             -4.155982         2.998587         5.067960
  |   29: Species H             -3.905340         4.500888         6.550206
  |   30: Species H             -5.146023         3.447452         4.934579
  |   31: Species H             -4.307864         1.921380         5.225279
  |   32: Species H             -3.585631         3.144795         4.137633
  |

  | The smallest distance between any two atoms is         1.01427911 AA.
  |
  | The first atom of this pair is atom number                      7 .
  | The second atom of this pair is atom number                    11 .

  Number of empty states per atom not set in control.in - providing a guess from actual geometry.
  | Total number of empty states used during s.c.f. cycle:       71
  If you use a very high smearing, use empty_states (per atom!) in control.in to increase this value.

  Structure-dependent array size parameters: 
  | Maximum number of distinct radial functions  :       40
  | Maximum number of basis functions            :      840
  | Number of Kohn-Sham states (occupied + empty):      129
------------------------------------------------------------

------------------------------------------------------------
          Preparing all fixed parts of the calculation.
------------------------------------------------------------
  Determining machine precision:
    2.225073858507201E-308
  Setting up grids for atomic and cluster calculations.

  Creating wave function, potential, and density for free atoms.

  Species: H

  List of occupied orbitals and eigenvalues:
    n    l              occ      energy [Ha]    energy [eV]
    1    0           1.0000        -0.238382        -6.4867


  Species: C

  List of occupied orbitals and eigenvalues:
    n    l              occ      energy [Ha]    energy [eV]
    1    0           2.0000       -10.041232      -273.2358
    2    0           2.0000        -0.504327       -13.7234
    2    1           2.0000        -0.193750        -5.2722


  Species: N

  List of occupied orbitals and eigenvalues:
    n    l              occ      energy [Ha]    energy [eV]
    1    0           2.0000       -14.129007      -384.4699
    2    0           2.0000        -0.681802       -18.5528
    2    1           3.0000        -0.260543        -7.0897


  Species: O

  List of occupied orbitals and eigenvalues:
    n    l              occ      energy [Ha]    energy [eV]
    1    0           2.0000       -18.898576      -514.2564
    2    0           2.0000        -0.878795       -23.9132
    2    1           4.0000        -0.332075        -9.0362

  Creating fixed part of basis set: Ionic, confined, hydrogenic.
 
  H                    hydrogenic:
 
  List of hydrogenic basis orbitals: 
    n    l      effective z      eigenvalue [eV]  inner max. [A]     outer max. [A]     outer radius [A]   
    2    0         2.100000       -14.9965           0.193243           1.317208           5.373006
    2    1         3.500000       -41.6672           0.602369           0.602369           4.056063
    1    0         0.850000        -9.8292           0.624871           0.624871           5.373006
    2    1         3.700000       -46.5653           0.573622           0.573622           3.910002
    2    0         1.200000        -4.5995           0.334980           2.228188           5.505995
    3    2         7.000000       -74.0753           0.680699           0.680699           3.769201
 
 
  C                    hydrogenic:
 
  List of hydrogenic basis orbitals: 
    n    l      effective z      eigenvalue [eV]  inner max. [A]     outer max. [A]     outer radius [A]   
    2    1         1.700000        -9.8152           1.245706           1.245706           5.401630
    3    2         6.000000       -54.4226           0.792453           0.792453           4.178599
    2    0         4.900000       -81.6681           0.082559           0.562749           3.353238
    4    3         9.800000       -81.6681           0.863254           0.863254           4.028125
    3    1         5.200000       -40.8774           0.305389           1.215618           4.898362
    3    0         4.300000       -27.9508           0.091041           1.610311           5.401630
    5    4        14.400000      -112.8510           0.917666           0.917666           3.883070
    3    2         6.200000       -58.1113           0.763917           0.763917           4.077671
 
 
  N                    hydrogenic:
 
  List of hydrogenic basis orbitals: 
    n    l      effective z      eigenvalue [eV]  inner max. [A]     outer max. [A]     outer radius [A]   
    2    1         1.800000       -11.0118           1.177451           1.177451           5.427479
    3    2         6.800000       -69.9029           0.704619           0.704619           3.854246
    3    0         5.800000       -50.8549           0.067388           1.191934           4.629968
    4    3        10.800000       -99.1854           0.786571           0.786571           3.761152
    3    1         5.800000       -50.8549           0.274880           1.094176           4.518138
    1    0         0.800000        -8.7059           0.662839           0.662839           5.361532
    5    4        16.000000      -139.3222           0.825990           0.825990           3.625711
    3    2         4.900000       -36.2967           0.968267           0.968267           4.862000
 
 
  O                    hydrogenic:
 
  List of hydrogenic basis orbitals: 
    n    l      effective z      eigenvalue [eV]  inner max. [A]     outer max. [A]     outer radius [A]   
    2    1         1.800000       -11.0118           1.178562           1.178562           5.432602
    3    2         7.600000       -87.3182           0.624125           0.624125           3.541477
    3    0         6.400000       -61.9209           0.061167           1.081902           4.306578
    4    3        11.600000      -114.4238           0.731631           0.731631           3.585037
    3    1         6.200000       -58.1113           0.255680           1.030270           4.306578
    3    2         5.600000       -47.4081           0.847233           0.847233           4.413171
    5    4        17.600000      -168.5799           0.749740           0.749740           3.372465
    1    0         0.750000        -7.6499           0.705284           0.705284           5.366593
 

  Adding cutoff potential to free-atom effective potential.
  Creating atomic-like basis functions for current effective potential.

  Species H                   :

  List of atomic basis orbitals and eigenvalues:
    n    l      energy [Ha]    energy [eV]    outer radius [A]
    1    0        -0.238382        -6.4867       5.373006


  Species C                   :

  List of atomic basis orbitals and eigenvalues:
    n    l      energy [Ha]    energy [eV]    outer radius [A]
    1    0       -10.041232      -273.2358       1.934409
    2    0        -0.504327       -13.7234       5.271162
    2    1        -0.193750        -5.2722       5.401630


  Species N                   :

  List of atomic basis orbitals and eigenvalues:
    n    l      energy [Ha]    energy [eV]    outer radius [A]
    1    0       -14.129007      -384.4699       1.637919
    2    0        -0.681802       -18.5528       5.168461
    2    1        -0.260543        -7.0897       5.361532


  Species O                   :

  List of atomic basis orbitals and eigenvalues:
    n    l      energy [Ha]    energy [eV]    outer radius [A]
    1    0       -18.898576      -514.2564       1.415765
    2    0        -0.878795       -23.9132       5.048385
    2    1        -0.332075        -9.0362       5.301386

  Assembling full basis from fixed parts.
  | Species H :   atomic orbital   1 s accepted.
  | Species H :    hydro orbital   2 s accepted.
  | Species H :    hydro orbital   1 s accepted.
  | Species H :    hydro orbital   2 s accepted.
  | Species H :    hydro orbital   2 p accepted.
  | Species H :    hydro orbital   2 p accepted.
  | Species H :    hydro orbital   3 d accepted.
  | Species C :   atomic orbital   1 s accepted.
  | Species C :    hydro orbital   2 s accepted.
  | Species C :   atomic orbital   2 s accepted.
  | Species C :    hydro orbital   3 s accepted.
  | Species C :    hydro orbital   3 p accepted.
  | Species C :   atomic orbital   2 p accepted.
  | Species C :    hydro orbital   2 p accepted.
  | Species C :    hydro orbital   3 d accepted.
  | Species C :    hydro orbital   3 d accepted.
  | Species C :    hydro orbital   4 f accepted.
  | Species C :    hydro orbital   5 g accepted.
  | Species N :   atomic orbital   1 s accepted.
  | Species N :    hydro orbital   3 s accepted.
  | Species N :   atomic orbital   2 s accepted.
  | Species N :    hydro orbital   1 s accepted.
  | Species N :    hydro orbital   3 p accepted.
  | Species N :   atomic orbital   2 p accepted.
  | Species N :    hydro orbital   2 p accepted.
  | Species N :    hydro orbital   3 d accepted.
  | Species N :    hydro orbital   3 d accepted.
  | Species N :    hydro orbital   4 f accepted.
  | Species N :    hydro orbital   5 g accepted.
  | Species O :   atomic orbital   1 s accepted.
  | Species O :    hydro orbital   3 s accepted.
  | Species O :   atomic orbital   2 s accepted.
  | Species O :    hydro orbital   1 s accepted.
  | Species O :    hydro orbital   3 p accepted.
  | Species O :   atomic orbital   2 p accepted.
  | Species O :    hydro orbital   2 p accepted.
  | Species O :    hydro orbital   3 d accepted.
  | Species O :    hydro orbital   3 d accepted.
  | Species O :    hydro orbital   4 f accepted.
  | Species O :    hydro orbital   5 g accepted.
 
  Basis size parameters after reduction:
  | Total number of radial functions:       40
  | Total number of basis functions :      840
 
  Testing on-site integration grid accuracy.
  |  Species  Function  <phi|h_atom|phi> (log., in eV)  <phi|h_atom|phi> (rad., in eV)
           1        1                 -6.4869821809                 -6.4870742227
           1        2                 13.5044133542                 13.5041049177
           1        3                 32.7854418792                 32.7779770519
           1        4                 33.7995553101                 33.7152624900 ***
           1        5                 28.8558651799                 28.8558652046
           1        6                 59.6361831893                 59.6362535845
           1        7                 60.2733718049                 60.2733715484
           2        8               -273.2358277112               -273.2358261765
           2        9                -10.7624923123                -10.7625144012
           2       10                 17.4634079027                 17.4634252127
           2       11                 53.0363661832                 53.0366180446
           2       12                 15.0981351967                 15.0981317714
           2       13                  3.8522181899                  3.8522770949
           2       14                 12.1181835661                 12.1206868578
           2       15                 29.4320778347                 29.4320780959
           2       16                 54.8753777694                 54.8752901936
           2       17                 59.3533975461                 59.3533974833
           2       18                 93.4537491195                 93.4537492066
           3       19               -384.4698526889               -384.4698499465
           3       20                 12.5691022037                 12.5690910168
           3       21                -15.7489097511                -15.7489165588
           3       22                 27.0978334940                 27.0985589490
           3       23                 18.5949116966                 18.5949125562
           3       24                  1.2212828291                  1.2212855301
           3       25                 13.4428926797                 13.4434051125
           3       26                 35.9380614500                 35.9380613666
           3       27                 39.9231532098                 39.9231654735
           3       28                 72.9957335806                 72.9957336833
           3       29                116.4231321147                116.4231321431
           4       30               -514.2564144315               -514.2564099626
           4       31                 15.1726678541                 15.1726530877
           4       32                -21.5447785304                -21.5447874973
           4       33                 14.4944558459                 14.4944698284
           4       34                 20.8882174564                 20.8882178906
           4       35                 -2.4850315908                 -2.4850322289
           4       36                 13.8600193195                 13.8599826966
           4       37                 45.8243383616                 45.8243383675
           4       38                 52.1840606465                 52.1840622440
           4       39                 85.4074185510                 85.4074185819
           4       40                142.0983717302                142.0983717339
 * Note: Onsite integrals marked "***" above are less accurate than
 * onsite_accuracy_threshold =    0.03000 eV. Usually, this is harmless.
 * When in doubt, tighten the "radial" and/or "radial_multiplier" flags to check.

  Preparing densities etc. for the partition functions (integrals / Hartree potential).

  Preparations completed.
  max(cpu_time)          :      0.232 s.
  Wall clock time (cpu1) :      0.232 s.
------------------------------------------------------------

------------------------------------------------------------
          Begin self-consistency loop: Initialization.

          Date     :  20170309, Time     :  191211.219
------------------------------------------------------------

  Initializing index lists of integration centers etc. from given atomic structure:
  | Number of centers in hartree potential         :        32
  | Number of centers in hartree multipole         :        32
  | Number of centers in electron density summation:        32
  | Number of centers in basis integrals           :        32
  | Number of centers in integrals                 :        32
  | Number of centers in hamiltonian               :        32
  Using modified Scalapack Eigenvalue solver (ELPA)
  * Using 32 tasks for Scalapack Eigenvalue solver.
  Detailed listing of tasks and assigned k-points:
  (for non-periodic systems, the "k-point" denotes an internal label only)
   Task     0 k-point     1 on eos040
   Task     1 k-point     1 on eos040
   Task     2 k-point     1 on eos040
   Task     3 k-point     1 on eos040
   Task     4 k-point     1 on eos040
   Task     5 k-point     1 on eos040
   Task     6 k-point     1 on eos040
   Task     7 k-point     1 on eos040
   Task     8 k-point     1 on eos040
   Task     9 k-point     1 on eos040
   Task    10 k-point     1 on eos040
   Task    11 k-point     1 on eos040
   Task    12 k-point     1 on eos040
   Task    13 k-point     1 on eos040
   Task    14 k-point     1 on eos040
   Task    15 k-point     1 on eos040
   Task    16 k-point     1 on eos040
   Task    17 k-point     1 on eos040
   Task    18 k-point     1 on eos040
   Task    19 k-point     1 on eos040
   Task    20 k-point     1 on eos040
   Task    21 k-point     1 on eos040
   Task    22 k-point     1 on eos040
   Task    23 k-point     1 on eos040
   Task    24 k-point     1 on eos040
   Task    25 k-point     1 on eos040
   Task    26 k-point     1 on eos040
   Task    27 k-point     1 on eos040
   Task    28 k-point     1 on eos040
   Task    29 k-point     1 on eos040
   Task    30 k-point     1 on eos040
   Task    31 k-point     1 on eos040
  Tasks:    32 split into      8 X      4 BLACS grid
  Calculating blocksize based on n_basis =          840 max_nprow =            8 max_npcol =            4
  Scalapack blocksize set to:           16
  Required Scalapack workspace - INTEGER:            1 REAL:             1
  Partitioning the integration grid into batches with parallel hashing+maxmin method.
  | Number of batches:     5038
  | Maximal batch size:     200
  | Minimal batch size:      15
  | Average batch size:     104.750
  | Standard deviation of batch sizes:      28.529

  Integration load balanced across    32 MPI tasks.
  Work distribution over tasks is as follows:
  Task     0 has      16441 integration points.
  Task     1 has      16434 integration points.
  Task     2 has      16552 integration points.
  Task     3 has      16531 integration points.
  Task     4 has      16511 integration points.
  Task     5 has      16537 integration points.
  Task     6 has      16516 integration points.
  Task     7 has      16487 integration points.
  Task     8 has      16437 integration points.
  Task     9 has      16532 integration points.
  Task    10 has      16516 integration points.
  Task    11 has      16532 integration points.
  Task    12 has      16407 integration points.
  Task    13 has      16454 integration points.
  Task    14 has      16536 integration points.
  Task    15 has      16544 integration points.
  Task    16 has      16519 integration points.
  Task    17 has      16407 integration points.
  Task    18 has      16433 integration points.
  Task    19 has      16417 integration points.
  Task    20 has      16540 integration points.
  Task    21 has      16496 integration points.
  Task    22 has      16408 integration points.
  Task    23 has      16574 integration points.
  Task    24 has      16458 integration points.
  Task    25 has      16526 integration points.
  Task    26 has      16412 integration points.
  Task    27 has      16545 integration points.
  Task    28 has      16534 integration points.
  Task    29 has      16541 integration points.
  Task    30 has      16445 integration points.
  Task    31 has      16506 integration points.
  Initializing partition tables, free-atom densities, potentials, etc. across the integration grid (initialize_grid_storage).
  | initialize_grid_storage: Actual outermost partition radius vs. multipole_radius_free
  | (-- VB: in principle, multipole_radius_free should be larger, hence this output)
  | Species        1: Confinement radius =              6.000000000000000 AA, multipole_radius_free =              6.071692442739658 AA.
  | Species        1: outer_partition_radius set to              6.071692442739658 AA .
  | Species        2: Confinement radius =              6.000000000000000 AA, multipole_radius_free =              6.029870734432609 AA.
  | Species        2: outer_partition_radius set to              6.029870734432609 AA .
  | Species        3: Confinement radius =              6.000000000000000 AA, multipole_radius_free =              6.058726835495003 AA.
  | Species        3: outer_partition_radius set to              6.058726835495003 AA .
  | Species        4: Confinement radius =              6.000000000000000 AA, multipole_radius_free =              6.064445521808699 AA.
  | Species        4: outer_partition_radius set to              6.064445521808699 AA .
  | Original list of interatomic distances with          32 x         32 entries is created.
  | Net number of integration points:   527728
  | of which are non-zero points    :   414217
  Obtaining max. number of non-zero basis functions in each batch (get_n_compute_maxes).
  | Maximal number of non-zero basis functions:      732 in task     0
  | Maximal number of non-zero basis functions:      740 in task     1
  | Maximal number of non-zero basis functions:      740 in task     2
  | Maximal number of non-zero basis functions:      730 in task     3
  | Maximal number of non-zero basis functions:      743 in task     4
  | Maximal number of non-zero basis functions:      742 in task     5
  | Maximal number of non-zero basis functions:      730 in task     6
  | Maximal number of non-zero basis functions:      741 in task     7
  | Maximal number of non-zero basis functions:      738 in task     8
  | Maximal number of non-zero basis functions:      743 in task     9
  | Maximal number of non-zero basis functions:      746 in task    10
  | Maximal number of non-zero basis functions:      755 in task    11
  | Maximal number of non-zero basis functions:      733 in task    12
  | Maximal number of non-zero basis functions:      748 in task    13
  | Maximal number of non-zero basis functions:      746 in task    14
  | Maximal number of non-zero basis functions:      740 in task    15
  | Maximal number of non-zero basis functions:      742 in task    16
  | Maximal number of non-zero basis functions:      742 in task    17
  | Maximal number of non-zero basis functions:      740 in task    18
  | Maximal number of non-zero basis functions:      743 in task    19
  | Maximal number of non-zero basis functions:      741 in task    20
  | Maximal number of non-zero basis functions:      726 in task    21
  | Maximal number of non-zero basis functions:      740 in task    22
  | Maximal number of non-zero basis functions:      742 in task    23
  | Maximal number of non-zero basis functions:      745 in task    24
  | Maximal number of non-zero basis functions:      746 in task    25
  | Maximal number of non-zero basis functions:      744 in task    26
  | Maximal number of non-zero basis functions:      743 in task    27
  | Maximal number of non-zero basis functions:      735 in task    28
  | Maximal number of non-zero basis functions:      747 in task    29
  | Maximal number of non-zero basis functions:      755 in task    30
  | Maximal number of non-zero basis functions:      741 in task    31
  Selecting the method for density update.
  Loop over occupied states selected for charge density update.
  Integrating Hamiltonian matrix: batch-based integration.
  Time summed over all CPUs for integration: real work       21.344 s, elapsed       22.250 s
  Integrating overlap matrix.
  Time summed over all CPUs for integration: real work       12.892 s, elapsed       13.322 s
  Deallocating overlap matrix.

  Updating Kohn-Sham eigenvalues, eigenvectors, occupation numbers, and Fermi level.
  Solving generalized eigenproblem
  Solving real symmetric generalised eigenvalue problem by standard ScaLAPACK.
  Transforming overlap matrix with ScaLAPACK and checking for singularities.
  : Overlap matrix is nonsingular, using Cholesky decomposition
  | Lowest eigenvalue:  0.100597E-03
  Factoring overlap matrix with Cholesky decomposition
  Using Cholesky factor for transformation
  Using 1-stage real ELPA solver
  Determining occupation numbers for Kohn-Sham eigenstates.
  | Chemical potential (Fermi level) in eV                 : -.95185390E+01
  | Error in electron count due to remaining E_F inaccuracy: 0.00000000E+00
  | Maximum occupation number of highest empty state:  0.00E+00

  Writing Kohn-Sham eigenvalues.

  State    Occupation    Eigenvalue [Ha]    Eigenvalue [eV]
      1       2.00000         -18.975678         -516.35446
      2       2.00000         -18.974790         -516.33030
      3       2.00000         -18.974361         -516.31864
      4       2.00000         -14.254664         -387.88913
      5       2.00000         -14.252435         -387.82850
      6       2.00000         -14.252308         -387.82504
      7       2.00000         -10.171537         -276.78162
      8       2.00000         -10.171147         -276.77099
      9       2.00000         -10.170746         -276.76007
     10       2.00000         -10.166592         -276.64705
     11       2.00000         -10.148617         -276.15791
     12       2.00000         -10.146807         -276.10866
     13       2.00000         -10.135400         -275.79827
     14       2.00000         -10.133775         -275.75405
     15       2.00000         -10.132455         -275.71812
     16       2.00000          -1.136393          -30.92284
     17       2.00000          -1.132297          -30.81137
     18       2.00000          -1.129631          -30.73883
     19       2.00000          -1.016101          -27.64950
     20       2.00000          -1.013039          -27.56621
     21       2.00000          -1.005182          -27.35240
     22       2.00000          -0.885487          -24.09533
     23       2.00000          -0.876877          -23.86103
     24       2.00000          -0.840437          -22.86944
     25       2.00000          -0.816652          -22.22224
     26       2.00000          -0.774126          -21.06503
     27       2.00000          -0.766600          -20.86025
     28       2.00000          -0.703018          -19.13008
     29       2.00000          -0.684357          -18.62230
     30       2.00000          -0.664049          -18.06969
     31       2.00000          -0.632035          -17.19855
     32       2.00000          -0.621844          -16.92123
     33       2.00000          -0.616646          -16.77979
     34       2.00000          -0.612218          -16.65931
     35       2.00000          -0.591001          -16.08195
     36       2.00000          -0.579134          -15.75903
     37       2.00000          -0.564858          -15.37057
     38       2.00000          -0.560588          -15.25436
     39       2.00000          -0.556696          -15.14846
     40       2.00000          -0.554771          -15.09610
     41       2.00000          -0.550940          -14.99184
     42       2.00000          -0.547268          -14.89192
     43       2.00000          -0.532238          -14.48294
     44       2.00000          -0.529332          -14.40386
     45       2.00000          -0.520763          -14.17069
     46       2.00000          -0.516405          -14.05210
     47       2.00000          -0.510199          -13.88323
     48       2.00000          -0.500701          -13.62476
     49       2.00000          -0.495328          -13.47856
     50       2.00000          -0.485364          -13.20743
     51       2.00000          -0.483786          -13.16450
     52       2.00000          -0.476094          -12.95518
     53       2.00000          -0.411227          -11.19006
     54       2.00000          -0.406588          -11.06383
     55       2.00000          -0.402193          -10.94424
     56       2.00000          -0.384671          -10.46744
     57       2.00000          -0.383015          -10.42236
     58       2.00000          -0.380325          -10.34916
     59       0.00000          -0.172088           -4.68277
     60       0.00000          -0.159017           -4.32708
     61       0.00000          -0.149750           -4.07489
     62       0.00000          -0.087099           -2.37008
     63       0.00000          -0.068922           -1.87545
     64       0.00000          -0.060386           -1.64317
     65       0.00000          -0.056832           -1.54648
     66       0.00000          -0.044076           -1.19936
     67       0.00000          -0.041682           -1.13423
     68       0.00000          -0.033341           -0.90726
     69       0.00000          -0.027344           -0.74408
     70       0.00000          -0.024000           -0.65308
     71       0.00000          -0.018084           -0.49208
     72       0.00000          -0.015974           -0.43468
     73       0.00000          -0.014078           -0.38309
     74       0.00000          -0.007400           -0.20138
     75       0.00000          -0.004379           -0.11917
     76       0.00000          -0.002429           -0.06609
     77       0.00000          -0.001504           -0.04092
     78       0.00000           0.004787            0.13027
     79       0.00000           0.006770            0.18422
     80       0.00000           0.016517            0.44945
     81       0.00000           0.020024            0.54487
     82       0.00000           0.029008            0.78934
     83       0.00000           0.034557            0.94034
     84       0.00000           0.040476            1.10142
     85       0.00000           0.044839            1.22012
     86       0.00000           0.052058            1.41657
     87       0.00000           0.053914            1.46707
     88       0.00000           0.056669            1.54204
     89       0.00000           0.063433            1.72610
     90       0.00000           0.070616            1.92156
     91       0.00000           0.077412            2.10649
     92       0.00000           0.089184            2.42683
     93       0.00000           0.094532            2.57236
     94       0.00000           0.096013            2.61264
     95       0.00000           0.102421            2.78703
     96       0.00000           0.107461            2.92415
     97       0.00000           0.111174            3.02521
     98       0.00000           0.115061            3.13097
     99       0.00000           0.118211            3.21668
    100       0.00000           0.128797            3.50476
    101       0.00000           0.128879            3.50697
    102       0.00000           0.132899            3.61636
    103       0.00000           0.140240            3.81612
    104       0.00000           0.144155            3.92267
    105       0.00000           0.150333            4.09078
    106       0.00000           0.152495            4.14961
    107       0.00000           0.156228            4.25119
    108       0.00000           0.158079            4.30156
    109       0.00000           0.165822            4.51225
    110       0.00000           0.172079            4.68251
    111       0.00000           0.176175            4.79398
    112       0.00000           0.181281            4.93290
    113       0.00000           0.184314            5.01543
    114       0.00000           0.194754            5.29953
    115       0.00000           0.195611            5.32285
    116       0.00000           0.203816            5.54613
    117       0.00000           0.204222            5.55716
    118       0.00000           0.211242            5.74820
    119       0.00000           0.213004            5.79614
    120       0.00000           0.215374            5.86063
    121       0.00000           0.220736            6.00652
    122       0.00000           0.223362            6.07799
    123       0.00000           0.231330            6.29482
    124       0.00000           0.233037            6.34125
    125       0.00000           0.243610            6.62896
    126       0.00000           0.246691            6.71281
    127       0.00000           0.253745            6.90475
    128       0.00000           0.260456            7.08737
    129       0.00000           0.270621            7.36397

  Highest occupied state (VBM) at    -10.34915923 eV
  | Occupation number:      2.00000000

  Lowest unoccupied state (CBM) at    -4.68276619 eV
  | Occupation number:      0.00000000

  Overall HOMO-LUMO gap:      5.66639305 eV.
  Calculating total energy contributions from superposition of free atom densities.

  Total energy components:
  | Sum of eigenvalues            :        -437.82357397 Ha      -11913.78561444 eV
  | XC energy correction          :         -98.81256280 Ha       -2688.82663970 eV
  | XC potential correction       :         127.01133412 Ha        3456.15424862 eV
  | Free-atom electrostatic energy:        -333.65503573 Ha       -9079.21546770 eV
  | Hartree energy correction     :           0.00000000 Ha           0.00000000 eV
  | vdW energy correction         :           0.00000000 Ha           0.00000000 eV
  | Entropy correction            :          -0.00000000 Ha          -0.00000000 eV
  | ---------------------------
  | Total energy                  :        -743.27983838 Ha      -20225.67347322 eV
  | Total energy, T -> 0          :        -743.27983838 Ha      -20225.67347322 eV  <-- do not rely on this value for anything but (periodic) metals
  | Electronic free energy        :        -743.27983838 Ha      -20225.67347322 eV

  Derived energy quantities:
  | Kinetic energy                :         735.14152952 Ha       20004.21882177 eV
  | Electrostatic energy          :       -1379.60880510 Ha      -37541.06565528 eV
  | Energy correction for multipole
  | error in Hartree potential    :           0.00000000 Ha           0.00000000 eV
  | Sum of eigenvalues per atom                           :        -372.30580045 eV
  | Total energy (T->0) per atom                          :        -632.05229604 eV  <-- do not rely on this value for anything but (periodic) metals
  | Electronic free energy per atom                       :        -632.05229604 eV
  Initialize hartree_potential_storage
  Max. number of atoms included in rho_multipole:           32

  End scf initialization - timings             :  max(cpu_time)    wall_clock(cpu1)
  | Time for scf. initialization               :        1.892 s           1.890 s
  | Boundary condition initialization          :        0.000 s           0.000 s
  | Integration                                :        1.136 s           1.132 s
  | Solution of K.-S. eqns.                    :        0.076 s           0.075 s
  | Grid partitioning                          :        0.340 s           0.337 s
  | Preloading free-atom quantities on grid    :        0.028 s           0.027 s
  | Free-atom superposition energy             :        0.040 s           0.039 s
  | Total energy evaluation                    :        0.000 s           0.001 s
------------------------------------------------------------

------------------------------------------------------------
          Begin self-consistency iteration #    1

  Date     :  20170309, Time     :  191213.110
------------------------------------------------------------
  Evaluating new KS density.
  Integration grid: deviation in total charge (<rho> - N_e) =   0.000000E+00
  Pulay mixing of updated and previous charge densities.

  Evaluating partitioned Hartree potential by multipole expansion.
  | Analytical far-field extrapolation by fixed multipoles:
  | Hartree multipole sum: apparent total charge =   0.232768E-05
  Summing up the Hartree potential.
  Time summed over all CPUs for potential: real work        9.531 s, elapsed        9.753 s
  | RMS charge density error from multipole expansion :   0.107449E-01

  Integrating Hamiltonian matrix: batch-based integration.
  Time summed over all CPUs for integration: real work       21.267 s, elapsed       22.128 s

  Updating Kohn-Sham eigenvalues, eigenvectors, occupation numbers, and Fermi level.
  Solving generalized eigenproblem
  Solving real symmetric generalised eigenvalue problem by standard ScaLAPACK.
  Using Cholesky factor for transformation
  Using 2-stage real ELPA solver
  K-Point:    1, Trafo times: 1-stage=     0.021 s, 2-stage=     0.019 s ==> Using 2-stage solver
  Determining occupation numbers for Kohn-Sham eigenstates.
  | Chemical potential (Fermi level) in eV                 : -.39361231E+01
  | Error in electron count due to remaining E_F inaccuracy: 0.00000000E+00
  | Maximum occupation number of highest empty state:  0.00E+00

  Writing Kohn-Sham eigenvalues.

  State    Occupation    Eigenvalue [Ha]    Eigenvalue [eV]
      1       2.00000         -18.619560         -506.66401
      2       2.00000         -18.616027         -506.56786
      3       2.00000         -18.599261         -506.11165
      4       2.00000         -13.996455         -380.86292
      5       2.00000         -13.995341         -380.83260
      6       2.00000         -13.978694         -380.37963
      7       2.00000         -10.060639         -273.76392
      8       2.00000         -10.060321         -273.75526
      9       2.00000         -10.036800         -273.11523
     10       2.00000          -9.973511         -271.39305
     11       2.00000          -9.967992         -271.24285
     12       2.00000          -9.911384         -269.70248
     13       2.00000          -9.839118         -267.73603
     14       2.00000          -9.832041         -267.54345
     15       2.00000          -9.830047         -267.48918
     16       2.00000          -0.970281          -26.40268
     17       2.00000          -0.963279          -26.21215
     18       2.00000          -0.940973          -25.60519
     19       2.00000          -0.871820          -23.72343
     20       2.00000          -0.864291          -23.51856
     21       2.00000          -0.857981          -23.34686
     22       2.00000          -0.738339          -20.09123
     23       2.00000          -0.727517          -19.79675
     24       2.00000          -0.687644          -18.71175
     25       2.00000          -0.678292          -18.45726
     26       2.00000          -0.633194          -17.23007
     27       2.00000          -0.627108          -17.06446
     28       2.00000          -0.578489          -15.74148
     29       2.00000          -0.560645          -15.25592
     30       2.00000          -0.533963          -14.52986
     31       2.00000          -0.498622          -13.56821
     32       2.00000          -0.492143          -13.39190
     33       2.00000          -0.486017          -13.22519
     34       2.00000          -0.474274          -12.90566
     35       2.00000          -0.454052          -12.35540
     36       2.00000          -0.439145          -11.94975
     37       2.00000          -0.431264          -11.73528
     38       2.00000          -0.419409          -11.41271
     39       2.00000          -0.413439          -11.25025
     40       2.00000          -0.407516          -11.08908
     41       2.00000          -0.396055          -10.77721
     42       2.00000          -0.388908          -10.58272
     43       2.00000          -0.380828          -10.36287
     44       2.00000          -0.377281          -10.26634
     45       2.00000          -0.369279          -10.04860
     46       2.00000          -0.365589           -9.94819
     47       2.00000          -0.358496           -9.75517
     48       2.00000          -0.351762           -9.57192
     49       2.00000          -0.348528           -9.48394
     50       2.00000          -0.345240           -9.39445
     51       2.00000          -0.340290           -9.25977
     52       2.00000          -0.323556           -8.80442
     53       2.00000          -0.240960           -6.55686
     54       2.00000          -0.237050           -6.45047
     55       2.00000          -0.232461           -6.32559
     56       2.00000          -0.215192           -5.85568
     57       2.00000          -0.211778           -5.76278
     58       2.00000          -0.192390           -5.23521
     59       0.00000          -0.061257           -1.66688
     60       0.00000          -0.049757           -1.35396
     61       0.00000          -0.042163           -1.14731
     62       0.00000          -0.031401           -0.85445
     63       0.00000          -0.027494           -0.74815
     64       0.00000          -0.022270           -0.60599
     65       0.00000          -0.010861           -0.29555
     66       0.00000          -0.001696           -0.04614
     67       0.00000           0.011911            0.32412
     68       0.00000           0.016724            0.45509
     69       0.00000           0.018137            0.49352
     70       0.00000           0.028509            0.77578
     71       0.00000           0.035345            0.96179
     72       0.00000           0.040307            1.09682
     73       0.00000           0.045408            1.23563
     74       0.00000           0.049040            1.33445
     75       0.00000           0.051708            1.40704
     76       0.00000           0.053462            1.45476
     77       0.00000           0.060221            1.63869
     78       0.00000           0.071449            1.94424
     79       0.00000           0.075844            2.06382
     80       0.00000           0.080641            2.19435
     81       0.00000           0.086355            2.34983
     82       0.00000           0.093712            2.55004
     83       0.00000           0.102867            2.79914
     84       0.00000           0.107381            2.92199
     85       0.00000           0.109652            2.98379
     86       0.00000           0.113188            3.07999
     87       0.00000           0.118176            3.21573
     88       0.00000           0.122633            3.33701
     89       0.00000           0.129646            3.52785
     90       0.00000           0.135259            3.68059
     91       0.00000           0.148696            4.04622
     92       0.00000           0.149435            4.06632
     93       0.00000           0.158124            4.30277
     94       0.00000           0.161655            4.39885
     95       0.00000           0.169104            4.60155
     96       0.00000           0.171627            4.67022
     97       0.00000           0.175028            4.76276
     98       0.00000           0.179735            4.89085
     99       0.00000           0.184977            5.03348
    100       0.00000           0.187861            5.11195
    101       0.00000           0.199123            5.41841
    102       0.00000           0.200882            5.46626
    103       0.00000           0.203311            5.53238
    104       0.00000           0.205988            5.60521
    105       0.00000           0.209235            5.69357
    106       0.00000           0.212591            5.78489
    107       0.00000           0.215652            5.86818
    108       0.00000           0.221912            6.03854
    109       0.00000           0.225550            6.13752
    110       0.00000           0.230472            6.27146
    111       0.00000           0.236523            6.43612
    112       0.00000           0.240142            6.53460
    113       0.00000           0.243347            6.62182
    114       0.00000           0.252210            6.86298
    115       0.00000           0.255531            6.95335
    116       0.00000           0.261993            7.12919
    117       0.00000           0.265072            7.21297
    118       0.00000           0.270418            7.35845
    119       0.00000           0.274108            7.45885
    120       0.00000           0.277300            7.54571
    121       0.00000           0.288067            7.83871
    122       0.00000           0.290371            7.90141
    123       0.00000           0.297599            8.09809
    124       0.00000           0.305438            8.31139
    125       0.00000           0.312288            8.49778
    126       0.00000           0.316021            8.59938
    127       0.00000           0.325535            8.85827
    128       0.00000           0.328466            8.93800
    129       0.00000           0.338464            9.21009

  Highest occupied state (VBM) at     -5.23521161 eV
  | Occupation number:      2.00000000

  Lowest unoccupied state (CBM) at    -1.66688462 eV
  | Occupation number:      0.00000000

  Overall HOMO-LUMO gap:      3.56832699 eV.

  Total energy components:
  | Sum of eigenvalues            :        -417.48506967 Ha      -11360.34675369 eV
  | XC energy correction          :        -100.74738274 Ha       -2741.47576915 eV
  | XC potential correction       :         129.52053486 Ha        3524.43307465 eV
  | Free-atom electrostatic energy:        -333.65503573 Ha       -9079.21546770 eV
  | Hartree energy correction     :         -20.34151143 Ha        -553.52068890 eV
  | vdW energy correction         :           0.00000000 Ha           0.00000000 eV
  | Entropy correction            :          -0.00000000 Ha          -0.00000000 eV
  | ---------------------------
  | Total energy                  :        -742.70846472 Ha      -20210.12560480 eV
  | Total energy, T -> 0          :        -742.70846472 Ha      -20210.12560480 eV  <-- do not rely on this value for anything but (periodic) metals
  | Electronic free energy        :        -742.70846472 Ha      -20210.12560480 eV

  Derived energy quantities:
  | Kinetic energy                :         744.02908722 Ha       20246.06157150 eV
  | Electrostatic energy          :       -1385.99016919 Ha      -37714.71140714 eV
  | Energy correction for multipole
  | error in Hartree potential    :          -0.04104384 Ha          -1.11685965 eV
  | Sum of eigenvalues per atom                           :        -355.01083605 eV
  | Total energy (T->0) per atom                          :        -631.56642515 eV  <-- do not rely on this value for anything but (periodic) metals
  | Electronic free energy per atom                       :        -631.56642515 eV

  Self-consistency convergence accuracy:
  | Change of charge density      :  0.9041E+00
  | Change of sum of eigenvalues  :  0.5534E+03 eV
  | Change of total energy        :  0.1555E+02 eV

  End self-consistency iteration #     1       :  max(cpu_time)    wall_clock(cpu1)
  | Time for this iteration                    :        1.532 s           1.531 s
  | Charge density update                      :        0.484 s           0.480 s
[...]
   ----------------------------------------------------------------
   Total forces(  20)            : -0.169988E-02 -0.103733E-02 -0.197734E-02
  atom #   21
   Hellmann-Feynman              : -0.134262E-01 -0.354612E-01 -0.410545E-01
   Ionic forces                  :  0.000000E+00  0.000000E+00  0.000000E+00
   Multipole                     : -0.125441E-01 -0.108724E-01  0.379481E-01
   Pulay + GGA                   :  0.336321E-01  0.524560E-01  0.114739E-01
   Van der Waals                 : -0.868750E-02 -0.576518E-02 -0.769714E-02
   ----------------------------------------------------------------
   Total forces(  21)            : -0.102575E-02  0.357262E-03  0.670422E-03
  atom #   22
   Hellmann-Feynman              :  0.490648E-01  0.362390E-01  0.213286E-01
   Ionic forces                  :  0.000000E+00  0.000000E+00  0.000000E+00
   Multipole                     :  0.189681E-02 -0.672359E-02  0.104304E-01
   Pulay + GGA                   : -0.479594E-01 -0.342748E-01 -0.374205E-01
   Van der Waals                 : -0.294431E-02  0.459196E-02  0.609515E-02
   ----------------------------------------------------------------
   Total forces(  22)            :  0.578476E-04 -0.167425E-03  0.433624E-03
  atom #   23
   Hellmann-Feynman              :  0.839040E+00 -0.174437E+00  0.746356E+00
   Ionic forces                  :  0.000000E+00  0.000000E+00  0.000000E+00
   Multipole                     : -0.265432E+00  0.118671E-01 -0.253699E+00
   Pulay + GGA                   : -0.566222E+00  0.171972E+00 -0.477321E+00
   Van der Waals                 : -0.657865E-02 -0.897598E-02 -0.136750E-01
   ----------------------------------------------------------------
   Total forces(  23)            :  0.807988E-03  0.426220E-03  0.166057E-02
  atom #   24
   Hellmann-Feynman              : -0.266915E-01  0.351022E-01 -0.147297E-01
   Ionic forces                  :  0.000000E+00  0.000000E+00  0.000000E+00
   Multipole                     :  0.420444E-02  0.113444E-01  0.355432E-01
   Pulay + GGA                   :  0.204213E-01 -0.494285E-01 -0.184769E-01
   Van der Waals                 :  0.186937E-02  0.318535E-02 -0.286592E-02
   ----------------------------------------------------------------
   Total forces(  24)            : -0.196372E-03  0.203473E-03 -0.529290E-03
  atom #   25
   Hellmann-Feynman              :  0.274002E-02  0.396349E-01 -0.382220E-01
   Ionic forces                  :  0.000000E+00  0.000000E+00  0.000000E+00
   Multipole                     :  0.336521E-01 -0.883797E-03 -0.211965E-02
   Pulay + GGA                   : -0.390115E-01 -0.328370E-01  0.429922E-01
   Van der Waals                 :  0.384870E-02 -0.573029E-02 -0.147434E-02
   ----------------------------------------------------------------
   Total forces(  25)            :  0.122932E-02  0.183801E-03  0.117629E-02
  atom #   26
   Hellmann-Feynman              : -0.608546E-01  0.668567E-02 -0.176406E-01
   Ionic forces                  :  0.000000E+00  0.000000E+00  0.000000E+00
   Multipole                     :  0.184405E-02 -0.289482E-01  0.708711E-02
   Pulay + GGA                   :  0.537787E-01  0.299865E-01  0.710611E-02
   Van der Waals                 :  0.626242E-02 -0.774738E-02  0.285177E-02
   ----------------------------------------------------------------
   Total forces(  26)            :  0.103054E-02 -0.234647E-04 -0.595560E-03
  atom #   27
   Hellmann-Feynman              :  0.514903E-01 -0.114101E+00  0.204092E+01
   Ionic forces                  :  0.000000E+00  0.000000E+00  0.000000E+00
   Multipole                     :  0.101826E+00  0.497406E-01  0.113496E+00
   Pulay + GGA                   : -0.160069E+00  0.694857E-01 -0.215243E+01
   Van der Waals                 :  0.712010E-02 -0.301606E-02 -0.699957E-03
   ----------------------------------------------------------------
   Total forces(  27)            :  0.367509E-03  0.210942E-02  0.129001E-02
  atom #   28
   Hellmann-Feynman              : -0.107758E+01 -0.692511E+00 -0.170166E+01
   Ionic forces                  :  0.000000E+00  0.000000E+00  0.000000E+00
   Multipole                     :  0.314945E-01  0.337643E-01  0.114555E+00
   Pulay + GGA                   :  0.103600E+01  0.657036E+00  0.159101E+01
   Van der Waals                 :  0.830983E-02 -0.323954E-03 -0.794154E-02
   ----------------------------------------------------------------
   Total forces(  28)            : -0.177153E-02 -0.203454E-02 -0.403999E-02
  atom #   29
   Hellmann-Feynman              :  0.563466E-01 -0.292873E-01  0.138895E-01
   Ionic forces                  :  0.000000E+00  0.000000E+00  0.000000E+00
   Multipole                     : -0.246353E-01 -0.197354E-01 -0.265272E-01
   Pulay + GGA                   : -0.377395E-01  0.555597E-01  0.136024E-01
   Van der Waals                 :  0.603652E-02 -0.658606E-02 -0.167200E-02
   ----------------------------------------------------------------
   Total forces(  29)            :  0.830339E-05 -0.489997E-04 -0.707321E-03
  atom #   30
   Hellmann-Feynman              :  0.407078E-01  0.383291E-02  0.429880E-01
   Ionic forces                  :  0.000000E+00  0.000000E+00  0.000000E+00
   Multipole                     :  0.118824E-01 -0.274886E-01 -0.357677E-01
   Pulay + GGA                   : -0.589233E-01  0.283101E-01 -0.746181E-02
   Van der Waals                 :  0.594470E-02 -0.427737E-02 -0.576760E-04
   ----------------------------------------------------------------
   Total forces(  30)            : -0.388414E-03  0.377067E-03 -0.299186E-03
  atom #   31
   Hellmann-Feynman              : -0.129328E-01  0.531912E-01  0.438627E-01
   Ionic forces                  :  0.000000E+00  0.000000E+00  0.000000E+00
   Multipole                     :  0.157169E-01  0.205293E-01 -0.273231E-01
   Pulay + GGA                   : -0.108933E-02 -0.708305E-01 -0.100356E-01
   Van der Waals                 : -0.157248E-02 -0.202093E-02 -0.645544E-02
   ----------------------------------------------------------------
   Total forces(  31)            :  0.122257E-03  0.869023E-03  0.485660E-04
  atom #   32
   Hellmann-Feynman              :  0.621934E-02  0.326802E-01  0.622520E-01
   Ionic forces                  :  0.000000E+00  0.000000E+00  0.000000E+00
   Multipole                     : -0.147138E-01 -0.166695E-01  0.120084E-01
   Pulay + GGA                   :  0.843102E-02 -0.145888E-01 -0.668267E-01
   Van der Waals                 : -0.267351E-04 -0.108114E-02 -0.714457E-02
   ----------------------------------------------------------------
   Total forces(  32)            : -0.902094E-04  0.340863E-03  0.289205E-03

  Timings for VdW correction (Tkatchenko-Scheffler 2009 or later):
  | CPU time:        0.124 s, Wall clock time:        0.123 s.
  Removing unitary transformations (pure translations, rotations) from forces on atoms.
  Atomic forces before filtering:
  | Net force on center of mass :   0.260777E-04 -0.518957E-03 -0.420166E-03 eV/A
  | Net torque on center of mass:  -0.112689E-02  0.742523E-03 -0.438737E-02 eV
  Atomic forces after filtering:
  | Net force on center of mass :  -0.108890E-18 -0.784011E-18  0.696899E-18 eV/A
  | Net torque on center of mass:  -0.928296E-17 -0.590053E-17  0.875860E-18 eV

  Energy and forces in a compact form:
  | Total energy uncorrected      :         -0.202083433940071E+05 eV
  | Total energy corrected        :         -0.202083433940074E+05 eV  <-- do not rely on this value for anything but (periodic) metals
  | Electronic free energy        :         -0.202083433940076E+05 eV
  Total atomic forces (unitary forces cleaned) [eV/Ang]:
  |   1          0.534072151918526E-03         -0.270546553829611E-03         -0.679085566682569E-03
  |   2         -0.168729592740849E-02          0.314343630730154E-03          0.142730590733062E-02
  |   3         -0.862672708365223E-03         -0.479667824902883E-03         -0.426222027714859E-03
  |   4          0.183687143684570E-03          0.260039251188814E-03          0.591630517972057E-03
  |   5         -0.578822400307496E-03          0.754748971171337E-03          0.293245521474067E-03
  |   6         -0.242876508232260E-03          0.653495571283724E-03          0.406391429429886E-03
  |   7          0.242950163610404E-02          0.699896295625831E-03         -0.178370255526756E-02
  |   8         -0.262956385850618E-02         -0.194333879705335E-02         -0.148259433260180E-02
  |   9          0.258849889499307E-02          0.490266720359746E-02         -0.469185092064924E-03
  |  10         -0.131414928903699E-02         -0.136734370480470E-02          0.187811314853471E-02
  |  11          0.476991156483079E-03         -0.468916255987704E-03          0.108742338808234E-02
  |  12          0.939274400773575E-03         -0.313834781641472E-04          0.537692688079728E-03
  |  13          0.170864353150468E-02         -0.237981967613118E-02          0.252526387972303E-02
  |  14         -0.343252295438135E-03         -0.136146597244666E-02         -0.841482012470949E-03
  |  15         -0.593664320832576E-03         -0.118881641926405E-02         -0.986377267489267E-03
  |  16         -0.248908628636544E-03         -0.297937197049153E-03         -0.146097694406685E-02
  |  17          0.277833875692096E-02         -0.477729677862535E-03         -0.419894042426303E-02
  |  18         -0.312705128505814E-02         -0.590146484053616E-03          0.296359104403114E-02
  |  19          0.191342877880719E-02          0.183510730848941E-02          0.297288646310761E-02
  |  20         -0.176715801661154E-02         -0.102897867036873E-02         -0.196259395843695E-02
  |  21         -0.108323036938069E-02          0.416661416948566E-03          0.677005557433177E-03
  |  22          0.696166338085819E-04         -0.174393689390007E-03          0.450367979077924E-03
  |  23          0.821006116329175E-03          0.472812097348530E-03          0.166879788450080E-02
  |  24         -0.158174970984565E-03          0.268951432623982E-03         -0.524198457370762E-03
  |  25          0.125812614508532E-02          0.211214688275577E-03          0.118748090871462E-02
  |  26          0.102033651689182E-02          0.454506358614199E-04         -0.590748609252939E-03
  |  27          0.305101409032265E-03          0.206361082085708E-02          0.131333238789062E-02
  |  28         -0.181954248241094E-02         -0.210082420721546E-02         -0.401349667697241E-02
  |  29         -0.808490635383604E-04         -0.107404433163319E-03         -0.681852088203555E-03
  |  30         -0.451688759283370E-03          0.278658383778087E-03         -0.267505174802038E-03
  |  31          0.110043214340574E-03          0.797782462442655E-03          0.756499345753860E-04
  |  32         -0.147765602645921E-03          0.293272871464487E-03          0.312782547702774E-03

  ------------------------------------ 
  Start decomposition of the XC Energy 
  ------------------------------------ 
  Hartree-Fock part   :          0.000000000 Ha              0.000000000 eV
  ------------------------------------ 
  X Energy            :        -96.978035739 Ha          -2638.906618542 eV
  C Energy GGA        :         -3.867799138 Ha           -105.248169507 eV
  Total XC Energy     :       -100.845834877 Ha          -2744.154788050 eV
  LDA X and C from self-consistent density 
  X Energy LDA        :        -87.993184851 Ha          -2394.416386358 eV
  C Energy LDA        :         -7.531518413 Ha           -204.943043402 eV
  ------------------------------------ 
  End decomposition of the XC Energy 
  ------------------------------------ 
   
  ESP charge fitting starts.
  | Calculation :  00000001  of  00000001
  | Full density
  Computing multipole expansion for total density.
  Generating points for esp charges.
  Partitioning the integration grid into batches with parallel hashing+maxmin method.
  | Number of batches:     3875
  | Maximal batch size:     189
  | Minimal batch size:      55
  | Average batch size:     125.765
  | Standard deviation of batch sizes:      16.450

  Integration load balanced across    32 MPI tasks.
  Work distribution over tasks is as follows:
  Initializing partition tables, free-atom densities, potentials, etc. across the integration grid (initialize_grid_storage).
  | Original list of interatomic distances with          32 x         32 entries is created.
  | Net number of integration points:   487340
  | of which are non-zero points    :   487340
  Summing up potential from multipole expanded  density.
  Summing up the Hartree potential.
  Time summed over all CPUs for potential: real work        6.307 s, elapsed        6.510 s
  Fitting esp charges to potential.
  |
  | ESP charges fitted to the electrostatic potential :
  |
  | Atom         1: C, ESP charge:      0.67304369
  |
  | Atom         2: C, ESP charge:     -0.92947273
  |
  | Atom         3: O, ESP charge:      0.60616090
  |
  | Atom         4: H, ESP charge:     -0.17160104
  |
  | Atom         5: H, ESP charge:     -0.17544951
  |
  | Atom         6: H, ESP charge:     -0.18520366
  |
  | Atom         7: N, ESP charge:      0.99400513
  |
  | Atom         8: C, ESP charge:     -0.94119364
  |
  | Atom         9: C, ESP charge:     -0.21586873
  |
  | Atom        10: O, ESP charge:      0.47423098
  |
  | Atom        11: H, ESP charge:     -0.34338041
  |
  | Atom        12: H, ESP charge:      0.12775624
  |
  | Atom        13: C, ESP charge:      0.39397442
  |
  | Atom        14: H, ESP charge:     -0.03001383
  |
  | Atom        15: H, ESP charge:     -0.15444391
  |
  | Atom        16: H, ESP charge:     -0.08785323
  |
  | Atom        17: N, ESP charge:      0.51768217
  |
  | Atom        18: C, ESP charge:     -0.46771302
  |
  | Atom        19: C, ESP charge:     -0.26124800
  |
  | Atom        20: O, ESP charge:      0.47340050
  |
  | Atom        21: H, ESP charge:     -0.34225138
  |
  | Atom        22: H, ESP charge:      0.00984809
  |
  | Atom        23: C, ESP charge:      0.44434682
  |
  | Atom        24: H, ESP charge:     -0.08407873
  |
  | Atom        25: H, ESP charge:     -0.12978491
  |
  | Atom        26: H, ESP charge:     -0.13368586
  |
  | Atom        27: N, ESP charge:      0.43215443
  |
  | Atom        28: C, ESP charge:     -0.06282392
  |
  | Atom        29: H, ESP charge:     -0.32468765
  |
  | Atom        30: H, ESP charge:     -0.06599116
  |
  | Atom        31: H, ESP charge:     -0.01290730
  |
  | Atom        32: H, ESP charge:     -0.02695075

  RRMS:       0.00314685

  Done.

------------------------------------------------------------------------------
  Final output of selected total energy values:

  The following output summarizes some interesting total energy values
  at the end of a run (AFTER all relaxation, molecular dynamics, etc.).

  | Total energy of the DFT / Hartree-Fock s.c.f. calculation      :         -20208.343394007 eV
  | Final zero-broadening corrected energy (caution - metals only) :         -20208.343394007 eV
  | For reference only, the value of 1 Hartree used in FHI-aims is :             27.211384500 eV

  Before relying on these values, please be sure to understand exactly which
  total energy value is referred to by a given number. Different objects may
  all carry the same name 'total energy'. Definitions:

  Total energy of the DFT / Hartree-Fock s.c.f. calculation:
  | Note that this energy does not include ANY quantities calculated after the
  | s.c.f. cycle, in particular not ANY RPA, MP2, etc. many-body perturbation terms.

  Final zero-broadening corrected energy:
  | For metallic systems only, a broadening of the occupation numbers at the Fermi
  | level can be extrapolated back to zero broadening by an electron-gas inspired
  | formula. For all systems that are not real metals, this value can be
  | meaningless and should be avoided.

------------------------------------------------------------------------------
  Methods described in the following list of references were used in this FHI-aims run.
  If you publish the results, please make sure to cite these reference if they apply.
  FHI-aims is an academic code, and for our developers (often, Ph.D. students
  and postdocs), scientific credit in the community is essential.
  Thank you for helping us!

  For any use of FHI-aims, please cite:

    Volker Blum, Ralf Gehrke, Felix Hanke, Paula Havu, Ville Havu,
    Xinguo Ren, Karsten Reuter, and Matthias Scheffler
    'Ab initio molecular simulations with numeric atom-centered orbitals'
    Computer Physics Communications 180, 2175-2196 (2009)
    http://dx.doi.org/10.1016/j.cpc.2009.06.022


  The scalable eigensolver library ELPA was used in your run.
  ELPA is essential especially for large systems on hundreds or thousands of CPUs.
  For ELPA, please cite:

    Andreas Marek, Volker Blum, Rainer Johanni, Ville Havu, Bruno Lang,
    Thomas Auckenthaler, Alexander Heinecke, Hans-Joachim Bungartz, and Hermann Lederer,
    'The ELPA Library - Scalable Parallel Eigenvalue Solutions
    for Electronic Structure Theory and Computational Science'
    The Journal of Physics: Condensed Matter 26, 213201 (2014).
    http://dx.doi.org/10.1088/0953-8984/26/21/213201


  For ELPA's efficient two-stage tridiagonalization used in your run, please cite:

    T. Auckenthaler, V. Blum, H.-J. Bungartz, T. Huckle, R. Johanni, L. Kraemer,
    B. Lang, H. Lederer, and P. R. Willems,
    'Parallel solution of partial symmetric eigenvalue problems'
    'from  electronic structure calculations'
    Parallel Computing 37, 783-794 (2011).
    http://dx.doi.org/10.1016/j.parco.2011.05.002


  For the real-space grid partitioning and parallelization used in this calculation, please cite:

    Ville Havu, Volker Blum, Paula Havu, and Matthias Scheffler,
    'Efficient O(N) integration for all-electron electronic structure calculation'
    'using numerically tabulated basis functions'
    Journal of Computational Physics 228, 8367-8379 (2009).
    http://dx.doi.org/10.1016/j.jcp.2009.08.008

  Of course, there are many other important community references, e.g., those cited in the
  above references. Our list is limited to references that describe implementations in the
  FHI-aims code. The reason is purely practical (length of this list) - please credit others as well.

------------------------------------------------------------
          Leaving FHI-aims.
          Date     :  20170309, Time     :  191243.146

          Computational steps:
          | Number of self-consistency cycles          :           14

          Detailed time accounting                     :  max(cpu_time)    wall_clock(cpu1)
          | Total time                                 :       32.754 s          32.944 s
          | Preparation time                           :        0.232 s           0.232 s
          | Grid partitioning                          :        0.340 s           0.337 s
          | Preloading free-atom quantities on grid    :        0.028 s           0.027 s
          | Free-atom superposition energy             :        0.040 s           0.039 s
          | Total time for integrations                :       11.001 s          10.976 s
          | Total time for solution of K.-S. equations :        0.532 s           0.503 s
          | Total time for density & force components  :       11.237 s          11.208 s
          | Total time for mixing                      :        0.124 s           0.109 s
          | Total time for Hartree multipole update    :        0.076 s           0.057 s
          | Total time for Hartree multipole sum       :        7.116 s           7.095 s
          | Total time for total energy evaluation     :        0.028 s           0.028 s
          | Total time for vdW correction              :        0.124 s           0.123 s

          Have a nice day.
------------------------------------------------------------
