  MPI-parallelism will be employed.
------------------------------------------------------------
          Invoking FHI-aims ...
          Version 150427
          Git rev.: 9dd23e0 BL: Update Version stamp
          Compiled on 2015/11/03 at 22:05:20 on host eos03.

          When using FHI-aims, please cite the following reference:

          Volker Blum, Ralf Gehrke, Felix Hanke, Paula Havu,
          Ville Havu, Xinguo Ren, Karsten Reuter, and Matthias Scheffler,
          'Ab Initio Molecular Simulations with Numeric Atom-Centered Orbitals: FHI-aims',
          Computer Physics Communications 180, 2175-2196 (2009)

          For any questions about FHI-aims, please visit the aimsclub website
          with its forums and wiki. Contributions to both the forums and the
          wiki are warmly encouraged - they are for you, and everyone is welcome there.

------------------------------------------------------------

  Date     :  20170309, Time     :  160741.150
  Time zero on CPU 1             :   0.372023000000000E+00  s.
  Internal wall clock time zero  :           258307661.150  s.

  Using       32 parallel tasks.
  Task        0 on host eos263 reporting.
  Task        1 on host eos263 reporting.
  Task        2 on host eos263 reporting.
  Task        3 on host eos263 reporting.
  Task        4 on host eos263 reporting.
  Task        5 on host eos263 reporting.
  Task        6 on host eos263 reporting.
  Task        7 on host eos263 reporting.
  Task        8 on host eos263 reporting.
  Task        9 on host eos263 reporting.
  Task       10 on host eos263 reporting.
  Task       11 on host eos263 reporting.
  Task       12 on host eos263 reporting.
  Task       13 on host eos263 reporting.
  Task       14 on host eos263 reporting.
  Task       15 on host eos263 reporting.
  Task       16 on host eos263 reporting.
  Task       17 on host eos263 reporting.
  Task       18 on host eos263 reporting.
  Task       19 on host eos263 reporting.
  Task       20 on host eos263 reporting.
  Task       21 on host eos263 reporting.
  Task       22 on host eos263 reporting.
  Task       23 on host eos263 reporting.
  Task       24 on host eos263 reporting.
  Task       25 on host eos263 reporting.
  Task       26 on host eos263 reporting.
  Task       27 on host eos263 reporting.
  Task       28 on host eos263 reporting.
  Task       29 on host eos263 reporting.
  Task       30 on host eos263 reporting.
  Task       31 on host eos263 reporting.

  Performing system and environment tests:
  | Environment variable OMP_NUM_THREADS correctly set to 1.
  | Stacksize not measured: no C compiler
  | Checking for scalapack...
  | Testing pdtran()...
  | All pdtran() tests passed.

  Obtaining array dimensions for all initial allocations:
  
  -----------------------------------------------------------------------
  Parsing control.in (first pass over file, find array dimensions only).
  The contents of control.in will be repeated verbatim below
  unless switched off by setting 'verbatim_writeout .false.' .
  in the first line of control.in .
  -----------------------------------------------------------------------
  
  #########################################################################################
  #
  # Input for System
  #
  #########################################################################################
  #
  #
  #  Physical model
  #
    xc                 pbe
    vdw_correction_hirshfeld
    spin               none
    charge             0.
  #
  #  SCF convergence
  #
    occupation_type    gaussian 0.05
    mixer              pulay
      n_max_pulay        10
      charge_mix_param   0.5
    sc_accuracy_rho    1E-4
    sc_accuracy_eev    1E-2
    sc_accuracy_etot   1E-5
    sc_accuracy_forces 1E-4
    sc_iter_limit      1000
  #
  #  ESP charge
  #
    output esp
    esp equal_grid_n 80 80 80
  #
  #
  ################################################################################
  #
  #  FHI-aims code project
  # Volker Blum, Fritz Haber Institute Berlin, 2009
  #
  #  Suggested "tight" defaults for H atom (to be pasted into control.in file)
  #
  ################################################################################
    species        H
  #     global species definitions
      nucleus             1
      mass                1.00794
  #
      l_hartree           6
  #
      cut_pot             4.0  2.0  1.0
      basis_dep_cutoff    1e-4
  #
      radial_base         24 7.0
      radial_multiplier   2
      angular_grids       specified
        division   0.1930   50
        division   0.3175  110
        division   0.4293  194
        division   0.5066  302
        division   0.5626  434
  #      division   0.5922  590
  #      division   0.6227  974
  #      division   0.6868 1202
  #      outer_grid  770
        outer_grid  434
  ################################################################################
  #
  #  Definition of "minimal" basis
  #
  ################################################################################
  #     valence basis states
      valence      1  s   1.
  #     ion occupancy
      ion_occ      1  s   0.5
  ################################################################################
  #
  #  Suggested additional basis functions. For production calculations,
  #  uncomment them one after another (the most important basis functions are
  #  listed first).
  #
  #  Basis constructed for dimers: 0.5 A, 0.7 A, 1.0 A, 1.5 A, 2.5 A
  #
  ################################################################################
  #  "First tier" - improvements: -1014.90 meV to -62.69 meV
       hydro 2 s 2.1
       hydro 2 p 3.5
  #  "Second tier" - improvements: -12.89 meV to -1.83 meV
       hydro 1 s 0.85
       hydro 2 p 3.7
       hydro 2 s 1.2
       hydro 3 d 7
  #  "Third tier" - improvements: -0.25 meV to -0.12 meV
  #     hydro 4 f 11.2
  #     hydro 3 p 4.8
  #     hydro 4 d 9
  #     hydro 3 s 3.2
  ################################################################################
  #
  # For methods that use the localized form of the "resolution of identity" for
  # the two-electron Coulomb operator (RI_method LVL), particularly Hartree-Fock and
  # hybrid density functional calculations, the highest accuracy can be obtained by
  # uncommenting the line beginning with "for_aux"  below, thus adding an extra g radial
  # function to the construction of the product basis set for the expansion.
  # See Ref. New J. Phys. 17, 093020 (2015) for more information, particularly Figs. 1 and 6.
  #
  ################################################################################
  #
  # for_aux hydro 5 g 6.0
  ################################################################################
  #
  #  FHI-aims code project
  # Volker Blum, Fritz Haber Institute Berlin, 2009
  #
  #  Suggested "tight" defaults for C atom (to be pasted into control.in file)
  #
  ################################################################################
    species        C
  #     global species definitions
      nucleus             6
      mass                12.0107
  #
      l_hartree           6
  #
      cut_pot             4.0  2.0  1.0
      basis_dep_cutoff    1e-4
  #
      radial_base         34 7.0
      radial_multiplier   2
      angular_grids specified
        division   0.2187   50
        division   0.4416  110
        division   0.6335  194
        division   0.7727  302
        division   0.8772  434
  #      division   0.9334  590
  #      division   0.9924  770
  #      division   1.0230  974
  #      division   1.5020 1202
  #     outer_grid  974
        outer_grid  434
  ################################################################################
  #
  #  Definition of "minimal" basis
  #
  ################################################################################
  #     valence basis states
      valence      2  s   2.
      valence      2  p   2.
  #     ion occupancy
      ion_occ      2  s   1.
      ion_occ      2  p   1.
  ################################################################################
  #
  #  Suggested additional basis functions. For production calculations,
  #  uncomment them one after another (the most important basis functions are
  #  listed first).
  #
  #  Constructed for dimers: 1.0 A, 1.25 A, 1.5 A, 2.0 A, 3.0 A
  #
  ################################################################################
  #  "First tier" - improvements: -1214.57 meV to -155.61 meV
       hydro 2 p 1.7
       hydro 3 d 6
       hydro 2 s 4.9
  #  "Second tier" - improvements: -67.75 meV to -5.23 meV
       hydro 4 f 9.8
       hydro 3 p 5.2
       hydro 3 s 4.3
       hydro 5 g 14.4
       hydro 3 d 6.2
  #  "Third tier" - improvements: -2.43 meV to -0.60 meV
  #     hydro 2 p 5.6
  #     hydro 2 s 1.4
  #     hydro 3 d 4.9
  #     hydro 4 f 11.2
  #  "Fourth tier" - improvements: -0.39 meV to -0.18 meV
  #     hydro 2 p 2.1
  #     hydro 5 g 16.4
  #     hydro 4 d 13.2
  #     hydro 3 s 13.6
  #     hydro 4 f 17.6
  #  Further basis functions - improvements: -0.08 meV and below
  #     hydro 3 s 2
  #     hydro 3 p 6
  #     hydro 4 d 20
  ################################################################################
  #
  # For methods that use the localized form of the "resolution of identity" for
  # the two-electron Coulomb operator (RI_method LVL), particularly Hartree-Fock and
  # hybrid density functional calculations, the highest accuracy can be obtained by
  # uncommenting the line beginning with "for_aux"  below, thus adding an extra g radial
  # function to the construction of the product basis set for the expansion.
  # See Ref. New J. Phys. 17, 093020 (2015) for more information, particularly Figs. 1 and 6.
  #
  ################################################################################
  #
  # for_aux hydro 5 g 6.0
  ################################################################################
  #
  #  FHI-aims code project
  # Volker Blum, Fritz Haber Institute Berlin, 2009
  #
  #  Suggested "tight" defaults for N atom (to be pasted into control.in file)
  #
  ################################################################################
    species        N
  #     global species definitions
      nucleus             7
      mass                14.0067
  #
      l_hartree           6
  #
      cut_pot             4.0  2.0  1.0
      basis_dep_cutoff    1e-4
  #
      radial_base         35 7.0
      radial_multiplier   2
      angular_grids       specified
        division   0.1841   50
        division   0.3514  110
        division   0.5126  194
        division   0.6292  302
        division   0.6939  434
  #      division   0.7396  590
  #      division   0.7632  770
  #      division   0.8122  974
  #      division   1.1604 1202
  #      outer_grid  974
        outer_grid  434
  ################################################################################
  #
  #  Definition of "minimal" basis
  #
  ################################################################################
  #     valence basis states
      valence      2  s   2.
      valence      2  p   3.
  #     ion occupancy
      ion_occ      2  s   1.
      ion_occ      2  p   2.
  ################################################################################
  #
  #  Suggested additional basis functions. For production calculations,
  #  uncomment them one after another (the most important basis functions are
  #  listed first).
  #
  #  Constructed for dimers: 1.0 A, 1.1 A, 1.5 A, 2.0 A, 3.0 A
  #
  ################################################################################
  #  "First tier" - improvements: -1193.42 meV to -220.60 meV
       hydro 2 p 1.8
       hydro 3 d 6.8
       hydro 3 s 5.8
  #  "Second tier" - improvements: -80.21 meV to -6.86 meV
       hydro 4 f 10.8
       hydro 3 p 5.8
       hydro 1 s 0.8
       hydro 5 g 16
       hydro 3 d 4.9
  #  "Third tier" - improvements: -4.29 meV to -0.53 meV
  #     hydro 3 s 16
  #     ionic 2 p auto
  #     hydro 3 d 6.6
  #     hydro 4 f 11.6
  #  "Fourth tier" - improvements: -0.75 meV to -0.25 meV
  #     hydro 2 p 4.5
  #     hydro 2 s 2.4
  #     hydro 5 g 14.4
  #     hydro 4 d 14.4
  #     hydro 4 f 16.8
  # Further basis functions - -0.21 meV and below
  #     hydro 3 p 14.8
  #     hydro 3 s 4.4
  #     hydro 3 d 19.6
  #     hydro 5 g 12.8
  ################################################################################
  #
  # For methods that use the localized form of the "resolution of identity" for
  # the two-electron Coulomb operator (RI_method LVL), particularly Hartree-Fock and
  # hybrid density functional calculations, the highest accuracy can be obtained by
  # uncommenting the line beginning with "for_aux"  below, thus adding an extra g radial
  # function to the construction of the product basis set for the expansion.
  # See Ref. New J. Phys. 17, 093020 (2015) for more information, particularly Figs. 1 and 6.
  #
  ################################################################################
  #
  # for_aux hydro 5 g 6.0
  ################################################################################
  #
  #  FHI-aims code project
  # Volker Blum, Fritz Haber Institute Berlin, 2009
  #
  #  Suggested "tight" defaults for O atom (to be pasted into control.in file)
  #
  ################################################################################
    species        O
  #     global species definitions
      nucleus             8
      mass                15.9994
  #
      l_hartree           6
  #
      cut_pot             4.0  2.0  1.0
      basis_dep_cutoff    1e-4
  #
      radial_base         36 7.0
      radial_multiplier   2
       angular_grids specified
        division   0.1817   50
        division   0.3417  110
        division   0.4949  194
        division   0.6251  302
        division   0.8014  434
  #      division   0.8507  590
  #      division   0.8762  770
  #      division   0.9023  974
  #      division   1.2339 1202
  #      outer_grid 974
        outer_grid  434
  ################################################################################
  #
  #  Definition of "minimal" basis
  #
  ################################################################################
  #     valence basis states
      valence      2  s   2.
      valence      2  p   4.
  #     ion occupancy
      ion_occ      2  s   1.
      ion_occ      2  p   3.
  ################################################################################
  #
  #  Suggested additional basis functions. For production calculations,
  #  uncomment them one after another (the most important basis functions are
  #  listed first).
  #
  #  Constructed for dimers: 1.0 A, 1.208 A, 1.5 A, 2.0 A, 3.0 A
  #
  ################################################################################
  #  "First tier" - improvements: -699.05 meV to -159.38 meV
       hydro 2 p 1.8
       hydro 3 d 7.6
       hydro 3 s 6.4
  #  "Second tier" - improvements: -49.91 meV to -5.39 meV
       hydro 4 f 11.6
       hydro 3 p 6.2
       hydro 3 d 5.6
       hydro 5 g 17.6
       hydro 1 s 0.75
  #  "Third tier" - improvements: -2.83 meV to -0.50 meV
  #     ionic 2 p auto
  #     hydro 4 f 10.8
  #     hydro 4 d 4.7
  #     hydro 2 s 6.8
  #  "Fourth tier" - improvements: -0.40 meV to -0.12 meV
  #     hydro 3 p 5
  #     hydro 3 s 3.3
  #     hydro 5 g 15.6
  #     hydro 4 f 17.6
  #     hydro 4 d 14
  # Further basis functions - -0.08 meV and below
  #     hydro 3 s 2.1
  #     hydro 4 d 11.6
  #     hydro 3 p 16
  #     hydro 2 s 17.2
  ################################################################################
  #
  # For methods that use the localized form of the "resolution of identity" for
  # the two-electron Coulomb operator (RI_method LVL), particularly Hartree-Fock and
  # hybrid density functional calculations, the highest accuracy can be obtained by
  # uncommenting the line beginning with "for_aux"  below, thus adding an extra g radial
  # function to the construction of the product basis set for the expansion.
  # See Ref. New J. Phys. 17, 093020 (2015) for more information, particularly Figs. 1 and 6.
  #
  ################################################################################
  #
  # for_aux hydro 5 g 6.0
  
  -----------------------------------------------------------------------
  Completed first pass over input file control.in .
  -----------------------------------------------------------------------
  
  
  -----------------------------------------------------------------------
  Parsing geometry.in (first pass over file, find array dimensions only).
  The contents of geometry.in will be repeated verbatim below
  unless switched off by setting 'verbatim_writeout .false.' .
  in the first line of geometry.in .
  -----------------------------------------------------------------------
  
  #
  # This is the geometry file that corresponds to the current relaxation step.
  # If you do not want this file to be written, set the "write_restart_geometry" flag to .false.
  #
  atom      -0.53286908     -1.05518065      0.21209765 C
  atom      -0.36199327      0.20364394      1.05177543 C
  atom       0.64093189      0.90789381      0.96182211 O
  atom       0.38142939     -1.19385016     -0.37083723 H
  atom      -1.38132023     -0.96048026     -0.48172725 H
  atom      -0.70338471     -1.94805338      0.82943616 H
  atom      -1.38623317      0.53014441      1.89971434 N
  atom      -2.60029427     -0.22074565      2.17448750 C
  atom      -3.68856653      0.80702000      2.53823260 C
  atom      -3.42266724      1.72080228      3.31739874 O
  atom      -1.25777574      1.37223976      2.45951236 H
  atom      -2.87590925     -0.77697359      1.26948043 H
  atom      -2.43496276     -1.20532149      3.34769337 C
  atom      -3.36641722     -1.75264087      3.54705202 H
  atom      -2.15997665     -0.65370423      4.25524519 H
  atom      -1.64329879     -1.93241985      3.12664128 H
  atom      -4.93615538      0.64491576      2.01712782 N
  atom      -5.39645851     -0.24328234      0.96396568 C
  atom      -6.59849551      0.46682814      0.29962472 C
  atom      -7.28049350      1.27714343      0.92246634 O
  atom      -5.63080210      1.34309516      2.29388354 H
  atom      -4.60328890     -0.36644077      0.20909105 H
  atom      -5.83438990     -1.62528135      1.48331484 C
  atom      -6.20844164     -2.25761383      0.66664809 H
  atom      -6.63189751     -1.50976686      2.22811780 H
  atom      -4.99283782     -2.14490435      1.95722455 H
  atom      -6.84624382      0.09375119     -0.98378079 N
  atom      -7.97388722      0.59758128     -1.74907540 C
  atom      -6.21061644     -0.55942899     -1.42630399 H
  atom      -8.66230419     -0.21341957     -2.02432933 H
  atom      -7.63356020      1.10416736     -2.66208391 H
  atom      -8.50538275      1.31810764     -1.11918971 H
  
  -----------------------------------------------------------------------
  Completed first pass over input file geometry.in .
  -----------------------------------------------------------------------
  

  Basic array size parameters:
  | Number of species                 :        4
  | Number of atoms                   :       32
  | Max. basis fn. angular momentum   :        4
  | Max. atomic/ionic basis occupied n:        2
  | Max. number of basis fn. types    :        2
  | Max. radial fns per species/type  :        8
  | Max. logarithmic grid size        :     1301
  | Max. radial integration grid size :       73
  | Max. angular integration grid size:      434
  | Max. angular grid division number :        8
  | Radial grid for Hartree potential :     1301
  | Number of spin channels           :        1

------------------------------------------------------------
          Reading file control.in.
------------------------------------------------------------
  XC: Using PBE gradient-corrected functionals.
  Spin treatment: No spin polarisation.
  Charge =   0.000000E+00: Neutral system requested explicitly.
  Occupation type: Gaussian broadening, width =   0.500000E-01 eV.
  Using pulay charge density mixing.
  Pulay mixing - number of memorized iterations:   10
  Charge density mixing - mixing parameter:     0.5000
  Convergence accuracy of self-consistent charge density:  0.1000E-03
  Convergence accuracy of sum of eigenvalues:  0.1000E-01
  Convergence accuracy of total energy:  0.1000E-04
  Convergence accuracy of forces:  0.1000E-03
  Maximum number of s.-c. iterations  :  1000
  Fitting ESP-charges to Potential. 
  | Esp charge output options: 
  | ESP Grid method: 3, cubic grid
  | Number of points in x, ,y, z:  0080 0080 0080
  |
 
  Reading configuration options for species H                   .
  | Found nuclear charge :   1.0000
  | Found atomic mass :    1.00794000000000      amu
  | Found l_max for Hartree potential  :   6
  | Found cutoff potl. onset [A], width [A], scale factor :    4.00000    2.00000    1.00000
  | Threshold for basis-dependent cutoff potential is   0.100000E-03
  | Found data for basic radial integration grid :    24 points, outermost radius =    7.000 A
  | Found multiplier for basic radial grid :   2
  | Found angular grid specification: user-specified.
  | Specified grid contains     6 separate shells.
  | Check grid settings after all constraints further below.
  | Found free-atom valence shell :  1 s   1.000
  | No ionic wave fns used. Skipping ion_occ.
  | Found hydrogenic basis function :  2 s   2.100
  | Found hydrogenic basis function :  2 p   3.500
  | Found hydrogenic basis function :  1 s   0.850
  | Found hydrogenic basis function :  2 p   3.700
  | Found hydrogenic basis function :  2 s   1.200
  | Found hydrogenic basis function :  3 d   7.000
  Species H                   : Missing cutoff potential type.
  Defaulting to exp(1/x)/(1-x)^2 type cutoff potential.
  Species H : No 'logarithmic' tag. Using default grid for free atom:
  | Default logarithmic grid data [bohr] : 0.1000E-03 0.1000E+03 0.1012E+01
  Species H : On-site basis accuracy parameter (for Gram-Schmidt orthonormalisation) not specified.
  Using default value basis_acc =  0.1000000E-03.
  Species H                   : Using default innermost maximum threshold i_radial=  2 for radial functions.
  Species H                   : Default cutoff onset for free atom density etc. : 0.40000000E+01 AA.
  Species H                   : Basic radial grid will be enhanced according to radial_multiplier =   2, to contain    49 grid points.
 
  Reading configuration options for species C                   .
  | Found nuclear charge :   6.0000
  | Found atomic mass :    12.0107000000000      amu
  | Found l_max for Hartree potential  :   6
  | Found cutoff potl. onset [A], width [A], scale factor :    4.00000    2.00000    1.00000
  | Threshold for basis-dependent cutoff potential is   0.100000E-03
  | Found data for basic radial integration grid :    34 points, outermost radius =    7.000 A
  | Found multiplier for basic radial grid :   2
  | Found angular grid specification: user-specified.
  | Specified grid contains     6 separate shells.
  | Check grid settings after all constraints further below.
  | Found free-atom valence shell :  2 s   2.000
  | Found free-atom valence shell :  2 p   2.000
  | No ionic wave fns used. Skipping ion_occ.
  | No ionic wave fns used. Skipping ion_occ.
  | Found hydrogenic basis function :  2 p   1.700
  | Found hydrogenic basis function :  3 d   6.000
  | Found hydrogenic basis function :  2 s   4.900
  | Found hydrogenic basis function :  4 f   9.800
  | Found hydrogenic basis function :  3 p   5.200
  | Found hydrogenic basis function :  3 s   4.300
  | Found hydrogenic basis function :  5 g  14.400
  | Found hydrogenic basis function :  3 d   6.200
  Species C                   : Missing cutoff potential type.
  Defaulting to exp(1/x)/(1-x)^2 type cutoff potential.
  Species C : No 'logarithmic' tag. Using default grid for free atom:
  | Default logarithmic grid data [bohr] : 0.1000E-03 0.1000E+03 0.1012E+01
  Species C : On-site basis accuracy parameter (for Gram-Schmidt orthonormalisation) not specified.
  Using default value basis_acc =  0.1000000E-03.
  Species C                   : Using default innermost maximum threshold i_radial=  2 for radial functions.
  Species C                   : Default cutoff onset for free atom density etc. : 0.40000000E+01 AA.
  Species C                   : Basic radial grid will be enhanced according to radial_multiplier =   2, to contain    69 grid points.
 
  Reading configuration options for species N                   .
  | Found nuclear charge :   7.0000
  | Found atomic mass :    14.0067000000000      amu
  | Found l_max for Hartree potential  :   6
  | Found cutoff potl. onset [A], width [A], scale factor :    4.00000    2.00000    1.00000
  | Threshold for basis-dependent cutoff potential is   0.100000E-03
  | Found data for basic radial integration grid :    35 points, outermost radius =    7.000 A
  | Found multiplier for basic radial grid :   2
  | Found angular grid specification: user-specified.
  | Specified grid contains     6 separate shells.
  | Check grid settings after all constraints further below.
  | Found free-atom valence shell :  2 s   2.000
  | Found free-atom valence shell :  2 p   3.000
  | No ionic wave fns used. Skipping ion_occ.
  | No ionic wave fns used. Skipping ion_occ.
  | Found hydrogenic basis function :  2 p   1.800
  | Found hydrogenic basis function :  3 d   6.800
  | Found hydrogenic basis function :  3 s   5.800
  | Found hydrogenic basis function :  4 f  10.800
  | Found hydrogenic basis function :  3 p   5.800
  | Found hydrogenic basis function :  1 s   0.800
  | Found hydrogenic basis function :  5 g  16.000
  | Found hydrogenic basis function :  3 d   4.900
  Species N                   : Missing cutoff potential type.
  Defaulting to exp(1/x)/(1-x)^2 type cutoff potential.
  Species N : No 'logarithmic' tag. Using default grid for free atom:
  | Default logarithmic grid data [bohr] : 0.1000E-03 0.1000E+03 0.1012E+01
  Species N : On-site basis accuracy parameter (for Gram-Schmidt orthonormalisation) not specified.
  Using default value basis_acc =  0.1000000E-03.
  Species N                   : Using default innermost maximum threshold i_radial=  2 for radial functions.
  Species N                   : Default cutoff onset for free atom density etc. : 0.40000000E+01 AA.
  Species N                   : Basic radial grid will be enhanced according to radial_multiplier =   2, to contain    71 grid points.
 
  Reading configuration options for species O                   .
  | Found nuclear charge :   8.0000
  | Found atomic mass :    15.9994000000000      amu
  | Found l_max for Hartree potential  :   6
  | Found cutoff potl. onset [A], width [A], scale factor :    4.00000    2.00000    1.00000
  | Threshold for basis-dependent cutoff potential is   0.100000E-03
  | Found data for basic radial integration grid :    36 points, outermost radius =    7.000 A
  | Found multiplier for basic radial grid :   2
  | Found angular grid specification: user-specified.
  | Specified grid contains     6 separate shells.
  | Check grid settings after all constraints further below.
  | Found free-atom valence shell :  2 s   2.000
  | Found free-atom valence shell :  2 p   4.000
  | No ionic wave fns used. Skipping ion_occ.
  | No ionic wave fns used. Skipping ion_occ.
  | Found hydrogenic basis function :  2 p   1.800
  | Found hydrogenic basis function :  3 d   7.600
  | Found hydrogenic basis function :  3 s   6.400
  | Found hydrogenic basis function :  4 f  11.600
  | Found hydrogenic basis function :  3 p   6.200
  | Found hydrogenic basis function :  3 d   5.600
  | Found hydrogenic basis function :  5 g  17.600
  | Found hydrogenic basis function :  1 s   0.750
  Species O                   : Missing cutoff potential type.
  Defaulting to exp(1/x)/(1-x)^2 type cutoff potential.
  Species O : No 'logarithmic' tag. Using default grid for free atom:
  | Default logarithmic grid data [bohr] : 0.1000E-03 0.1000E+03 0.1012E+01
  Species O : On-site basis accuracy parameter (for Gram-Schmidt orthonormalisation) not specified.
  Using default value basis_acc =  0.1000000E-03.
  Species O                   : Using default innermost maximum threshold i_radial=  2 for radial functions.
  Species O                   : Default cutoff onset for free atom density etc. : 0.40000000E+01 AA.
  Species O                   : Basic radial grid will be enhanced according to radial_multiplier =   2, to contain    73 grid points.
 
  Finished reading input file 'control.in'. Consistency checks are next.
 
  Target number of points in a grid batch is not set. Defaulting to  100
  Method for grid partitioning is not set. Defaulting to parallel hash+maxmin partitioning.
  Batch size limit is not set. Defaulting to    200
  By default, will store active basis functions for each batch.
  If in need of memory, prune_basis_once .false. can be used to disable this option.
  communication_type for Hartree potential was not specified.
  Defaulting to calc_hartree .
  Pulay mixer: Number of initial linear mixing iterations not set.
  Defaulting to    0 iterations.
  Work space size for distributed Hartree potential not set.
  Defaulting to   0.200000E+03 MB.
  Algorithm-dependent basis array size parameters:
  | n_max_pulay                         :       10
  Geometry relaxation not requested: no relaxation will be performed.
  Handling of forces: Unphysical translation and rotation will be removed from forces.
  No accuracy limit for integral partition fn. given. Defaulting to  0.1000E-14.
  No threshold value for u(r) in integrations given. Defaulting to  0.1000E-05.
  No accuracy for occupation numbers given. Defaulting to  0.1000E-07.
  No threshold value for occupation numbers given. Defaulting to  0.0000E+00.
  No accuracy for fermi level given. Defaulting to  0.1000E-19.
  Maximum # of iterations to find E_F not set. Defaulting to  200.
  Preferred method for the eigenvalue solver ('KS_method') not specified in 'control.in'.
  Calling blacs routine to test compilation state
  Since scalapack support is enabled, defaulting to 'elpa'.
  Preferred method for the MBD eigenvalue solver ('mbd_eigensolver') not specified in 'control.in'.
  Calling blacs routine to test compilation state
  Since scalapack support is enabled, defaulting to 'scaLAPACK'.
  Will not use alltoall communication since running on < 1024 CPUs.
  Threshold for basis singularities not set.
  Default threshold for basis singularities:  0.1000E-04
  partition_type (choice of integration weights) for integrals was not specified.
  | Using a version of the partition function of Stratmann and coworkers ('stratmann_smoother').
  | At each grid point, the set of atoms used to build the partition table is smoothly restricted to
  | only those atoms whose free-atom density would be non-zero at that grid point.
  Partitioning for Hartree potential was not defined. Using partition_type for integrals.
  | Adjusted default value of keyword multip_moments_threshold to:       0.10000000E-11
  | This value may affect high angular momentum components of the Hartree potential in periodic systems.
  No q(lm)/r^(l+1) cutoff set for long-range Hartree potential.
  | Using default value of  0.100000E-09 .
  | Verify using the multipole_threshold keyword.
  Defaulting to new monopole extrapolation.
  Density update method: automatic selection selected.
------------------------------------------------------------


------------------------------------------------------------
          Reading geometry description geometry.in.
------------------------------------------------------------
 * Warning! You did not set the 'relativistic' flag in input file 'control.in'.
 * Since you are not attempting to treat any elements beyond Ca(Z=20), FHI-aims
 * will default to 'relativistic none'.
 * You must ensure that this is really what you want!!
 * For example, DO NOT compute total-energy differences between results from
 * different settings of the 'relativistic' flag.
  Input structure read successfully.
  The structure contains       32 atoms,  and a total of        116.000 electrons.

  Input geometry:
  | No unit cell requested.
  | Atomic structure:
  |       Atom                x [A]            y [A]            z [A]
  |    1: Species C             -0.532869        -1.055181         0.212098
  |    2: Species C             -0.361993         0.203644         1.051775
  |    3: Species O              0.640932         0.907894         0.961822
  |    4: Species H              0.381429        -1.193850        -0.370837
  |    5: Species H             -1.381320        -0.960480        -0.481727
  |    6: Species H             -0.703385        -1.948053         0.829436
  |    7: Species N             -1.386233         0.530144         1.899714
  |    8: Species C             -2.600294        -0.220746         2.174488
  |    9: Species C             -3.688567         0.807020         2.538233
  |   10: Species O             -3.422667         1.720802         3.317399
  |   11: Species H             -1.257776         1.372240         2.459512
  |   12: Species H             -2.875909        -0.776974         1.269480
  |   13: Species C             -2.434963        -1.205321         3.347693
  |   14: Species H             -3.366417        -1.752641         3.547052
  |   15: Species H             -2.159977        -0.653704         4.255245
  |   16: Species H             -1.643299        -1.932420         3.126641
  |   17: Species N             -4.936155         0.644916         2.017128
  |   18: Species C             -5.396459        -0.243282         0.963966
  |   19: Species C             -6.598496         0.466828         0.299625
  |   20: Species O             -7.280494         1.277143         0.922466
  |   21: Species H             -5.630802         1.343095         2.293884
  |   22: Species H             -4.603289        -0.366441         0.209091
  |   23: Species C             -5.834390        -1.625281         1.483315
  |   24: Species H             -6.208442        -2.257614         0.666648
  |   25: Species H             -6.631898        -1.509767         2.228118
  |   26: Species H             -4.992838        -2.144904         1.957225
  |   27: Species N             -6.846244         0.093751        -0.983781
  |   28: Species C             -7.973887         0.597581        -1.749075
  |   29: Species H             -6.210616        -0.559429        -1.426304
  |   30: Species H             -8.662304        -0.213420        -2.024329
  |   31: Species H             -7.633560         1.104167        -2.662084
  |   32: Species H             -8.505383         1.318108        -1.119190
  |

  | The smallest distance between any two atoms is         1.01316005 AA.
  |
  | The first atom of this pair is atom number                     27 .
  | The second atom of this pair is atom number                    29 .

  Number of empty states per atom not set in control.in - providing a guess from actual geometry.
  | Total number of empty states used during s.c.f. cycle:       71
  If you use a very high smearing, use empty_states (per atom!) in control.in to increase this value.

  Structure-dependent array size parameters: 
  | Maximum number of distinct radial functions  :       40
  | Maximum number of basis functions            :      840
  | Number of Kohn-Sham states (occupied + empty):      129
------------------------------------------------------------

------------------------------------------------------------
          Preparing all fixed parts of the calculation.
------------------------------------------------------------
  Determining machine precision:
    2.225073858507201E-308
  Setting up grids for atomic and cluster calculations.

  Creating wave function, potential, and density for free atoms.

  Species: H

  List of occupied orbitals and eigenvalues:
    n    l              occ      energy [Ha]    energy [eV]
    1    0           1.0000        -0.238382        -6.4867


  Species: C

  List of occupied orbitals and eigenvalues:
    n    l              occ      energy [Ha]    energy [eV]
    1    0           2.0000       -10.041232      -273.2358
    2    0           2.0000        -0.504327       -13.7234
    2    1           2.0000        -0.193750        -5.2722


  Species: N

  List of occupied orbitals and eigenvalues:
    n    l              occ      energy [Ha]    energy [eV]
    1    0           2.0000       -14.129007      -384.4699
    2    0           2.0000        -0.681802       -18.5528
    2    1           3.0000        -0.260543        -7.0897


  Species: O

  List of occupied orbitals and eigenvalues:
    n    l              occ      energy [Ha]    energy [eV]
    1    0           2.0000       -18.898576      -514.2564
    2    0           2.0000        -0.878795       -23.9132
    2    1           4.0000        -0.332075        -9.0362

  Creating fixed part of basis set: Ionic, confined, hydrogenic.
 
  H                    hydrogenic:
 
  List of hydrogenic basis orbitals: 
    n    l      effective z      eigenvalue [eV]  inner max. [A]     outer max. [A]     outer radius [A]   
    2    0         2.100000       -14.9965           0.193243           1.317208           5.373006
    2    1         3.500000       -41.6672           0.602369           0.602369           4.056063
    1    0         0.850000        -9.8292           0.624871           0.624871           5.373006
    2    1         3.700000       -46.5653           0.573622           0.573622           3.910002
    2    0         1.200000        -4.5995           0.334980           2.228188           5.505995
    3    2         7.000000       -74.0753           0.680699           0.680699           3.769201
 
 
  C                    hydrogenic:
 
  List of hydrogenic basis orbitals: 
    n    l      effective z      eigenvalue [eV]  inner max. [A]     outer max. [A]     outer radius [A]   
    2    1         1.700000        -9.8152           1.245706           1.245706           5.401630
    3    2         6.000000       -54.4226           0.792453           0.792453           4.178599
    2    0         4.900000       -81.6681           0.082559           0.562749           3.353238
    4    3         9.800000       -81.6681           0.863254           0.863254           4.028125
    3    1         5.200000       -40.8774           0.305389           1.215618           4.898362
    3    0         4.300000       -27.9508           0.091041           1.610311           5.401630
    5    4        14.400000      -112.8510           0.917666           0.917666           3.883070
    3    2         6.200000       -58.1113           0.763917           0.763917           4.077671
 
 
  N                    hydrogenic:
 
  List of hydrogenic basis orbitals: 
    n    l      effective z      eigenvalue [eV]  inner max. [A]     outer max. [A]     outer radius [A]   
    2    1         1.800000       -11.0118           1.177451           1.177451           5.427479
    3    2         6.800000       -69.9029           0.704619           0.704619           3.854246
    3    0         5.800000       -50.8549           0.067388           1.191934           4.629968
    4    3        10.800000       -99.1854           0.786571           0.786571           3.761152
    3    1         5.800000       -50.8549           0.274880           1.094176           4.518138
    1    0         0.800000        -8.7059           0.662839           0.662839           5.361532
    5    4        16.000000      -139.3222           0.825990           0.825990           3.625711
    3    2         4.900000       -36.2967           0.968267           0.968267           4.862000
 
 
  O                    hydrogenic:
 
  List of hydrogenic basis orbitals: 
    n    l      effective z      eigenvalue [eV]  inner max. [A]     outer max. [A]     outer radius [A]   
    2    1         1.800000       -11.0118           1.178562           1.178562           5.432602
    3    2         7.600000       -87.3182           0.624125           0.624125           3.541477
    3    0         6.400000       -61.9209           0.061167           1.081902           4.306578
    4    3        11.600000      -114.4238           0.731631           0.731631           3.585037
    3    1         6.200000       -58.1113           0.255680           1.030270           4.306578
    3    2         5.600000       -47.4081           0.847233           0.847233           4.413171
    5    4        17.600000      -168.5799           0.749740           0.749740           3.372465
    1    0         0.750000        -7.6499           0.705284           0.705284           5.366593
 

  Adding cutoff potential to free-atom effective potential.
  Creating atomic-like basis functions for current effective potential.

  Species H                   :

  List of atomic basis orbitals and eigenvalues:
    n    l      energy [Ha]    energy [eV]    outer radius [A]
    1    0        -0.238382        -6.4867       5.373006


  Species C                   :

  List of atomic basis orbitals and eigenvalues:
    n    l      energy [Ha]    energy [eV]    outer radius [A]
    1    0       -10.041232      -273.2358       1.934409
    2    0        -0.504327       -13.7234       5.271162
    2    1        -0.193750        -5.2722       5.401630


  Species N                   :

  List of atomic basis orbitals and eigenvalues:
    n    l      energy [Ha]    energy [eV]    outer radius [A]
    1    0       -14.129007      -384.4699       1.637919
    2    0        -0.681802       -18.5528       5.168461
    2    1        -0.260543        -7.0897       5.361532


  Species O                   :

  List of atomic basis orbitals and eigenvalues:
    n    l      energy [Ha]    energy [eV]    outer radius [A]
    1    0       -18.898576      -514.2564       1.415765
    2    0        -0.878795       -23.9132       5.048385
    2    1        -0.332075        -9.0362       5.301386

  Assembling full basis from fixed parts.
  | Species H :   atomic orbital   1 s accepted.
  | Species H :    hydro orbital   2 s accepted.
  | Species H :    hydro orbital   1 s accepted.
  | Species H :    hydro orbital   2 s accepted.
  | Species H :    hydro orbital   2 p accepted.
  | Species H :    hydro orbital   2 p accepted.
  | Species H :    hydro orbital   3 d accepted.
  | Species C :   atomic orbital   1 s accepted.
  | Species C :    hydro orbital   2 s accepted.
  | Species C :   atomic orbital   2 s accepted.
  | Species C :    hydro orbital   3 s accepted.
  | Species C :    hydro orbital   3 p accepted.
  | Species C :   atomic orbital   2 p accepted.
  | Species C :    hydro orbital   2 p accepted.
  | Species C :    hydro orbital   3 d accepted.
  | Species C :    hydro orbital   3 d accepted.
  | Species C :    hydro orbital   4 f accepted.
  | Species C :    hydro orbital   5 g accepted.
  | Species N :   atomic orbital   1 s accepted.
  | Species N :    hydro orbital   3 s accepted.
  | Species N :   atomic orbital   2 s accepted.
  | Species N :    hydro orbital   1 s accepted.
  | Species N :    hydro orbital   3 p accepted.
  | Species N :   atomic orbital   2 p accepted.
  | Species N :    hydro orbital   2 p accepted.
  | Species N :    hydro orbital   3 d accepted.
  | Species N :    hydro orbital   3 d accepted.
  | Species N :    hydro orbital   4 f accepted.
  | Species N :    hydro orbital   5 g accepted.
  | Species O :   atomic orbital   1 s accepted.
  | Species O :    hydro orbital   3 s accepted.
  | Species O :   atomic orbital   2 s accepted.
  | Species O :    hydro orbital   1 s accepted.
  | Species O :    hydro orbital   3 p accepted.
  | Species O :   atomic orbital   2 p accepted.
  | Species O :    hydro orbital   2 p accepted.
  | Species O :    hydro orbital   3 d accepted.
  | Species O :    hydro orbital   3 d accepted.
  | Species O :    hydro orbital   4 f accepted.
  | Species O :    hydro orbital   5 g accepted.
 
  Basis size parameters after reduction:
  | Total number of radial functions:       40
  | Total number of basis functions :      840
 
  Testing on-site integration grid accuracy.
  |  Species  Function  <phi|h_atom|phi> (log., in eV)  <phi|h_atom|phi> (rad., in eV)
           1        1                 -6.4869821809                 -6.4870742227
           1        2                 13.5044133542                 13.5041049177
           1        3                 32.7854418792                 32.7779770519
           1        4                 33.7995553101                 33.7152624900 ***
           1        5                 28.8558651799                 28.8558652046
           1        6                 59.6361831893                 59.6362535845
           1        7                 60.2733718049                 60.2733715484
           2        8               -273.2358277112               -273.2358261765
           2        9                -10.7624923123                -10.7625144012
           2       10                 17.4634079027                 17.4634252127
           2       11                 53.0363661832                 53.0366180446
           2       12                 15.0981351967                 15.0981317714
           2       13                  3.8522181899                  3.8522770949
           2       14                 12.1181835661                 12.1206868578
           2       15                 29.4320778347                 29.4320780959
           2       16                 54.8753777694                 54.8752901936
           2       17                 59.3533975461                 59.3533974833
           2       18                 93.4537491195                 93.4537492066
           3       19               -384.4698526889               -384.4698499465
           3       20                 12.5691022037                 12.5690910168
           3       21                -15.7489097511                -15.7489165588
           3       22                 27.0978334940                 27.0985589490
           3       23                 18.5949116966                 18.5949125562
           3       24                  1.2212828291                  1.2212855301
           3       25                 13.4428926797                 13.4434051125
           3       26                 35.9380614500                 35.9380613666
           3       27                 39.9231532098                 39.9231654735
           3       28                 72.9957335806                 72.9957336833
           3       29                116.4231321147                116.4231321431
           4       30               -514.2564144315               -514.2564099626
           4       31                 15.1726678541                 15.1726530877
           4       32                -21.5447785304                -21.5447874973
           4       33                 14.4944558459                 14.4944698284
           4       34                 20.8882174564                 20.8882178906
           4       35                 -2.4850315908                 -2.4850322289
           4       36                 13.8600193195                 13.8599826966
           4       37                 45.8243383616                 45.8243383675
           4       38                 52.1840606465                 52.1840622440
           4       39                 85.4074185510                 85.4074185819
           4       40                142.0983717302                142.0983717339
 * Note: Onsite integrals marked "***" above are less accurate than
 * onsite_accuracy_threshold =    0.03000 eV. Usually, this is harmless.
 * When in doubt, tighten the "radial" and/or "radial_multiplier" flags to check.

  Preparing densities etc. for the partition functions (integrals / Hartree potential).

  Preparations completed.
  max(cpu_time)          :      0.240 s.
  Wall clock time (cpu1) :      0.239 s.
------------------------------------------------------------

------------------------------------------------------------
          Begin self-consistency loop: Initialization.

          Date     :  20170309, Time     :  160742.179
------------------------------------------------------------

  Initializing index lists of integration centers etc. from given atomic structure:
  | Number of centers in hartree potential         :        32
  | Number of centers in hartree multipole         :        32
  | Number of centers in electron density summation:        32
  | Number of centers in basis integrals           :        32
  | Number of centers in integrals                 :        32
  | Number of centers in hamiltonian               :        32
  Using modified Scalapack Eigenvalue solver (ELPA)
  * Using 32 tasks for Scalapack Eigenvalue solver.
  Detailed listing of tasks and assigned k-points:
  (for non-periodic systems, the "k-point" denotes an internal label only)
   Task     0 k-point     1 on eos263
   Task     1 k-point     1 on eos263
   Task     2 k-point     1 on eos263
   Task     3 k-point     1 on eos263
   Task     4 k-point     1 on eos263
   Task     5 k-point     1 on eos263
   Task     6 k-point     1 on eos263
   Task     7 k-point     1 on eos263
   Task     8 k-point     1 on eos263
   Task     9 k-point     1 on eos263
   Task    10 k-point     1 on eos263
   Task    11 k-point     1 on eos263
   Task    12 k-point     1 on eos263
   Task    13 k-point     1 on eos263
   Task    14 k-point     1 on eos263
   Task    15 k-point     1 on eos263
   Task    16 k-point     1 on eos263
   Task    17 k-point     1 on eos263
   Task    18 k-point     1 on eos263
   Task    19 k-point     1 on eos263
   Task    20 k-point     1 on eos263
   Task    21 k-point     1 on eos263
   Task    22 k-point     1 on eos263
   Task    23 k-point     1 on eos263
   Task    24 k-point     1 on eos263
   Task    25 k-point     1 on eos263
   Task    26 k-point     1 on eos263
   Task    27 k-point     1 on eos263
   Task    28 k-point     1 on eos263
   Task    29 k-point     1 on eos263
   Task    30 k-point     1 on eos263
   Task    31 k-point     1 on eos263
  Tasks:    32 split into      8 X      4 BLACS grid
  Calculating blocksize based on n_basis =          840 max_nprow =            8 max_npcol =            4
  Scalapack blocksize set to:           16
  Required Scalapack workspace - INTEGER:            1 REAL:             1
  Partitioning the integration grid into batches with parallel hashing+maxmin method.
  | Number of batches:     4807
  | Maximal batch size:     194
  | Minimal batch size:      37
  | Average batch size:     109.783
  | Standard deviation of batch sizes:      35.438

  Integration load balanced across    32 MPI tasks.
  Work distribution over tasks is as follows:
  Task     0 has      16496 integration points.
  Task     1 has      16421 integration points.
  Task     2 has      16440 integration points.
  Task     3 has      16512 integration points.
  Task     4 has      16501 integration points.
  Task     5 has      16517 integration points.
  Task     6 has      16439 integration points.
  Task     7 has      16548 integration points.
  Task     8 has      16490 integration points.
  Task     9 has      16495 integration points.
  Task    10 has      16500 integration points.
  Task    11 has      16501 integration points.
  Task    12 has      16498 integration points.
  Task    13 has      16497 integration points.
  Task    14 has      16516 integration points.
  Task    15 has      16496 integration points.
  Task    16 has      16493 integration points.
  Task    17 has      16518 integration points.
  Task    18 has      16492 integration points.
  Task    19 has      16515 integration points.
  Task    20 has      16526 integration points.
  Task    21 has      16444 integration points.
  Task    22 has      16522 integration points.
  Task    23 has      16512 integration points.
  Task    24 has      16516 integration points.
  Task    25 has      16435 integration points.
  Task    26 has      16488 integration points.
  Task    27 has      16463 integration points.
  Task    28 has      16423 integration points.
  Task    29 has      16517 integration points.
  Task    30 has      16503 integration points.
  Task    31 has      16494 integration points.
  Initializing partition tables, free-atom densities, potentials, etc. across the integration grid (initialize_grid_storage).
  | initialize_grid_storage: Actual outermost partition radius vs. multipole_radius_free
  | (-- VB: in principle, multipole_radius_free should be larger, hence this output)
  | Species        1: Confinement radius =              6.000000000000000 AA, multipole_radius_free =              6.071692442739658 AA.
  | Species        1: outer_partition_radius set to              6.071692442739658 AA .
  | Species        2: Confinement radius =              6.000000000000000 AA, multipole_radius_free =              6.029870734432609 AA.
  | Species        2: outer_partition_radius set to              6.029870734432609 AA .
  | Species        3: Confinement radius =              6.000000000000000 AA, multipole_radius_free =              6.058726835495003 AA.
  | Species        3: outer_partition_radius set to              6.058726835495003 AA .
  | Species        4: Confinement radius =              6.000000000000000 AA, multipole_radius_free =              6.064445521808699 AA.
  | Species        4: outer_partition_radius set to              6.064445521808699 AA .
  | Original list of interatomic distances with          32 x         32 entries is created.
  | Net number of integration points:   527728
  | of which are non-zero points    :   418150
  Obtaining max. number of non-zero basis functions in each batch (get_n_compute_maxes).
  | Maximal number of non-zero basis functions:      713 in task     0
  | Maximal number of non-zero basis functions:      727 in task     1
  | Maximal number of non-zero basis functions:      732 in task     2
  | Maximal number of non-zero basis functions:      740 in task     3
  | Maximal number of non-zero basis functions:      738 in task     4
  | Maximal number of non-zero basis functions:      719 in task     5
  | Maximal number of non-zero basis functions:      740 in task     6
  | Maximal number of non-zero basis functions:      729 in task     7
  | Maximal number of non-zero basis functions:      740 in task     8
  | Maximal number of non-zero basis functions:      725 in task     9
  | Maximal number of non-zero basis functions:      721 in task    10
  | Maximal number of non-zero basis functions:      727 in task    11
  | Maximal number of non-zero basis functions:      732 in task    12
  | Maximal number of non-zero basis functions:      738 in task    13
  | Maximal number of non-zero basis functions:      736 in task    14
  | Maximal number of non-zero basis functions:      731 in task    15
  | Maximal number of non-zero basis functions:      729 in task    16
  | Maximal number of non-zero basis functions:      728 in task    17
  | Maximal number of non-zero basis functions:      707 in task    18
  | Maximal number of non-zero basis functions:      732 in task    19
  | Maximal number of non-zero basis functions:      727 in task    20
  | Maximal number of non-zero basis functions:      738 in task    21
  | Maximal number of non-zero basis functions:      716 in task    22
  | Maximal number of non-zero basis functions:      735 in task    23
  | Maximal number of non-zero basis functions:      734 in task    24
  | Maximal number of non-zero basis functions:      750 in task    25
  | Maximal number of non-zero basis functions:      739 in task    26
  | Maximal number of non-zero basis functions:      738 in task    27
  | Maximal number of non-zero basis functions:      703 in task    28
  | Maximal number of non-zero basis functions:      736 in task    29
  | Maximal number of non-zero basis functions:      716 in task    30
  | Maximal number of non-zero basis functions:      735 in task    31
  Selecting the method for density update.
  Loop over occupied states selected for charge density update.
  Integrating Hamiltonian matrix: batch-based integration.
  Time summed over all CPUs for integration: real work       19.682 s, elapsed       20.234 s
  Integrating overlap matrix.
  Time summed over all CPUs for integration: real work       11.702 s, elapsed       11.961 s
  Deallocating overlap matrix.

  Updating Kohn-Sham eigenvalues, eigenvectors, occupation numbers, and Fermi level.
  Solving generalized eigenproblem
  Solving real symmetric generalised eigenvalue problem by standard ScaLAPACK.
  Transforming overlap matrix with ScaLAPACK and checking for singularities.
  : Overlap matrix is nonsingular, using Cholesky decomposition
  | Lowest eigenvalue:  0.963967E-04
  Factoring overlap matrix with Cholesky decomposition
  Using Cholesky factor for transformation
  Using 1-stage real ELPA solver
  Determining occupation numbers for Kohn-Sham eigenstates.
  | Chemical potential (Fermi level) in eV                 : -.93781742E+01
  | Error in electron count due to remaining E_F inaccuracy: 0.00000000E+00
  | Maximum occupation number of highest empty state:  0.00E+00

  Writing Kohn-Sham eigenvalues.

  State    Occupation    Eigenvalue [Ha]    Eigenvalue [eV]
      1       2.00000         -18.975058         -516.33760
      2       2.00000         -18.974049         -516.31014
      3       2.00000         -18.973837         -516.30439
      4       2.00000         -14.256691         -387.94429
      5       2.00000         -14.254733         -387.89101
      6       2.00000         -14.254083         -387.87332
      7       2.00000         -10.170463         -276.75237
      8       2.00000         -10.170070         -276.74169
      9       2.00000         -10.170028         -276.74055
     10       2.00000         -10.166785         -276.65229
     11       2.00000         -10.149064         -276.17009
     12       2.00000         -10.148272         -276.14854
     13       2.00000         -10.135613         -275.80405
     14       2.00000         -10.135379         -275.79771
     15       2.00000         -10.134918         -275.78515
     16       2.00000          -1.135518          -30.89902
     17       2.00000          -1.132040          -30.80438
     18       2.00000          -1.128939          -30.72000
     19       2.00000          -1.016162          -27.65116
     20       2.00000          -1.014641          -27.60979
     21       2.00000          -1.012609          -27.55449
     22       2.00000          -0.881481          -23.98632
     23       2.00000          -0.874565          -23.79812
     24       2.00000          -0.846130          -23.02436
     25       2.00000          -0.819369          -22.29617
     26       2.00000          -0.777337          -21.15241
     27       2.00000          -0.761297          -20.71595
     28       2.00000          -0.700276          -19.05547
     29       2.00000          -0.689216          -18.75451
     30       2.00000          -0.679023          -18.47715
     31       2.00000          -0.645302          -17.55956
     32       2.00000          -0.625276          -17.01463
     33       2.00000          -0.608444          -16.55662
     34       2.00000          -0.593212          -16.14211
     35       2.00000          -0.584978          -15.91806
     36       2.00000          -0.581108          -15.81275
     37       2.00000          -0.575527          -15.66087
     38       2.00000          -0.567445          -15.44097
     39       2.00000          -0.556405          -15.14054
     40       2.00000          -0.554917          -15.10005
     41       2.00000          -0.551200          -14.99890
     42       2.00000          -0.545832          -14.85283
     43       2.00000          -0.536382          -14.59568
     44       2.00000          -0.527233          -14.34674
     45       2.00000          -0.522241          -14.21089
     46       2.00000          -0.512958          -13.95831
     47       2.00000          -0.511109          -13.90797
     48       2.00000          -0.501709          -13.65220
     49       2.00000          -0.491991          -13.38776
     50       2.00000          -0.488310          -13.28760
     51       2.00000          -0.481042          -13.08982
     52       2.00000          -0.479180          -13.03916
     53       2.00000          -0.407062          -11.07673
     54       2.00000          -0.402555          -10.95408
     55       2.00000          -0.400315          -10.89313
     56       2.00000          -0.391096          -10.64227
     57       2.00000          -0.384439          -10.46112
     58       2.00000          -0.382959          -10.42085
     59       0.00000          -0.170066           -4.62774
     60       0.00000          -0.157831           -4.29480
     61       0.00000          -0.149991           -4.08146
     62       0.00000          -0.086144           -2.34409
     63       0.00000          -0.063898           -1.73875
     64       0.00000          -0.057639           -1.56845
     65       0.00000          -0.054061           -1.47107
     66       0.00000          -0.046526           -1.26604
     67       0.00000          -0.039697           -1.08022
     68       0.00000          -0.038178           -1.03889
     69       0.00000          -0.030238           -0.82280
     70       0.00000          -0.025606           -0.69678
     71       0.00000          -0.018190           -0.49496
     72       0.00000          -0.015833           -0.43084
     73       0.00000          -0.009347           -0.25436
     74       0.00000          -0.008120           -0.22095
     75       0.00000          -0.004863           -0.13232
     76       0.00000          -0.001627           -0.04428
     77       0.00000           0.003210            0.08736
     78       0.00000           0.007684            0.20908
     79       0.00000           0.011065            0.30110
     80       0.00000           0.020295            0.55226
     81       0.00000           0.020863            0.56771
     82       0.00000           0.023507            0.63967
     83       0.00000           0.030271            0.82372
     84       0.00000           0.038266            1.04128
     85       0.00000           0.045917            1.24945
     86       0.00000           0.051027            1.38850
     87       0.00000           0.055092            1.49912
     88       0.00000           0.061433            1.67169
     89       0.00000           0.064025            1.74220
     90       0.00000           0.069617            1.89437
     91       0.00000           0.075217            2.04675
     92       0.00000           0.082257            2.23833
     93       0.00000           0.087363            2.37726
     94       0.00000           0.092862            2.52690
     95       0.00000           0.098206            2.67233
     96       0.00000           0.101569            2.76384
     97       0.00000           0.106107            2.88733
     98       0.00000           0.113612            3.09155
     99       0.00000           0.117158            3.18804
    100       0.00000           0.122405            3.33081
    101       0.00000           0.128069            3.48493
    102       0.00000           0.133606            3.63561
    103       0.00000           0.139571            3.79792
    104       0.00000           0.142274            3.87146
    105       0.00000           0.149418            4.06586
    106       0.00000           0.150538            4.09634
    107       0.00000           0.156903            4.26955
    108       0.00000           0.158666            4.31751
    109       0.00000           0.163978            4.46207
    110       0.00000           0.173124            4.71095
    111       0.00000           0.174644            4.75231
    112       0.00000           0.178494            4.85706
    113       0.00000           0.182068            4.95432
    114       0.00000           0.189153            5.14711
    115       0.00000           0.194628            5.29611
    116       0.00000           0.198674            5.40619
    117       0.00000           0.202407            5.50778
    118       0.00000           0.205950            5.60419
    119       0.00000           0.209782            5.70846
    120       0.00000           0.218408            5.94318
    121       0.00000           0.221315            6.02228
    122       0.00000           0.225315            6.13114
    123       0.00000           0.232381            6.32340
    124       0.00000           0.239578            6.51924
    125       0.00000           0.242274            6.59260
    126       0.00000           0.251395            6.84082
    127       0.00000           0.260368            7.08498
    128       0.00000           0.260947            7.10073
    129       0.00000           0.263153            7.16075

  Highest occupied state (VBM) at    -10.42084668 eV
  | Occupation number:      2.00000000

  Lowest unoccupied state (CBM) at    -4.62774085 eV
  | Occupation number:      0.00000000

  Overall HOMO-LUMO gap:      5.79310583 eV.
  Calculating total energy contributions from superposition of free atom densities.

  Total energy components:
  | Sum of eigenvalues            :        -437.89574383 Ha      -11915.74945629 eV
  | XC energy correction          :         -98.82058532 Ha       -2689.04494360 eV
  | XC potential correction       :         127.02145094 Ha        3456.42954138 eV
  | Free-atom electrostatic energy:        -333.59374097 Ha       -9077.54755245 eV
  | Hartree energy correction     :           0.00000000 Ha           0.00000000 eV
  | vdW energy correction         :           0.00000000 Ha           0.00000000 eV
  | Entropy correction            :          -0.00000000 Ha          -0.00000000 eV
  | ---------------------------
  | Total energy                  :        -743.28861918 Ha      -20225.91241096 eV
  | Total energy, T -> 0          :        -743.28861918 Ha      -20225.91241096 eV  <-- do not rely on this value for anything but (periodic) metals
  | Electronic free energy        :        -743.28861918 Ha      -20225.91241096 eV

  Derived energy quantities:
  | Kinetic energy                :         735.16597907 Ha       20004.88412768 eV
  | Electrostatic energy          :       -1379.63401293 Ha      -37541.75159504 eV
  | Energy correction for multipole
  | error in Hartree potential    :           0.00000000 Ha           0.00000000 eV
  | Sum of eigenvalues per atom                           :        -372.36717051 eV
  | Total energy (T->0) per atom                          :        -632.05976284 eV  <-- do not rely on this value for anything but (periodic) metals
  | Electronic free energy per atom                       :        -632.05976284 eV
  Initialize hartree_potential_storage
  Max. number of atoms included in rho_multipole:           32

  End scf initialization - timings             :  max(cpu_time)    wall_clock(cpu1)
  | Time for scf. initialization               :        1.724 s           1.721 s
  | Boundary condition initialization          :        0.000 s           0.000 s
  | Integration                                :        1.028 s           1.027 s
  | Solution of K.-S. eqns.                    :        0.076 s           0.076 s
  | Grid partitioning                          :        0.292 s           0.285 s
  | Preloading free-atom quantities on grid    :        0.028 s           0.027 s
  | Free-atom superposition energy             :        0.040 s           0.038 s
  | Total energy evaluation                    :        0.000 s           0.001 s
------------------------------------------------------------

------------------------------------------------------------
          Begin self-consistency iteration #    1

  Date     :  20170309, Time     :  160743.901
------------------------------------------------------------
  Evaluating new KS density.
  Integration grid: deviation in total charge (<rho> - N_e) =   8.526513E-14
  Pulay mixing of updated and previous charge densities.

  Evaluating partitioned Hartree potential by multipole expansion.
  | Analytical far-field extrapolation by fixed multipoles:
  | Hartree multipole sum: apparent total charge =   0.174348E-04
  Summing up the Hartree potential.
  Time summed over all CPUs for potential: real work        9.506 s, elapsed        9.673 s
  | RMS charge density error from multipole expansion :   0.106653E-01

  Integrating Hamiltonian matrix: batch-based integration.
  Time summed over all CPUs for integration: real work       19.648 s, elapsed       20.196 s

  Updating Kohn-Sham eigenvalues, eigenvectors, occupation numbers, and Fermi level.
  Solving generalized eigenproblem
  Solving real symmetric generalised eigenvalue problem by standard ScaLAPACK.
  Using Cholesky factor for transformation
  Using 2-stage real ELPA solver
  K-Point:    1, Trafo times: 1-stage=     0.021 s, 2-stage=     0.020 s ==> Using 2-stage solver
  Determining occupation numbers for Kohn-Sham eigenstates.
  | Chemical potential (Fermi level) in eV                 : -.41278959E+01
  | Error in electron count due to remaining E_F inaccuracy: 0.00000000E+00
  | Maximum occupation number of highest empty state:  0.00E+00

  Writing Kohn-Sham eigenvalues.

  State    Occupation    Eigenvalue [Ha]    Eigenvalue [eV]
      1       2.00000         -18.633013         -507.03007
      2       2.00000         -18.618666         -506.63968
      3       2.00000         -18.598708         -506.09661
      4       2.00000         -14.004151         -381.07234
      5       2.00000         -13.994237         -380.80256
      6       2.00000         -13.977385         -380.34400
      7       2.00000         -10.066588         -273.92579
      8       2.00000         -10.061369         -273.78378
      9       2.00000         -10.044658         -273.32905
     10       2.00000          -9.985417         -271.71701
     11       2.00000          -9.970006         -271.29768
     12       2.00000          -9.892479         -269.18804
     13       2.00000          -9.853843         -268.13671
     14       2.00000          -9.849626         -268.02196
     15       2.00000          -9.840692         -267.77886
     16       2.00000          -0.977999          -26.61270
     17       2.00000          -0.964870          -26.25545
     18       2.00000          -0.945688          -25.73348
     19       2.00000          -0.876830          -23.85977
     20       2.00000          -0.872508          -23.74214
     21       2.00000          -0.857307          -23.32851
     22       2.00000          -0.746859          -20.32307
     23       2.00000          -0.727430          -19.79436
     24       2.00000          -0.695962          -18.93809
     25       2.00000          -0.682255          -18.56510
     26       2.00000          -0.640832          -17.43793
     27       2.00000          -0.628672          -17.10703
     28       2.00000          -0.577487          -15.71423
     29       2.00000          -0.567219          -15.43480
     30       2.00000          -0.551664          -15.01153
     31       2.00000          -0.521898          -14.20157
     32       2.00000          -0.501589          -13.64893
     33       2.00000          -0.472033          -12.84466
     34       2.00000          -0.458277          -12.47036
     35       2.00000          -0.448537          -12.20532
     36       2.00000          -0.442255          -12.03436
     37       2.00000          -0.437563          -11.90670
     38       2.00000          -0.427730          -11.63913
     39       2.00000          -0.426956          -11.61807
     40       2.00000          -0.410491          -11.17002
     41       2.00000          -0.406141          -11.05165
     42       2.00000          -0.393681          -10.71261
     43       2.00000          -0.388113          -10.56110
     44       2.00000          -0.384834          -10.47187
     45       2.00000          -0.383801          -10.44377
     46       2.00000          -0.373935          -10.17528
     47       2.00000          -0.366139           -9.96314
     48       2.00000          -0.359844           -9.79187
     49       2.00000          -0.350706           -9.54321
     50       2.00000          -0.348017           -9.47003
     51       2.00000          -0.344508           -9.37454
     52       2.00000          -0.333900           -9.08589
     53       2.00000          -0.247571           -6.73674
     54       2.00000          -0.237131           -6.45267
     55       2.00000          -0.229497           -6.24493
     56       2.00000          -0.226474           -6.16266
     57       2.00000          -0.211946           -5.76733
     58       2.00000          -0.198445           -5.39996
     59       0.00000          -0.064626           -1.75857
     60       0.00000          -0.050387           -1.37109
     61       0.00000          -0.049077           -1.33545
     62       0.00000          -0.034002           -0.92524
     63       0.00000          -0.027011           -0.73500
     64       0.00000          -0.017677           -0.48102
     65       0.00000          -0.009948           -0.27070
     66       0.00000           0.002108            0.05737
     67       0.00000           0.005635            0.15333
     68       0.00000           0.011643            0.31683
     69       0.00000           0.023192            0.63107
     70       0.00000           0.024899            0.67752
     71       0.00000           0.032595            0.88695
     72       0.00000           0.039186            1.06630
     73       0.00000           0.043667            1.18823
     74       0.00000           0.044821            1.21965
     75       0.00000           0.049002            1.33342
     76       0.00000           0.051699            1.40681
     77       0.00000           0.056461            1.53638
     78       0.00000           0.062481            1.70020
     79       0.00000           0.071070            1.93391
     80       0.00000           0.073413            1.99766
     81       0.00000           0.077561            2.11054
     82       0.00000           0.086433            2.35195
     83       0.00000           0.089059            2.42342
     84       0.00000           0.097928            2.66475
     85       0.00000           0.107922            2.93670
     86       0.00000           0.108991            2.96578
     87       0.00000           0.114418            3.11347
     88       0.00000           0.119121            3.24146
     89       0.00000           0.127626            3.47289
     90       0.00000           0.128941            3.50865
     91       0.00000           0.136223            3.70682
     92       0.00000           0.142922            3.88909
     93       0.00000           0.147949            4.02589
     94       0.00000           0.151122            4.11225
     95       0.00000           0.156973            4.27147
     96       0.00000           0.165584            4.50576
     97       0.00000           0.172419            4.69176
     98       0.00000           0.174423            4.74628
     99       0.00000           0.181660            4.94322
    100       0.00000           0.187980            5.11520
    101       0.00000           0.189524            5.15721
    102       0.00000           0.194627            5.29608
    103       0.00000           0.200276            5.44978
    104       0.00000           0.202221            5.50270
    105       0.00000           0.204919            5.57612
    106       0.00000           0.211912            5.76642
    107       0.00000           0.214350            5.83275
    108       0.00000           0.215798            5.87217
    109       0.00000           0.219834            5.98198
    110       0.00000           0.227234            6.18336
    111       0.00000           0.231977            6.31242
    112       0.00000           0.238565            6.49168
    113       0.00000           0.243442            6.62438
    114       0.00000           0.248578            6.76414
    115       0.00000           0.253563            6.89981
    116       0.00000           0.256470            6.97889
    117       0.00000           0.261909            7.12691
    118       0.00000           0.263596            7.17282
    119       0.00000           0.275123            7.48648
    120       0.00000           0.276978            7.53695
    121       0.00000           0.282716            7.69309
    122       0.00000           0.285713            7.77464
    123       0.00000           0.293908            7.99764
    124       0.00000           0.299065            8.13797
    125       0.00000           0.307637            8.37123
    126       0.00000           0.310746            8.45582
    127       0.00000           0.320107            8.71056
    128       0.00000           0.325568            8.85917
    129       0.00000           0.330766            9.00059

  Highest occupied state (VBM) at     -5.39996450 eV
  | Occupation number:      2.00000000

  Lowest unoccupied state (CBM) at    -1.75856595 eV
  | Occupation number:      0.00000000

  Overall HOMO-LUMO gap:      3.64139855 eV.

  Total energy components:
  | Sum of eigenvalues            :        -418.07286116 Ha      -11376.34137415 eV
  | XC energy correction          :        -100.75682665 Ha       -2741.73275109 eV
  | XC potential correction       :         129.53292468 Ha        3524.77021882 eV
  | Free-atom electrostatic energy:        -333.59374097 Ha       -9077.54755245 eV
  | Hartree energy correction     :         -19.82920271 Ha        -539.58005924 eV
  | vdW energy correction         :           0.00000000 Ha           0.00000000 eV
  | Entropy correction            :          -0.00000000 Ha          -0.00000000 eV
  | ---------------------------
  | Total energy                  :        -742.71970682 Ha      -20210.43151812 eV
  | Total energy, T -> 0          :        -742.71970682 Ha      -20210.43151812 eV  <-- do not rely on this value for anything but (periodic) metals
  | Electronic free energy        :        -742.71970682 Ha      -20210.43151812 eV

  Derived energy quantities:
  | Kinetic energy                :         744.05574052 Ha       20246.78684476 eV
  | Electrostatic energy          :       -1386.01862069 Ha      -37715.48561178 eV
  | Energy correction for multipole
  | error in Hartree potential    :          -0.04103822 Ha          -1.11670679 eV
  | Sum of eigenvalues per atom                           :        -355.51066794 eV
  | Total energy (T->0) per atom                          :        -631.57598494 eV  <-- do not rely on this value for anything but (periodic) metals
  | Electronic free energy per atom                       :        -631.57598494 eV

  Self-consistency convergence accuracy:
  | Change of charge density      :  0.9030E+00
  | Change of sum of eigenvalues  :  0.5394E+03 eV
  | Change of total energy        :  0.1548E+02 eV

  End self-consistency iteration #     1       :  max(cpu_time)    wall_clock(cpu1)
  | Time for this iteration                    :        1.448 s           1.447 s
  | Charge density update                      :        0.460 s           0.457 s
[...]
   ----------------------------------------------------------------
   Total forces(  20)            :  0.118825E-03 -0.103267E-03 -0.121469E-02
  atom #   21
   Hellmann-Feynman              :  0.376097E-01 -0.170838E-01 -0.145985E-01
   Ionic forces                  :  0.000000E+00  0.000000E+00  0.000000E+00
   Multipole                     :  0.669881E-02 -0.936362E-02  0.850952E-02
   Pulay + GGA                   : -0.475853E-01  0.331714E-01  0.940290E-02
   Van der Waals                 :  0.491553E-02 -0.739690E-02 -0.290078E-02
   ----------------------------------------------------------------
   Total forces(  21)            :  0.163864E-02 -0.672952E-03  0.413093E-03
  atom #   22
   Hellmann-Feynman              : -0.370915E-01  0.370007E-01  0.561263E-01
   Ionic forces                  :  0.000000E+00  0.000000E+00  0.000000E+00
   Multipole                     : -0.531673E-02 -0.221024E-01  0.897242E-02
   Pulay + GGA                   :  0.353926E-01 -0.203601E-01 -0.593127E-01
   Van der Waals                 :  0.678731E-02  0.547899E-02 -0.461411E-02
   ----------------------------------------------------------------
   Total forces(  22)            : -0.228316E-03  0.172553E-04  0.117193E-02
  atom #   23
   Hellmann-Feynman              : -0.354149E+00 -0.780484E+00  0.387370E+00
   Ionic forces                  :  0.000000E+00  0.000000E+00  0.000000E+00
   Multipole                     :  0.132221E+00  0.274438E+00 -0.992534E-01
   Pulay + GGA                   :  0.208618E+00  0.517560E+00 -0.298173E+00
   Van der Waals                 :  0.134024E-01 -0.999959E-02  0.905777E-02
   ----------------------------------------------------------------
   Total forces(  23)            :  0.922168E-04  0.151430E-02 -0.999334E-03
  atom #   24
   Hellmann-Feynman              :  0.130975E-02  0.372640E-01  0.194716E-01
   Ionic forces                  :  0.000000E+00  0.000000E+00  0.000000E+00
   Multipole                     :  0.587990E-02 -0.233372E-02  0.308802E-01
   Pulay + GGA                   : -0.959064E-02 -0.290845E-01 -0.552496E-01
   Van der Waals                 :  0.142425E-02 -0.508723E-02  0.541237E-02
   ----------------------------------------------------------------
   Total forces(  24)            : -0.976741E-03  0.758502E-03  0.514535E-03
  atom #   25
   Hellmann-Feynman              :  0.270688E-01  0.298744E-01 -0.278756E-01
   Ionic forces                  :  0.000000E+00  0.000000E+00  0.000000E+00
   Multipole                     :  0.145554E-01 -0.233140E-01 -0.136833E-01
   Pulay + GGA                   : -0.455182E-01 -0.626398E-02  0.415088E-01
   Van der Waals                 :  0.397398E-02  0.350842E-03  0.150704E-04
   ----------------------------------------------------------------
   Total forces(  25)            :  0.799064E-04  0.647246E-03 -0.350075E-04
  atom #   26
   Hellmann-Feynman              : -0.144624E-01  0.380528E-01 -0.189406E-01
   Ionic forces                  :  0.000000E+00  0.000000E+00  0.000000E+00
   Multipole                     : -0.296242E-01 -0.665516E-02 -0.257258E-02
   Pulay + GGA                   :  0.519498E-01 -0.255132E-01  0.217034E-01
   Van der Waals                 : -0.857715E-02 -0.557575E-02 -0.467751E-03
   ----------------------------------------------------------------
   Total forces(  26)            : -0.714031E-03  0.308633E-03 -0.277609E-03
  atom #   27
   Hellmann-Feynman              :  0.773385E+00 -0.179023E-01  0.626792E+00
   Ionic forces                  :  0.000000E+00  0.000000E+00  0.000000E+00
   Multipole                     : -0.305818E-01  0.746512E-01  0.239264E+00
   Pulay + GGA                   : -0.744331E+00 -0.634285E-01 -0.867293E+00
   Van der Waals                 :  0.108104E-02  0.609262E-02  0.181713E-02
   ----------------------------------------------------------------
   Total forces(  27)            : -0.446799E-03 -0.586982E-03  0.579629E-03
  atom #   28
   Hellmann-Feynman              : -0.199841E+01  0.105036E+01 -0.104211E+01
   Ionic forces                  :  0.000000E+00  0.000000E+00  0.000000E+00
   Multipole                     :  0.153569E+00 -0.590400E-01  0.868313E-01
   Pulay + GGA                   :  0.184006E+01 -0.986236E+00  0.954869E+00
   Van der Waals                 :  0.658846E-02 -0.589734E-02  0.220505E-02
   ----------------------------------------------------------------
   Total forces(  28)            :  0.180776E-02 -0.810387E-03  0.179620E-02
  atom #   29
   Hellmann-Feynman              : -0.168487E-01  0.299104E-01  0.210205E-01
   Ionic forces                  :  0.000000E+00  0.000000E+00  0.000000E+00
   Multipole                     : -0.329775E-01  0.163441E-01 -0.932631E-02
   Pulay + GGA                   :  0.461235E-01 -0.443607E-01 -0.180461E-01
   Van der Waals                 :  0.270712E-02 -0.911642E-03  0.517459E-02
   ----------------------------------------------------------------
   Total forces(  29)            : -0.995479E-03  0.982092E-03 -0.117738E-02
  atom #   30
   Hellmann-Feynman              :  0.355106E-01  0.120624E-01  0.321691E-01
   Ionic forces                  :  0.000000E+00  0.000000E+00  0.000000E+00
   Multipole                     :  0.716227E-02  0.335779E-01 -0.102762E-01
   Pulay + GGA                   : -0.415963E-01 -0.471191E-01 -0.262162E-01
   Van der Waals                 : -0.817172E-03  0.100969E-02  0.409012E-02
   ----------------------------------------------------------------
   Total forces(  30)            :  0.259375E-03 -0.469092E-03 -0.233175E-03
  atom #   31
   Hellmann-Feynman              :  0.128600E-01 -0.147616E-01  0.459955E-01
   Ionic forces                  :  0.000000E+00  0.000000E+00  0.000000E+00
   Multipole                     : -0.287302E-01 -0.123196E-01  0.125841E-01
   Pulay + GGA                   :  0.155930E-01  0.239334E-01 -0.615548E-01
   Van der Waals                 : -0.440842E-03  0.277879E-02  0.303886E-02
   ----------------------------------------------------------------
   Total forces(  31)            : -0.718019E-03 -0.369093E-03  0.636994E-04
  atom #   32
   Hellmann-Feynman              :  0.562404E-01 -0.276754E-01  0.293236E-01
   Ionic forces                  :  0.000000E+00  0.000000E+00  0.000000E+00
   Multipole                     : -0.157727E-01 -0.123242E-01 -0.462904E-01
   Pulay + GGA                   : -0.415953E-01  0.405594E-01  0.180161E-01
   Van der Waals                 :  0.801517E-03 -0.154960E-02 -0.161731E-02
   ----------------------------------------------------------------
   Total forces(  32)            : -0.326119E-03 -0.989750E-03 -0.567940E-03

  Timings for VdW correction (Tkatchenko-Scheffler 2009 or later):
  | CPU time:        0.120 s, Wall clock time:        0.119 s.
  Removing unitary transformations (pure translations, rotations) from forces on atoms.
  Atomic forces before filtering:
  | Net force on center of mass :  -0.167699E-03 -0.913429E-03 -0.807522E-03 eV/A
  | Net torque on center of mass:   0.137331E-02  0.972521E-03  0.138237E-02 eV
  Atomic forces after filtering:
  | Net force on center of mass :  -0.121957E-17 -0.121957E-17 -0.348449E-18 eV/A
  | Net torque on center of mass:   0.737566E-18 -0.221270E-17  0.728346E-17 eV

  Energy and forces in a compact form:
  | Total energy uncorrected      :         -0.202086433574115E+05 eV
  | Total energy corrected        :         -0.202086433574115E+05 eV  <-- do not rely on this value for anything but (periodic) metals
  | Electronic free energy        :         -0.202086433574115E+05 eV
  Total atomic forces (unitary forces cleaned) [eV/Ang]:
  |   1          0.786955689620963E-03          0.110560629416918E-02          0.418769555557502E-03
  |   2         -0.216940127498254E-02          0.100908691250497E-02          0.190734789318495E-03
  |   3          0.125565243051212E-04          0.281004515677016E-03          0.128037339729258E-02
  |   4         -0.132157001566478E-03          0.763916644351680E-03          0.139594065502955E-03
  |   5          0.220056799772751E-03         -0.317205058504187E-03         -0.196797906494424E-04
  |   6          0.238864512533280E-03         -0.156179006071330E-03         -0.768699016841217E-03
  |   7         -0.222183049517917E-02         -0.220695176933750E-02         -0.165385758250967E-03
  |   8          0.234356123006402E-02         -0.160758583311822E-02          0.291239652051005E-03
  |   9          0.178703860967029E-03          0.217634495815165E-02          0.126552846092270E-02
  |  10         -0.635895587925196E-03         -0.101830884823866E-02         -0.126975499534255E-02
  |  11          0.206969096297789E-02         -0.141988891288749E-02         -0.790842015860535E-03
  |  12          0.509144295907081E-03         -0.420572989119405E-03          0.101389234397197E-02
  |  13         -0.833626741063134E-03          0.165845242413070E-02         -0.126354674169605E-02
  |  14          0.732588188719510E-03         -0.320295672852022E-03          0.574889365343294E-03
  |  15          0.585075826316535E-03         -0.517010678300962E-03         -0.163756867550620E-03
  |  16          0.140505141340578E-03          0.108511273577340E-03         -0.172515884260590E-03
  |  17         -0.223443459005011E-02         -0.241969856806886E-03         -0.324561488694355E-03
  |  18         -0.154498983844475E-03         -0.110754445619571E-02         -0.619829306518607E-03
  |  19          0.876576899854250E-03          0.154349852445658E-02          0.887675686974931E-04
  |  20          0.136748027199220E-03         -0.503220562465191E-04         -0.121611611913033E-02
  |  21          0.165460281321889E-02         -0.614787993006897E-03          0.413775578798931E-03
  |  22         -0.222452966713259E-03          0.387496275695310E-04          0.119770088913251E-02
  |  23          0.855263505159857E-04          0.156310450560707E-02         -0.958703122815778E-03
  |  24         -0.987083834010857E-03          0.799258085653395E-03          0.563073200830551E-03
  |  25          0.727979360769557E-04          0.712653037051755E-03          0.260118774770068E-05
  |  26         -0.725808075055947E-03          0.357038774955606E-03         -0.228387165607434E-03
  |  27         -0.435022340034612E-03         -0.563458660139452E-03          0.595067270748576E-03
  |  28          0.182502610836206E-02         -0.788093240703699E-03          0.180273540547187E-02
  |  29         -0.988205243950333E-03          0.994437450068058E-03         -0.115191472429962E-02
  |  30          0.270550835514875E-03         -0.444941338841574E-03         -0.216873794420076E-03
  |  31         -0.694971272631815E-03         -0.361966453453399E-03          0.639786142991216E-04
  |  32         -0.304143596259065E-03         -0.954580204100639E-03         -0.572154553749080E-03

  ------------------------------------ 
  Start decomposition of the XC Energy 
  ------------------------------------ 
  Hartree-Fock part   :          0.000000000 Ha              0.000000000 eV
  ------------------------------------ 
  X Energy            :        -96.987077490 Ha          -2639.152657118 eV
  C Energy GGA        :         -3.867950072 Ha           -105.252276648 eV
  Total XC Energy     :       -100.855027563 Ha          -2744.404933766 eV
  LDA X and C from self-consistent density 
  X Energy LDA        :        -88.002047328 Ha          -2394.657546643 eV
  C Energy LDA        :         -7.531632197 Ha           -204.946139637 eV
  ------------------------------------ 
  End decomposition of the XC Energy 
  ------------------------------------ 
   
  ESP charge fitting starts.
  | Calculation :  00000001  of  00000001
  | Full density
  Computing multipole expansion for total density.
  Generating points for esp charges.
  Partitioning the integration grid into batches with parallel hashing+maxmin method.
  | Number of batches:     3923
  | Maximal batch size:     191
  | Minimal batch size:      53
  | Average batch size:     124.015
  | Standard deviation of batch sizes:      15.703

  Integration load balanced across    32 MPI tasks.
  Work distribution over tasks is as follows:
  Initializing partition tables, free-atom densities, potentials, etc. across the integration grid (initialize_grid_storage).
  | Original list of interatomic distances with          32 x         32 entries is created.
  | Net number of integration points:   486511
  | of which are non-zero points    :   486511
  Summing up potential from multipole expanded  density.
  Summing up the Hartree potential.
  Time summed over all CPUs for potential: real work        6.411 s, elapsed        6.760 s
  Fitting esp charges to potential.
  |
  | ESP charges fitted to the electrostatic potential :
  |
  | Atom         1: C, ESP charge:      0.52131308
  |
  | Atom         2: C, ESP charge:     -0.73724530
  |
  | Atom         3: O, ESP charge:      0.56530939
  |
  | Atom         4: H, ESP charge:     -0.14425661
  |
  | Atom         5: H, ESP charge:     -0.15112272
  |
  | Atom         6: H, ESP charge:     -0.14854855
  |
  | Atom         7: N, ESP charge:      0.69945754
  |
  | Atom         8: C, ESP charge:     -0.44644738
  |
  | Atom         9: C, ESP charge:     -0.47917942
  |
  | Atom        10: O, ESP charge:      0.50878467
  |
  | Atom        11: H, ESP charge:     -0.33797301
  |
  | Atom        12: H, ESP charge:      0.08763349
  |
  | Atom        13: C, ESP charge:      0.40393195
  |
  | Atom        14: H, ESP charge:     -0.08900948
  |
  | Atom        15: H, ESP charge:     -0.12739024
  |
  | Atom        16: H, ESP charge:     -0.11318272
  |
  | Atom        17: N, ESP charge:      0.55301330
  |
  | Atom        18: C, ESP charge:     -0.28676850
  |
  | Atom        19: C, ESP charge:     -0.54204631
  |
  | Atom        20: O, ESP charge:      0.50596248
  |
  | Atom        21: H, ESP charge:     -0.30855819
  |
  | Atom        22: H, ESP charge:      0.08719950
  |
  | Atom        23: C, ESP charge:      0.25760603
  |
  | Atom        24: H, ESP charge:     -0.04369524
  |
  | Atom        25: H, ESP charge:     -0.08707302
  |
  | Atom        26: H, ESP charge:     -0.08900881
  |
  | Atom        27: N, ESP charge:      0.35085806
  |
  | Atom        28: C, ESP charge:      0.47624543
  |
  | Atom        29: H, ESP charge:     -0.33289170
  |
  | Atom        30: H, ESP charge:     -0.16819732
  |
  | Atom        31: H, ESP charge:     -0.17308055
  |
  | Atom        32: H, ESP charge:     -0.21163982

  RRMS:       0.00095702

  Done.

------------------------------------------------------------------------------
  Final output of selected total energy values:

  The following output summarizes some interesting total energy values
  at the end of a run (AFTER all relaxation, molecular dynamics, etc.).

  | Total energy of the DFT / Hartree-Fock s.c.f. calculation      :         -20208.643357412 eV
  | Final zero-broadening corrected energy (caution - metals only) :         -20208.643357412 eV
  | For reference only, the value of 1 Hartree used in FHI-aims is :             27.211384500 eV

  Before relying on these values, please be sure to understand exactly which
  total energy value is referred to by a given number. Different objects may
  all carry the same name 'total energy'. Definitions:

  Total energy of the DFT / Hartree-Fock s.c.f. calculation:
  | Note that this energy does not include ANY quantities calculated after the
  | s.c.f. cycle, in particular not ANY RPA, MP2, etc. many-body perturbation terms.

  Final zero-broadening corrected energy:
  | For metallic systems only, a broadening of the occupation numbers at the Fermi
  | level can be extrapolated back to zero broadening by an electron-gas inspired
  | formula. For all systems that are not real metals, this value can be
  | meaningless and should be avoided.

------------------------------------------------------------------------------
  Methods described in the following list of references were used in this FHI-aims run.
  If you publish the results, please make sure to cite these reference if they apply.
  FHI-aims is an academic code, and for our developers (often, Ph.D. students
  and postdocs), scientific credit in the community is essential.
  Thank you for helping us!

  For any use of FHI-aims, please cite:

    Volker Blum, Ralf Gehrke, Felix Hanke, Paula Havu, Ville Havu,
    Xinguo Ren, Karsten Reuter, and Matthias Scheffler
    'Ab initio molecular simulations with numeric atom-centered orbitals'
    Computer Physics Communications 180, 2175-2196 (2009)
    http://dx.doi.org/10.1016/j.cpc.2009.06.022


  The scalable eigensolver library ELPA was used in your run.
  ELPA is essential especially for large systems on hundreds or thousands of CPUs.
  For ELPA, please cite:

    Andreas Marek, Volker Blum, Rainer Johanni, Ville Havu, Bruno Lang,
    Thomas Auckenthaler, Alexander Heinecke, Hans-Joachim Bungartz, and Hermann Lederer,
    'The ELPA Library - Scalable Parallel Eigenvalue Solutions
    for Electronic Structure Theory and Computational Science'
    The Journal of Physics: Condensed Matter 26, 213201 (2014).
    http://dx.doi.org/10.1088/0953-8984/26/21/213201


  For ELPA's efficient two-stage tridiagonalization used in your run, please cite:

    T. Auckenthaler, V. Blum, H.-J. Bungartz, T. Huckle, R. Johanni, L. Kraemer,
    B. Lang, H. Lederer, and P. R. Willems,
    'Parallel solution of partial symmetric eigenvalue problems'
    'from  electronic structure calculations'
    Parallel Computing 37, 783-794 (2011).
    http://dx.doi.org/10.1016/j.parco.2011.05.002


  For the real-space grid partitioning and parallelization used in this calculation, please cite:

    Ville Havu, Volker Blum, Paula Havu, and Matthias Scheffler,
    'Efficient O(N) integration for all-electron electronic structure calculation'
    'using numerically tabulated basis functions'
    Journal of Computational Physics 228, 8367-8379 (2009).
    http://dx.doi.org/10.1016/j.jcp.2009.08.008

  Of course, there are many other important community references, e.g., those cited in the
  above references. Our list is limited to references that describe implementations in the
  FHI-aims code. The reason is purely practical (length of this list) - please credit others as well.

------------------------------------------------------------
          Leaving FHI-aims.
          Date     :  20170309, Time     :  160810.571

          Computational steps:
          | Number of self-consistency cycles          :           14

          Detailed time accounting                     :  max(cpu_time)    wall_clock(cpu1)
          | Total time                                 :       29.158 s          29.421 s
          | Preparation time                           :        0.240 s           0.239 s
          | Grid partitioning                          :        0.292 s           0.285 s
          | Preloading free-atom quantities on grid    :        0.028 s           0.027 s
          | Free-atom superposition energy             :        0.040 s           0.038 s
          | Total time for integrations                :       10.093 s          10.075 s
          | Total time for solution of K.-S. equations :        0.532 s           0.505 s
          | Total time for density & force components  :        9.349 s           9.322 s
          | Total time for mixing                      :        0.128 s           0.106 s
          | Total time for Hartree multipole update    :        0.076 s           0.060 s
          | Total time for Hartree multipole sum       :        6.368 s           6.358 s
          | Total time for total energy evaluation     :        0.032 s           0.023 s
          | Total time for vdW correction              :        0.120 s           0.119 s

          Have a nice day.
------------------------------------------------------------
