  MPI-parallelism will be employed.
------------------------------------------------------------
          Invoking FHI-aims ...
          Version 150427
          Git rev.: 9dd23e0 BL: Update Version stamp
          Compiled on 2015/11/03 at 22:05:20 on host eos03.

          When using FHI-aims, please cite the following reference:

          Volker Blum, Ralf Gehrke, Felix Hanke, Paula Havu,
          Ville Havu, Xinguo Ren, Karsten Reuter, and Matthias Scheffler,
          'Ab Initio Molecular Simulations with Numeric Atom-Centered Orbitals: FHI-aims',
          Computer Physics Communications 180, 2175-2196 (2009)

          For any questions about FHI-aims, please visit the aimsclub website
          with its forums and wiki. Contributions to both the forums and the
          wiki are warmly encouraged - they are for you, and everyone is welcome there.

------------------------------------------------------------

  Date     :  20170309, Time     :  181955.599
  Time zero on CPU 1             :   0.396024000000000E+00  s.
  Internal wall clock time zero  :           258315595.599  s.

  Using       32 parallel tasks.
  Task        0 on host eos162 reporting.
  Task        1 on host eos162 reporting.
  Task        2 on host eos162 reporting.
  Task        3 on host eos162 reporting.
  Task        4 on host eos162 reporting.
  Task        5 on host eos162 reporting.
  Task        6 on host eos162 reporting.
  Task        7 on host eos162 reporting.
  Task        8 on host eos162 reporting.
  Task        9 on host eos162 reporting.
  Task       10 on host eos162 reporting.
  Task       11 on host eos162 reporting.
  Task       12 on host eos162 reporting.
  Task       13 on host eos162 reporting.
  Task       14 on host eos162 reporting.
  Task       15 on host eos162 reporting.
  Task       16 on host eos162 reporting.
  Task       17 on host eos162 reporting.
  Task       18 on host eos162 reporting.
  Task       19 on host eos162 reporting.
  Task       20 on host eos162 reporting.
  Task       21 on host eos162 reporting.
  Task       22 on host eos162 reporting.
  Task       23 on host eos162 reporting.
  Task       24 on host eos162 reporting.
  Task       25 on host eos162 reporting.
  Task       26 on host eos162 reporting.
  Task       27 on host eos162 reporting.
  Task       28 on host eos162 reporting.
  Task       29 on host eos162 reporting.
  Task       30 on host eos162 reporting.
  Task       31 on host eos162 reporting.

  Performing system and environment tests:
  | Environment variable OMP_NUM_THREADS correctly set to 1.
  | Stacksize not measured: no C compiler
  | Checking for scalapack...
  | Testing pdtran()...
  | All pdtran() tests passed.

  Obtaining array dimensions for all initial allocations:
  
  -----------------------------------------------------------------------
  Parsing control.in (first pass over file, find array dimensions only).
  The contents of control.in will be repeated verbatim below
  unless switched off by setting 'verbatim_writeout .false.' .
  in the first line of control.in .
  -----------------------------------------------------------------------
  
  #########################################################################################
  #
  # Input for System
  #
  #########################################################################################
  #
  #
  #  Physical model
  #
    xc                 pbe
    vdw_correction_hirshfeld
    spin               none
    charge             0.
  #
  #  SCF convergence
  #
    occupation_type    gaussian 0.05
    mixer              pulay
      n_max_pulay        10
      charge_mix_param   0.5
    sc_accuracy_rho    1E-4
    sc_accuracy_eev    1E-2
    sc_accuracy_etot   1E-5
    sc_accuracy_forces 1E-4
    sc_iter_limit      1000
  #
  #  ESP charge
  #
    output esp
    esp equal_grid_n 80 80 80
  #
  #
  ################################################################################
  #
  #  FHI-aims code project
  # Volker Blum, Fritz Haber Institute Berlin, 2009
  #
  #  Suggested "tight" defaults for H atom (to be pasted into control.in file)
  #
  ################################################################################
    species        H
  #     global species definitions
      nucleus             1
      mass                1.00794
  #
      l_hartree           6
  #
      cut_pot             4.0  2.0  1.0
      basis_dep_cutoff    1e-4
  #
      radial_base         24 7.0
      radial_multiplier   2
      angular_grids       specified
        division   0.1930   50
        division   0.3175  110
        division   0.4293  194
        division   0.5066  302
        division   0.5626  434
  #      division   0.5922  590
  #      division   0.6227  974
  #      division   0.6868 1202
  #      outer_grid  770
        outer_grid  434
  ################################################################################
  #
  #  Definition of "minimal" basis
  #
  ################################################################################
  #     valence basis states
      valence      1  s   1.
  #     ion occupancy
      ion_occ      1  s   0.5
  ################################################################################
  #
  #  Suggested additional basis functions. For production calculations,
  #  uncomment them one after another (the most important basis functions are
  #  listed first).
  #
  #  Basis constructed for dimers: 0.5 A, 0.7 A, 1.0 A, 1.5 A, 2.5 A
  #
  ################################################################################
  #  "First tier" - improvements: -1014.90 meV to -62.69 meV
       hydro 2 s 2.1
       hydro 2 p 3.5
  #  "Second tier" - improvements: -12.89 meV to -1.83 meV
       hydro 1 s 0.85
       hydro 2 p 3.7
       hydro 2 s 1.2
       hydro 3 d 7
  #  "Third tier" - improvements: -0.25 meV to -0.12 meV
  #     hydro 4 f 11.2
  #     hydro 3 p 4.8
  #     hydro 4 d 9
  #     hydro 3 s 3.2
  ################################################################################
  #
  # For methods that use the localized form of the "resolution of identity" for
  # the two-electron Coulomb operator (RI_method LVL), particularly Hartree-Fock and
  # hybrid density functional calculations, the highest accuracy can be obtained by
  # uncommenting the line beginning with "for_aux"  below, thus adding an extra g radial
  # function to the construction of the product basis set for the expansion.
  # See Ref. New J. Phys. 17, 093020 (2015) for more information, particularly Figs. 1 and 6.
  #
  ################################################################################
  #
  # for_aux hydro 5 g 6.0
  ################################################################################
  #
  #  FHI-aims code project
  # Volker Blum, Fritz Haber Institute Berlin, 2009
  #
  #  Suggested "tight" defaults for C atom (to be pasted into control.in file)
  #
  ################################################################################
    species        C
  #     global species definitions
      nucleus             6
      mass                12.0107
  #
      l_hartree           6
  #
      cut_pot             4.0  2.0  1.0
      basis_dep_cutoff    1e-4
  #
      radial_base         34 7.0
      radial_multiplier   2
      angular_grids specified
        division   0.2187   50
        division   0.4416  110
        division   0.6335  194
        division   0.7727  302
        division   0.8772  434
  #      division   0.9334  590
  #      division   0.9924  770
  #      division   1.0230  974
  #      division   1.5020 1202
  #     outer_grid  974
        outer_grid  434
  ################################################################################
  #
  #  Definition of "minimal" basis
  #
  ################################################################################
  #     valence basis states
      valence      2  s   2.
      valence      2  p   2.
  #     ion occupancy
      ion_occ      2  s   1.
      ion_occ      2  p   1.
  ################################################################################
  #
  #  Suggested additional basis functions. For production calculations,
  #  uncomment them one after another (the most important basis functions are
  #  listed first).
  #
  #  Constructed for dimers: 1.0 A, 1.25 A, 1.5 A, 2.0 A, 3.0 A
  #
  ################################################################################
  #  "First tier" - improvements: -1214.57 meV to -155.61 meV
       hydro 2 p 1.7
       hydro 3 d 6
       hydro 2 s 4.9
  #  "Second tier" - improvements: -67.75 meV to -5.23 meV
       hydro 4 f 9.8
       hydro 3 p 5.2
       hydro 3 s 4.3
       hydro 5 g 14.4
       hydro 3 d 6.2
  #  "Third tier" - improvements: -2.43 meV to -0.60 meV
  #     hydro 2 p 5.6
  #     hydro 2 s 1.4
  #     hydro 3 d 4.9
  #     hydro 4 f 11.2
  #  "Fourth tier" - improvements: -0.39 meV to -0.18 meV
  #     hydro 2 p 2.1
  #     hydro 5 g 16.4
  #     hydro 4 d 13.2
  #     hydro 3 s 13.6
  #     hydro 4 f 17.6
  #  Further basis functions - improvements: -0.08 meV and below
  #     hydro 3 s 2
  #     hydro 3 p 6
  #     hydro 4 d 20
  ################################################################################
  #
  # For methods that use the localized form of the "resolution of identity" for
  # the two-electron Coulomb operator (RI_method LVL), particularly Hartree-Fock and
  # hybrid density functional calculations, the highest accuracy can be obtained by
  # uncommenting the line beginning with "for_aux"  below, thus adding an extra g radial
  # function to the construction of the product basis set for the expansion.
  # See Ref. New J. Phys. 17, 093020 (2015) for more information, particularly Figs. 1 and 6.
  #
  ################################################################################
  #
  # for_aux hydro 5 g 6.0
  ################################################################################
  #
  #  FHI-aims code project
  # Volker Blum, Fritz Haber Institute Berlin, 2009
  #
  #  Suggested "tight" defaults for N atom (to be pasted into control.in file)
  #
  ################################################################################
    species        N
  #     global species definitions
      nucleus             7
      mass                14.0067
  #
      l_hartree           6
  #
      cut_pot             4.0  2.0  1.0
      basis_dep_cutoff    1e-4
  #
      radial_base         35 7.0
      radial_multiplier   2
      angular_grids       specified
        division   0.1841   50
        division   0.3514  110
        division   0.5126  194
        division   0.6292  302
        division   0.6939  434
  #      division   0.7396  590
  #      division   0.7632  770
  #      division   0.8122  974
  #      division   1.1604 1202
  #      outer_grid  974
        outer_grid  434
  ################################################################################
  #
  #  Definition of "minimal" basis
  #
  ################################################################################
  #     valence basis states
      valence      2  s   2.
      valence      2  p   3.
  #     ion occupancy
      ion_occ      2  s   1.
      ion_occ      2  p   2.
  ################################################################################
  #
  #  Suggested additional basis functions. For production calculations,
  #  uncomment them one after another (the most important basis functions are
  #  listed first).
  #
  #  Constructed for dimers: 1.0 A, 1.1 A, 1.5 A, 2.0 A, 3.0 A
  #
  ################################################################################
  #  "First tier" - improvements: -1193.42 meV to -220.60 meV
       hydro 2 p 1.8
       hydro 3 d 6.8
       hydro 3 s 5.8
  #  "Second tier" - improvements: -80.21 meV to -6.86 meV
       hydro 4 f 10.8
       hydro 3 p 5.8
       hydro 1 s 0.8
       hydro 5 g 16
       hydro 3 d 4.9
  #  "Third tier" - improvements: -4.29 meV to -0.53 meV
  #     hydro 3 s 16
  #     ionic 2 p auto
  #     hydro 3 d 6.6
  #     hydro 4 f 11.6
  #  "Fourth tier" - improvements: -0.75 meV to -0.25 meV
  #     hydro 2 p 4.5
  #     hydro 2 s 2.4
  #     hydro 5 g 14.4
  #     hydro 4 d 14.4
  #     hydro 4 f 16.8
  # Further basis functions - -0.21 meV and below
  #     hydro 3 p 14.8
  #     hydro 3 s 4.4
  #     hydro 3 d 19.6
  #     hydro 5 g 12.8
  ################################################################################
  #
  # For methods that use the localized form of the "resolution of identity" for
  # the two-electron Coulomb operator (RI_method LVL), particularly Hartree-Fock and
  # hybrid density functional calculations, the highest accuracy can be obtained by
  # uncommenting the line beginning with "for_aux"  below, thus adding an extra g radial
  # function to the construction of the product basis set for the expansion.
  # See Ref. New J. Phys. 17, 093020 (2015) for more information, particularly Figs. 1 and 6.
  #
  ################################################################################
  #
  # for_aux hydro 5 g 6.0
  ################################################################################
  #
  #  FHI-aims code project
  # Volker Blum, Fritz Haber Institute Berlin, 2009
  #
  #  Suggested "tight" defaults for O atom (to be pasted into control.in file)
  #
  ################################################################################
    species        O
  #     global species definitions
      nucleus             8
      mass                15.9994
  #
      l_hartree           6
  #
      cut_pot             4.0  2.0  1.0
      basis_dep_cutoff    1e-4
  #
      radial_base         36 7.0
      radial_multiplier   2
       angular_grids specified
        division   0.1817   50
        division   0.3417  110
        division   0.4949  194
        division   0.6251  302
        division   0.8014  434
  #      division   0.8507  590
  #      division   0.8762  770
  #      division   0.9023  974
  #      division   1.2339 1202
  #      outer_grid 974
        outer_grid  434
  ################################################################################
  #
  #  Definition of "minimal" basis
  #
  ################################################################################
  #     valence basis states
      valence      2  s   2.
      valence      2  p   4.
  #     ion occupancy
      ion_occ      2  s   1.
      ion_occ      2  p   3.
  ################################################################################
  #
  #  Suggested additional basis functions. For production calculations,
  #  uncomment them one after another (the most important basis functions are
  #  listed first).
  #
  #  Constructed for dimers: 1.0 A, 1.208 A, 1.5 A, 2.0 A, 3.0 A
  #
  ################################################################################
  #  "First tier" - improvements: -699.05 meV to -159.38 meV
       hydro 2 p 1.8
       hydro 3 d 7.6
       hydro 3 s 6.4
  #  "Second tier" - improvements: -49.91 meV to -5.39 meV
       hydro 4 f 11.6
       hydro 3 p 6.2
       hydro 3 d 5.6
       hydro 5 g 17.6
       hydro 1 s 0.75
  #  "Third tier" - improvements: -2.83 meV to -0.50 meV
  #     ionic 2 p auto
  #     hydro 4 f 10.8
  #     hydro 4 d 4.7
  #     hydro 2 s 6.8
  #  "Fourth tier" - improvements: -0.40 meV to -0.12 meV
  #     hydro 3 p 5
  #     hydro 3 s 3.3
  #     hydro 5 g 15.6
  #     hydro 4 f 17.6
  #     hydro 4 d 14
  # Further basis functions - -0.08 meV and below
  #     hydro 3 s 2.1
  #     hydro 4 d 11.6
  #     hydro 3 p 16
  #     hydro 2 s 17.2
  ################################################################################
  #
  # For methods that use the localized form of the "resolution of identity" for
  # the two-electron Coulomb operator (RI_method LVL), particularly Hartree-Fock and
  # hybrid density functional calculations, the highest accuracy can be obtained by
  # uncommenting the line beginning with "for_aux"  below, thus adding an extra g radial
  # function to the construction of the product basis set for the expansion.
  # See Ref. New J. Phys. 17, 093020 (2015) for more information, particularly Figs. 1 and 6.
  #
  ################################################################################
  #
  # for_aux hydro 5 g 6.0
  
  -----------------------------------------------------------------------
  Completed first pass over input file control.in .
  -----------------------------------------------------------------------
  
  
  -----------------------------------------------------------------------
  Parsing geometry.in (first pass over file, find array dimensions only).
  The contents of geometry.in will be repeated verbatim below
  unless switched off by setting 'verbatim_writeout .false.' .
  in the first line of geometry.in .
  -----------------------------------------------------------------------
  
  #
  # This is the geometry file that corresponds to the current relaxation step.
  # If you do not want this file to be written, set the "write_restart_geometry" flag to .false.
  #
  atom      -0.42445591      0.88523709      1.39863789 C
  atom      -0.18830387      0.14450800      2.69974499 C
  atom       0.67004916      0.50792156      3.50136151 O
  atom      -0.75644093      0.24716414      0.57185125 H
  atom       0.50591138      1.39277453      1.12576841 H
  atom      -1.19166155      1.65521633      1.56125013 H
  atom      -0.96236845     -0.96379794      2.97817277 N
  atom      -2.03884894     -1.59046271      2.20439207 C
  atom      -1.55641866     -2.22182585      0.86738411 C
  atom      -2.34062147     -2.46268253     -0.04578193 O
  atom      -0.78875662     -1.32453167      3.91206275 H
  atom      -2.34136986     -2.46035128      2.80992001 H
  atom      -3.28460619     -0.72374901      2.00411612 C
  atom      -3.08334677      0.14867151      1.37216633 H
  atom      -3.65581947     -0.37497235      2.97553981 H
  atom      -4.06520461     -1.31286362      1.51108960 H
  atom      -0.22875682     -2.51358410      0.82848411 N
  atom       0.40948389     -3.22749037     -0.27864275 C
  atom       1.78384075     -3.77858407      0.14081833 C
  atom       2.06531583     -4.95233050     -0.08785393 O
  atom       0.30344563     -2.32951535      1.67139502 H
  atom      -0.18587404     -4.12585530     -0.49105960 H
  atom       0.48985206     -2.40398569     -1.57545696 C
  atom      -0.52146806     -2.13902374     -1.90363168 H
  atom       0.96297528     -3.00866501     -2.35956297 H
  atom       1.07303276     -1.48275003     -1.45201541 H
  atom       2.68292873     -2.95339715      0.76793537 N
  atom       2.67995139     -1.51214630      0.98575798 C
  atom       3.53965602     -3.44840366      1.00220940 H
  atom       3.59706142     -1.06668057      0.57581124 H
  atom       2.61915121     -1.25553407      2.05433400 H
  atom       1.83281371     -1.04558929      0.47815103 H
  
  -----------------------------------------------------------------------
  Completed first pass over input file geometry.in .
  -----------------------------------------------------------------------
  

  Basic array size parameters:
  | Number of species                 :        4
  | Number of atoms                   :       32
  | Max. basis fn. angular momentum   :        4
  | Max. atomic/ionic basis occupied n:        2
  | Max. number of basis fn. types    :        2
  | Max. radial fns per species/type  :        8
  | Max. logarithmic grid size        :     1301
  | Max. radial integration grid size :       73
  | Max. angular integration grid size:      434
  | Max. angular grid division number :        8
  | Radial grid for Hartree potential :     1301
  | Number of spin channels           :        1

------------------------------------------------------------
          Reading file control.in.
------------------------------------------------------------
  XC: Using PBE gradient-corrected functionals.
  Spin treatment: No spin polarisation.
  Charge =   0.000000E+00: Neutral system requested explicitly.
  Occupation type: Gaussian broadening, width =   0.500000E-01 eV.
  Using pulay charge density mixing.
  Pulay mixing - number of memorized iterations:   10
  Charge density mixing - mixing parameter:     0.5000
  Convergence accuracy of self-consistent charge density:  0.1000E-03
  Convergence accuracy of sum of eigenvalues:  0.1000E-01
  Convergence accuracy of total energy:  0.1000E-04
  Convergence accuracy of forces:  0.1000E-03
  Maximum number of s.-c. iterations  :  1000
  Fitting ESP-charges to Potential. 
  | Esp charge output options: 
  | ESP Grid method: 3, cubic grid
  | Number of points in x, ,y, z:  0080 0080 0080
  |
 
  Reading configuration options for species H                   .
  | Found nuclear charge :   1.0000
  | Found atomic mass :    1.00794000000000      amu
  | Found l_max for Hartree potential  :   6
  | Found cutoff potl. onset [A], width [A], scale factor :    4.00000    2.00000    1.00000
  | Threshold for basis-dependent cutoff potential is   0.100000E-03
  | Found data for basic radial integration grid :    24 points, outermost radius =    7.000 A
  | Found multiplier for basic radial grid :   2
  | Found angular grid specification: user-specified.
  | Specified grid contains     6 separate shells.
  | Check grid settings after all constraints further below.
  | Found free-atom valence shell :  1 s   1.000
  | No ionic wave fns used. Skipping ion_occ.
  | Found hydrogenic basis function :  2 s   2.100
  | Found hydrogenic basis function :  2 p   3.500
  | Found hydrogenic basis function :  1 s   0.850
  | Found hydrogenic basis function :  2 p   3.700
  | Found hydrogenic basis function :  2 s   1.200
  | Found hydrogenic basis function :  3 d   7.000
  Species H                   : Missing cutoff potential type.
  Defaulting to exp(1/x)/(1-x)^2 type cutoff potential.
  Species H : No 'logarithmic' tag. Using default grid for free atom:
  | Default logarithmic grid data [bohr] : 0.1000E-03 0.1000E+03 0.1012E+01
  Species H : On-site basis accuracy parameter (for Gram-Schmidt orthonormalisation) not specified.
  Using default value basis_acc =  0.1000000E-03.
  Species H                   : Using default innermost maximum threshold i_radial=  2 for radial functions.
  Species H                   : Default cutoff onset for free atom density etc. : 0.40000000E+01 AA.
  Species H                   : Basic radial grid will be enhanced according to radial_multiplier =   2, to contain    49 grid points.
 
  Reading configuration options for species C                   .
  | Found nuclear charge :   6.0000
  | Found atomic mass :    12.0107000000000      amu
  | Found l_max for Hartree potential  :   6
  | Found cutoff potl. onset [A], width [A], scale factor :    4.00000    2.00000    1.00000
  | Threshold for basis-dependent cutoff potential is   0.100000E-03
  | Found data for basic radial integration grid :    34 points, outermost radius =    7.000 A
  | Found multiplier for basic radial grid :   2
  | Found angular grid specification: user-specified.
  | Specified grid contains     6 separate shells.
  | Check grid settings after all constraints further below.
  | Found free-atom valence shell :  2 s   2.000
  | Found free-atom valence shell :  2 p   2.000
  | No ionic wave fns used. Skipping ion_occ.
  | No ionic wave fns used. Skipping ion_occ.
  | Found hydrogenic basis function :  2 p   1.700
  | Found hydrogenic basis function :  3 d   6.000
  | Found hydrogenic basis function :  2 s   4.900
  | Found hydrogenic basis function :  4 f   9.800
  | Found hydrogenic basis function :  3 p   5.200
  | Found hydrogenic basis function :  3 s   4.300
  | Found hydrogenic basis function :  5 g  14.400
  | Found hydrogenic basis function :  3 d   6.200
  Species C                   : Missing cutoff potential type.
  Defaulting to exp(1/x)/(1-x)^2 type cutoff potential.
  Species C : No 'logarithmic' tag. Using default grid for free atom:
  | Default logarithmic grid data [bohr] : 0.1000E-03 0.1000E+03 0.1012E+01
  Species C : On-site basis accuracy parameter (for Gram-Schmidt orthonormalisation) not specified.
  Using default value basis_acc =  0.1000000E-03.
  Species C                   : Using default innermost maximum threshold i_radial=  2 for radial functions.
  Species C                   : Default cutoff onset for free atom density etc. : 0.40000000E+01 AA.
  Species C                   : Basic radial grid will be enhanced according to radial_multiplier =   2, to contain    69 grid points.
 
  Reading configuration options for species N                   .
  | Found nuclear charge :   7.0000
  | Found atomic mass :    14.0067000000000      amu
  | Found l_max for Hartree potential  :   6
  | Found cutoff potl. onset [A], width [A], scale factor :    4.00000    2.00000    1.00000
  | Threshold for basis-dependent cutoff potential is   0.100000E-03
  | Found data for basic radial integration grid :    35 points, outermost radius =    7.000 A
  | Found multiplier for basic radial grid :   2
  | Found angular grid specification: user-specified.
  | Specified grid contains     6 separate shells.
  | Check grid settings after all constraints further below.
  | Found free-atom valence shell :  2 s   2.000
  | Found free-atom valence shell :  2 p   3.000
  | No ionic wave fns used. Skipping ion_occ.
  | No ionic wave fns used. Skipping ion_occ.
  | Found hydrogenic basis function :  2 p   1.800
  | Found hydrogenic basis function :  3 d   6.800
  | Found hydrogenic basis function :  3 s   5.800
  | Found hydrogenic basis function :  4 f  10.800
  | Found hydrogenic basis function :  3 p   5.800
  | Found hydrogenic basis function :  1 s   0.800
  | Found hydrogenic basis function :  5 g  16.000
  | Found hydrogenic basis function :  3 d   4.900
  Species N                   : Missing cutoff potential type.
  Defaulting to exp(1/x)/(1-x)^2 type cutoff potential.
  Species N : No 'logarithmic' tag. Using default grid for free atom:
  | Default logarithmic grid data [bohr] : 0.1000E-03 0.1000E+03 0.1012E+01
  Species N : On-site basis accuracy parameter (for Gram-Schmidt orthonormalisation) not specified.
  Using default value basis_acc =  0.1000000E-03.
  Species N                   : Using default innermost maximum threshold i_radial=  2 for radial functions.
  Species N                   : Default cutoff onset for free atom density etc. : 0.40000000E+01 AA.
  Species N                   : Basic radial grid will be enhanced according to radial_multiplier =   2, to contain    71 grid points.
 
  Reading configuration options for species O                   .
  | Found nuclear charge :   8.0000
  | Found atomic mass :    15.9994000000000      amu
  | Found l_max for Hartree potential  :   6
  | Found cutoff potl. onset [A], width [A], scale factor :    4.00000    2.00000    1.00000
  | Threshold for basis-dependent cutoff potential is   0.100000E-03
  | Found data for basic radial integration grid :    36 points, outermost radius =    7.000 A
  | Found multiplier for basic radial grid :   2
  | Found angular grid specification: user-specified.
  | Specified grid contains     6 separate shells.
  | Check grid settings after all constraints further below.
  | Found free-atom valence shell :  2 s   2.000
  | Found free-atom valence shell :  2 p   4.000
  | No ionic wave fns used. Skipping ion_occ.
  | No ionic wave fns used. Skipping ion_occ.
  | Found hydrogenic basis function :  2 p   1.800
  | Found hydrogenic basis function :  3 d   7.600
  | Found hydrogenic basis function :  3 s   6.400
  | Found hydrogenic basis function :  4 f  11.600
  | Found hydrogenic basis function :  3 p   6.200
  | Found hydrogenic basis function :  3 d   5.600
  | Found hydrogenic basis function :  5 g  17.600
  | Found hydrogenic basis function :  1 s   0.750
  Species O                   : Missing cutoff potential type.
  Defaulting to exp(1/x)/(1-x)^2 type cutoff potential.
  Species O : No 'logarithmic' tag. Using default grid for free atom:
  | Default logarithmic grid data [bohr] : 0.1000E-03 0.1000E+03 0.1012E+01
  Species O : On-site basis accuracy parameter (for Gram-Schmidt orthonormalisation) not specified.
  Using default value basis_acc =  0.1000000E-03.
  Species O                   : Using default innermost maximum threshold i_radial=  2 for radial functions.
  Species O                   : Default cutoff onset for free atom density etc. : 0.40000000E+01 AA.
  Species O                   : Basic radial grid will be enhanced according to radial_multiplier =   2, to contain    73 grid points.
 
  Finished reading input file 'control.in'. Consistency checks are next.
 
  Target number of points in a grid batch is not set. Defaulting to  100
  Method for grid partitioning is not set. Defaulting to parallel hash+maxmin partitioning.
  Batch size limit is not set. Defaulting to    200
  By default, will store active basis functions for each batch.
  If in need of memory, prune_basis_once .false. can be used to disable this option.
  communication_type for Hartree potential was not specified.
  Defaulting to calc_hartree .
  Pulay mixer: Number of initial linear mixing iterations not set.
  Defaulting to    0 iterations.
  Work space size for distributed Hartree potential not set.
  Defaulting to   0.200000E+03 MB.
  Algorithm-dependent basis array size parameters:
  | n_max_pulay                         :       10
  Geometry relaxation not requested: no relaxation will be performed.
  Handling of forces: Unphysical translation and rotation will be removed from forces.
  No accuracy limit for integral partition fn. given. Defaulting to  0.1000E-14.
  No threshold value for u(r) in integrations given. Defaulting to  0.1000E-05.
  No accuracy for occupation numbers given. Defaulting to  0.1000E-07.
  No threshold value for occupation numbers given. Defaulting to  0.0000E+00.
  No accuracy for fermi level given. Defaulting to  0.1000E-19.
  Maximum # of iterations to find E_F not set. Defaulting to  200.
  Preferred method for the eigenvalue solver ('KS_method') not specified in 'control.in'.
  Calling blacs routine to test compilation state
  Since scalapack support is enabled, defaulting to 'elpa'.
  Preferred method for the MBD eigenvalue solver ('mbd_eigensolver') not specified in 'control.in'.
  Calling blacs routine to test compilation state
  Since scalapack support is enabled, defaulting to 'scaLAPACK'.
  Will not use alltoall communication since running on < 1024 CPUs.
  Threshold for basis singularities not set.
  Default threshold for basis singularities:  0.1000E-04
  partition_type (choice of integration weights) for integrals was not specified.
  | Using a version of the partition function of Stratmann and coworkers ('stratmann_smoother').
  | At each grid point, the set of atoms used to build the partition table is smoothly restricted to
  | only those atoms whose free-atom density would be non-zero at that grid point.
  Partitioning for Hartree potential was not defined. Using partition_type for integrals.
  | Adjusted default value of keyword multip_moments_threshold to:       0.10000000E-11
  | This value may affect high angular momentum components of the Hartree potential in periodic systems.
  No q(lm)/r^(l+1) cutoff set for long-range Hartree potential.
  | Using default value of  0.100000E-09 .
  | Verify using the multipole_threshold keyword.
  Defaulting to new monopole extrapolation.
  Density update method: automatic selection selected.
------------------------------------------------------------


------------------------------------------------------------
          Reading geometry description geometry.in.
------------------------------------------------------------
 * Warning! You did not set the 'relativistic' flag in input file 'control.in'.
 * Since you are not attempting to treat any elements beyond Ca(Z=20), FHI-aims
 * will default to 'relativistic none'.
 * You must ensure that this is really what you want!!
 * For example, DO NOT compute total-energy differences between results from
 * different settings of the 'relativistic' flag.
  Input structure read successfully.
  The structure contains       32 atoms,  and a total of        116.000 electrons.

  Input geometry:
  | No unit cell requested.
  | Atomic structure:
  |       Atom                x [A]            y [A]            z [A]
  |    1: Species C             -0.424456         0.885237         1.398638
  |    2: Species C             -0.188304         0.144508         2.699745
  |    3: Species O              0.670049         0.507922         3.501362
  |    4: Species H             -0.756441         0.247164         0.571851
  |    5: Species H              0.505911         1.392775         1.125768
  |    6: Species H             -1.191662         1.655216         1.561250
  |    7: Species N             -0.962368        -0.963798         2.978173
  |    8: Species C             -2.038849        -1.590463         2.204392
  |    9: Species C             -1.556419        -2.221826         0.867384
  |   10: Species O             -2.340621        -2.462683        -0.045782
  |   11: Species H             -0.788757        -1.324532         3.912063
  |   12: Species H             -2.341370        -2.460351         2.809920
  |   13: Species C             -3.284606        -0.723749         2.004116
  |   14: Species H             -3.083347         0.148672         1.372166
  |   15: Species H             -3.655819        -0.374972         2.975540
  |   16: Species H             -4.065205        -1.312864         1.511090
  |   17: Species N             -0.228757        -2.513584         0.828484
  |   18: Species C              0.409484        -3.227490        -0.278643
  |   19: Species C              1.783841        -3.778584         0.140818
  |   20: Species O              2.065316        -4.952331        -0.087854
  |   21: Species H              0.303446        -2.329515         1.671395
  |   22: Species H             -0.185874        -4.125855        -0.491060
  |   23: Species C              0.489852        -2.403986        -1.575457
  |   24: Species H             -0.521468        -2.139024        -1.903632
  |   25: Species H              0.962975        -3.008665        -2.359563
  |   26: Species H              1.073033        -1.482750        -1.452015
  |   27: Species N              2.682929        -2.953397         0.767935
  |   28: Species C              2.679951        -1.512146         0.985758
  |   29: Species H              3.539656        -3.448404         1.002209
  |   30: Species H              3.597061        -1.066681         0.575811
  |   31: Species H              2.619151        -1.255534         2.054334
  |   32: Species H              1.832814        -1.045589         0.478151
  |

  | The smallest distance between any two atoms is         1.01371572 AA.
  |
  | The first atom of this pair is atom number                     17 .
  | The second atom of this pair is atom number                    21 .

  Number of empty states per atom not set in control.in - providing a guess from actual geometry.
  | Total number of empty states used during s.c.f. cycle:       71
  If you use a very high smearing, use empty_states (per atom!) in control.in to increase this value.

  Structure-dependent array size parameters: 
  | Maximum number of distinct radial functions  :       40
  | Maximum number of basis functions            :      840
  | Number of Kohn-Sham states (occupied + empty):      129
------------------------------------------------------------

------------------------------------------------------------
          Preparing all fixed parts of the calculation.
------------------------------------------------------------
  Determining machine precision:
    2.225073858507201E-308
  Setting up grids for atomic and cluster calculations.

  Creating wave function, potential, and density for free atoms.

  Species: H

  List of occupied orbitals and eigenvalues:
    n    l              occ      energy [Ha]    energy [eV]
    1    0           1.0000        -0.238382        -6.4867


  Species: C

  List of occupied orbitals and eigenvalues:
    n    l              occ      energy [Ha]    energy [eV]
    1    0           2.0000       -10.041232      -273.2358
    2    0           2.0000        -0.504327       -13.7234
    2    1           2.0000        -0.193750        -5.2722


  Species: N

  List of occupied orbitals and eigenvalues:
    n    l              occ      energy [Ha]    energy [eV]
    1    0           2.0000       -14.129007      -384.4699
    2    0           2.0000        -0.681802       -18.5528
    2    1           3.0000        -0.260543        -7.0897


  Species: O

  List of occupied orbitals and eigenvalues:
    n    l              occ      energy [Ha]    energy [eV]
    1    0           2.0000       -18.898576      -514.2564
    2    0           2.0000        -0.878795       -23.9132
    2    1           4.0000        -0.332075        -9.0362

  Creating fixed part of basis set: Ionic, confined, hydrogenic.
 
  H                    hydrogenic:
 
  List of hydrogenic basis orbitals: 
    n    l      effective z      eigenvalue [eV]  inner max. [A]     outer max. [A]     outer radius [A]   
    2    0         2.100000       -14.9965           0.193243           1.317208           5.373006
    2    1         3.500000       -41.6672           0.602369           0.602369           4.056063
    1    0         0.850000        -9.8292           0.624871           0.624871           5.373006
    2    1         3.700000       -46.5653           0.573622           0.573622           3.910002
    2    0         1.200000        -4.5995           0.334980           2.228188           5.505995
    3    2         7.000000       -74.0753           0.680699           0.680699           3.769201
 
 
  C                    hydrogenic:
 
  List of hydrogenic basis orbitals: 
    n    l      effective z      eigenvalue [eV]  inner max. [A]     outer max. [A]     outer radius [A]   
    2    1         1.700000        -9.8152           1.245706           1.245706           5.401630
    3    2         6.000000       -54.4226           0.792453           0.792453           4.178599
    2    0         4.900000       -81.6681           0.082559           0.562749           3.353238
    4    3         9.800000       -81.6681           0.863254           0.863254           4.028125
    3    1         5.200000       -40.8774           0.305389           1.215618           4.898362
    3    0         4.300000       -27.9508           0.091041           1.610311           5.401630
    5    4        14.400000      -112.8510           0.917666           0.917666           3.883070
    3    2         6.200000       -58.1113           0.763917           0.763917           4.077671
 
 
  N                    hydrogenic:
 
  List of hydrogenic basis orbitals: 
    n    l      effective z      eigenvalue [eV]  inner max. [A]     outer max. [A]     outer radius [A]   
    2    1         1.800000       -11.0118           1.177451           1.177451           5.427479
    3    2         6.800000       -69.9029           0.704619           0.704619           3.854246
    3    0         5.800000       -50.8549           0.067388           1.191934           4.629968
    4    3        10.800000       -99.1854           0.786571           0.786571           3.761152
    3    1         5.800000       -50.8549           0.274880           1.094176           4.518138
    1    0         0.800000        -8.7059           0.662839           0.662839           5.361532
    5    4        16.000000      -139.3222           0.825990           0.825990           3.625711
    3    2         4.900000       -36.2967           0.968267           0.968267           4.862000
 
 
  O                    hydrogenic:
 
  List of hydrogenic basis orbitals: 
    n    l      effective z      eigenvalue [eV]  inner max. [A]     outer max. [A]     outer radius [A]   
    2    1         1.800000       -11.0118           1.178562           1.178562           5.432602
    3    2         7.600000       -87.3182           0.624125           0.624125           3.541477
    3    0         6.400000       -61.9209           0.061167           1.081902           4.306578
    4    3        11.600000      -114.4238           0.731631           0.731631           3.585037
    3    1         6.200000       -58.1113           0.255680           1.030270           4.306578
    3    2         5.600000       -47.4081           0.847233           0.847233           4.413171
    5    4        17.600000      -168.5799           0.749740           0.749740           3.372465
    1    0         0.750000        -7.6499           0.705284           0.705284           5.366593
 

  Adding cutoff potential to free-atom effective potential.
  Creating atomic-like basis functions for current effective potential.

  Species H                   :

  List of atomic basis orbitals and eigenvalues:
    n    l      energy [Ha]    energy [eV]    outer radius [A]
    1    0        -0.238382        -6.4867       5.373006


  Species C                   :

  List of atomic basis orbitals and eigenvalues:
    n    l      energy [Ha]    energy [eV]    outer radius [A]
    1    0       -10.041232      -273.2358       1.934409
    2    0        -0.504327       -13.7234       5.271162
    2    1        -0.193750        -5.2722       5.401630


  Species N                   :

  List of atomic basis orbitals and eigenvalues:
    n    l      energy [Ha]    energy [eV]    outer radius [A]
    1    0       -14.129007      -384.4699       1.637919
    2    0        -0.681802       -18.5528       5.168461
    2    1        -0.260543        -7.0897       5.361532


  Species O                   :

  List of atomic basis orbitals and eigenvalues:
    n    l      energy [Ha]    energy [eV]    outer radius [A]
    1    0       -18.898576      -514.2564       1.415765
    2    0        -0.878795       -23.9132       5.048385
    2    1        -0.332075        -9.0362       5.301386

  Assembling full basis from fixed parts.
  | Species H :   atomic orbital   1 s accepted.
  | Species H :    hydro orbital   2 s accepted.
  | Species H :    hydro orbital   1 s accepted.
  | Species H :    hydro orbital   2 s accepted.
  | Species H :    hydro orbital   2 p accepted.
  | Species H :    hydro orbital   2 p accepted.
  | Species H :    hydro orbital   3 d accepted.
  | Species C :   atomic orbital   1 s accepted.
  | Species C :    hydro orbital   2 s accepted.
  | Species C :   atomic orbital   2 s accepted.
  | Species C :    hydro orbital   3 s accepted.
  | Species C :    hydro orbital   3 p accepted.
  | Species C :   atomic orbital   2 p accepted.
  | Species C :    hydro orbital   2 p accepted.
  | Species C :    hydro orbital   3 d accepted.
  | Species C :    hydro orbital   3 d accepted.
  | Species C :    hydro orbital   4 f accepted.
  | Species C :    hydro orbital   5 g accepted.
  | Species N :   atomic orbital   1 s accepted.
  | Species N :    hydro orbital   3 s accepted.
  | Species N :   atomic orbital   2 s accepted.
  | Species N :    hydro orbital   1 s accepted.
  | Species N :    hydro orbital   3 p accepted.
  | Species N :   atomic orbital   2 p accepted.
  | Species N :    hydro orbital   2 p accepted.
  | Species N :    hydro orbital   3 d accepted.
  | Species N :    hydro orbital   3 d accepted.
  | Species N :    hydro orbital   4 f accepted.
  | Species N :    hydro orbital   5 g accepted.
  | Species O :   atomic orbital   1 s accepted.
  | Species O :    hydro orbital   3 s accepted.
  | Species O :   atomic orbital   2 s accepted.
  | Species O :    hydro orbital   1 s accepted.
  | Species O :    hydro orbital   3 p accepted.
  | Species O :   atomic orbital   2 p accepted.
  | Species O :    hydro orbital   2 p accepted.
  | Species O :    hydro orbital   3 d accepted.
  | Species O :    hydro orbital   3 d accepted.
  | Species O :    hydro orbital   4 f accepted.
  | Species O :    hydro orbital   5 g accepted.
 
  Basis size parameters after reduction:
  | Total number of radial functions:       40
  | Total number of basis functions :      840
 
  Testing on-site integration grid accuracy.
  |  Species  Function  <phi|h_atom|phi> (log., in eV)  <phi|h_atom|phi> (rad., in eV)
           1        1                 -6.4869821809                 -6.4870742227
           1        2                 13.5044133542                 13.5041049177
           1        3                 32.7854418792                 32.7779770519
           1        4                 33.7995553101                 33.7152624900 ***
           1        5                 28.8558651799                 28.8558652046
           1        6                 59.6361831893                 59.6362535845
           1        7                 60.2733718049                 60.2733715484
           2        8               -273.2358277112               -273.2358261765
           2        9                -10.7624923123                -10.7625144012
           2       10                 17.4634079027                 17.4634252127
           2       11                 53.0363661832                 53.0366180446
           2       12                 15.0981351967                 15.0981317714
           2       13                  3.8522181899                  3.8522770949
           2       14                 12.1181835661                 12.1206868578
           2       15                 29.4320778347                 29.4320780959
           2       16                 54.8753777694                 54.8752901936
           2       17                 59.3533975461                 59.3533974833
           2       18                 93.4537491195                 93.4537492066
           3       19               -384.4698526889               -384.4698499465
           3       20                 12.5691022037                 12.5690910168
           3       21                -15.7489097511                -15.7489165588
           3       22                 27.0978334940                 27.0985589490
           3       23                 18.5949116966                 18.5949125562
           3       24                  1.2212828291                  1.2212855301
           3       25                 13.4428926797                 13.4434051125
           3       26                 35.9380614500                 35.9380613666
           3       27                 39.9231532098                 39.9231654735
           3       28                 72.9957335806                 72.9957336833
           3       29                116.4231321147                116.4231321431
           4       30               -514.2564144315               -514.2564099626
           4       31                 15.1726678541                 15.1726530877
           4       32                -21.5447785304                -21.5447874973
           4       33                 14.4944558459                 14.4944698284
           4       34                 20.8882174564                 20.8882178906
           4       35                 -2.4850315908                 -2.4850322289
           4       36                 13.8600193195                 13.8599826966
           4       37                 45.8243383616                 45.8243383675
           4       38                 52.1840606465                 52.1840622440
           4       39                 85.4074185510                 85.4074185819
           4       40                142.0983717302                142.0983717339
 * Note: Onsite integrals marked "***" above are less accurate than
 * onsite_accuracy_threshold =    0.03000 eV. Usually, this is harmless.
 * When in doubt, tighten the "radial" and/or "radial_multiplier" flags to check.

  Preparing densities etc. for the partition functions (integrals / Hartree potential).

  Preparations completed.
  max(cpu_time)          :      0.240 s.
  Wall clock time (cpu1) :      0.243 s.
------------------------------------------------------------

------------------------------------------------------------
          Begin self-consistency loop: Initialization.

          Date     :  20170309, Time     :  181956.677
------------------------------------------------------------

  Initializing index lists of integration centers etc. from given atomic structure:
  | Number of centers in hartree potential         :        32
  | Number of centers in hartree multipole         :        32
  | Number of centers in electron density summation:        32
  | Number of centers in basis integrals           :        32
  | Number of centers in integrals                 :        32
  | Number of centers in hamiltonian               :        32
  Using modified Scalapack Eigenvalue solver (ELPA)
  * Using 32 tasks for Scalapack Eigenvalue solver.
  Detailed listing of tasks and assigned k-points:
  (for non-periodic systems, the "k-point" denotes an internal label only)
   Task     0 k-point     1 on eos162
   Task     1 k-point     1 on eos162
   Task     2 k-point     1 on eos162
   Task     3 k-point     1 on eos162
   Task     4 k-point     1 on eos162
   Task     5 k-point     1 on eos162
   Task     6 k-point     1 on eos162
   Task     7 k-point     1 on eos162
   Task     8 k-point     1 on eos162
   Task     9 k-point     1 on eos162
   Task    10 k-point     1 on eos162
   Task    11 k-point     1 on eos162
   Task    12 k-point     1 on eos162
   Task    13 k-point     1 on eos162
   Task    14 k-point     1 on eos162
   Task    15 k-point     1 on eos162
   Task    16 k-point     1 on eos162
   Task    17 k-point     1 on eos162
   Task    18 k-point     1 on eos162
   Task    19 k-point     1 on eos162
   Task    20 k-point     1 on eos162
   Task    21 k-point     1 on eos162
   Task    22 k-point     1 on eos162
   Task    23 k-point     1 on eos162
   Task    24 k-point     1 on eos162
   Task    25 k-point     1 on eos162
   Task    26 k-point     1 on eos162
   Task    27 k-point     1 on eos162
   Task    28 k-point     1 on eos162
   Task    29 k-point     1 on eos162
   Task    30 k-point     1 on eos162
   Task    31 k-point     1 on eos162
  Tasks:    32 split into      8 X      4 BLACS grid
  Calculating blocksize based on n_basis =          840 max_nprow =            8 max_npcol =            4
  Scalapack blocksize set to:           16
  Required Scalapack workspace - INTEGER:            1 REAL:             1
  Partitioning the integration grid into batches with parallel hashing+maxmin method.
  | Number of batches:     4982
  | Maximal batch size:     200
  | Minimal batch size:      38
  | Average batch size:     105.927
  | Standard deviation of batch sizes:      33.029

  Integration load balanced across    32 MPI tasks.
  Work distribution over tasks is as follows:
  Task     0 has      16461 integration points.
  Task     1 has      16463 integration points.
  Task     2 has      16478 integration points.
  Task     3 has      16568 integration points.
  Task     4 has      16534 integration points.
  Task     5 has      16460 integration points.
  Task     6 has      16570 integration points.
  Task     7 has      16439 integration points.
  Task     8 has      16471 integration points.
  Task     9 has      16483 integration points.
  Task    10 has      16457 integration points.
  Task    11 has      16557 integration points.
  Task    12 has      16446 integration points.
  Task    13 has      16468 integration points.
  Task    14 has      16550 integration points.
  Task    15 has      16478 integration points.
  Task    16 has      16549 integration points.
  Task    17 has      16540 integration points.
  Task    18 has      16584 integration points.
  Task    19 has      16562 integration points.
  Task    20 has      16464 integration points.
  Task    21 has      16441 integration points.
  Task    22 has      16449 integration points.
  Task    23 has      16464 integration points.
  Task    24 has      16558 integration points.
  Task    25 has      16549 integration points.
  Task    26 has      16485 integration points.
  Task    27 has      16450 integration points.
  Task    28 has      16440 integration points.
  Task    29 has      16416 integration points.
  Task    30 has      16460 integration points.
  Task    31 has      16434 integration points.
  Initializing partition tables, free-atom densities, potentials, etc. across the integration grid (initialize_grid_storage).
  | initialize_grid_storage: Actual outermost partition radius vs. multipole_radius_free
  | (-- VB: in principle, multipole_radius_free should be larger, hence this output)
  | Species        1: Confinement radius =              6.000000000000000 AA, multipole_radius_free =              6.071692442739658 AA.
  | Species        1: outer_partition_radius set to              6.071692442739658 AA .
  | Species        2: Confinement radius =              6.000000000000000 AA, multipole_radius_free =              6.029870734432609 AA.
  | Species        2: outer_partition_radius set to              6.029870734432609 AA .
  | Species        3: Confinement radius =              6.000000000000000 AA, multipole_radius_free =              6.058726835495003 AA.
  | Species        3: outer_partition_radius set to              6.058726835495003 AA .
  | Species        4: Confinement radius =              6.000000000000000 AA, multipole_radius_free =              6.064445521808699 AA.
  | Species        4: outer_partition_radius set to              6.064445521808699 AA .
  | Original list of interatomic distances with          32 x         32 entries is created.
  | Net number of integration points:   527728
  | of which are non-zero points    :   411632
  Obtaining max. number of non-zero basis functions in each batch (get_n_compute_maxes).
  | Maximal number of non-zero basis functions:      812 in task     0
  | Maximal number of non-zero basis functions:      798 in task     1
  | Maximal number of non-zero basis functions:      802 in task     2
  | Maximal number of non-zero basis functions:      799 in task     3
  | Maximal number of non-zero basis functions:      815 in task     4
  | Maximal number of non-zero basis functions:      803 in task     5
  | Maximal number of non-zero basis functions:      808 in task     6
  | Maximal number of non-zero basis functions:      799 in task     7
  | Maximal number of non-zero basis functions:      816 in task     8
  | Maximal number of non-zero basis functions:      806 in task     9
  | Maximal number of non-zero basis functions:      793 in task    10
  | Maximal number of non-zero basis functions:      812 in task    11
  | Maximal number of non-zero basis functions:      803 in task    12
  | Maximal number of non-zero basis functions:      809 in task    13
  | Maximal number of non-zero basis functions:      809 in task    14
  | Maximal number of non-zero basis functions:      801 in task    15
  | Maximal number of non-zero basis functions:      803 in task    16
  | Maximal number of non-zero basis functions:      811 in task    17
  | Maximal number of non-zero basis functions:      801 in task    18
  | Maximal number of non-zero basis functions:      803 in task    19
  | Maximal number of non-zero basis functions:      805 in task    20
  | Maximal number of non-zero basis functions:      802 in task    21
  | Maximal number of non-zero basis functions:      794 in task    22
  | Maximal number of non-zero basis functions:      800 in task    23
  | Maximal number of non-zero basis functions:      801 in task    24
  | Maximal number of non-zero basis functions:      812 in task    25
  | Maximal number of non-zero basis functions:      808 in task    26
  | Maximal number of non-zero basis functions:      808 in task    27
  | Maximal number of non-zero basis functions:      803 in task    28
  | Maximal number of non-zero basis functions:      807 in task    29
  | Maximal number of non-zero basis functions:      804 in task    30
  | Maximal number of non-zero basis functions:      803 in task    31
  Selecting the method for density update.
  Loop over occupied states selected for charge density update.
  Integrating Hamiltonian matrix: batch-based integration.
  Time summed over all CPUs for integration: real work       23.609 s, elapsed       24.538 s
  Integrating overlap matrix.
  Time summed over all CPUs for integration: real work       14.543 s, elapsed       15.097 s
  Deallocating overlap matrix.

  Updating Kohn-Sham eigenvalues, eigenvectors, occupation numbers, and Fermi level.
  Solving generalized eigenproblem
  Solving real symmetric generalised eigenvalue problem by standard ScaLAPACK.
  Transforming overlap matrix with ScaLAPACK and checking for singularities.
  : Overlap matrix is nonsingular, using Cholesky decomposition
  | Lowest eigenvalue:  0.748793E-04
  Factoring overlap matrix with Cholesky decomposition
  Using Cholesky factor for transformation
  Using 1-stage real ELPA solver
  Determining occupation numbers for Kohn-Sham eigenstates.
  | Chemical potential (Fermi level) in eV                 : -.95514530E+01
  | Error in electron count due to remaining E_F inaccuracy: 0.00000000E+00
  | Maximum occupation number of highest empty state:  0.00E+00

  Writing Kohn-Sham eigenvalues.

  State    Occupation    Eigenvalue [Ha]    Eigenvalue [eV]
      1       2.00000         -18.974637         -516.32615
      2       2.00000         -18.974182         -516.31376
      3       2.00000         -18.973880         -516.30555
      4       2.00000         -14.255650         -387.91598
      5       2.00000         -14.253120         -387.84713
      6       2.00000         -14.251684         -387.80805
      7       2.00000         -10.171444         -276.77906
      8       2.00000         -10.171413         -276.77823
      9       2.00000         -10.170513         -276.75374
     10       2.00000         -10.166585         -276.64685
     11       2.00000         -10.148127         -276.14457
     12       2.00000         -10.146909         -276.11143
     13       2.00000         -10.135229         -275.79362
     14       2.00000         -10.134476         -275.77313
     15       2.00000         -10.134093         -275.76270
     16       2.00000          -1.133676          -30.84889
     17       2.00000          -1.131528          -30.79044
     18       2.00000          -1.129981          -30.74833
     19       2.00000          -1.023503          -27.85093
     20       2.00000          -1.008250          -27.43587
     21       2.00000          -0.999068          -27.18601
     22       2.00000          -0.884718          -24.07440
     23       2.00000          -0.873107          -23.75845
     24       2.00000          -0.849311          -23.11093
     25       2.00000          -0.817034          -22.23264
     26       2.00000          -0.785342          -21.37023
     27       2.00000          -0.756667          -20.58997
     28       2.00000          -0.695488          -18.92519
     29       2.00000          -0.691581          -18.81889
     30       2.00000          -0.668442          -18.18925
     31       2.00000          -0.640796          -17.43694
     32       2.00000          -0.629022          -17.11656
     33       2.00000          -0.613737          -16.70064
     34       2.00000          -0.608201          -16.54998
     35       2.00000          -0.580317          -15.79124
     36       2.00000          -0.577467          -15.71368
     37       2.00000          -0.569896          -15.50767
     38       2.00000          -0.560266          -15.24561
     39       2.00000          -0.558098          -15.18662
     40       2.00000          -0.553477          -15.06089
     41       2.00000          -0.549072          -14.94102
     42       2.00000          -0.545178          -14.83505
     43       2.00000          -0.537177          -14.61733
     44       2.00000          -0.528423          -14.37911
     45       2.00000          -0.522295          -14.21237
     46       2.00000          -0.521229          -14.18335
     47       2.00000          -0.515417          -14.02521
     48       2.00000          -0.499024          -13.57913
     49       2.00000          -0.489703          -13.32549
     50       2.00000          -0.485851          -13.22069
     51       2.00000          -0.483240          -13.14964
     52       2.00000          -0.469671          -12.78039
     53       2.00000          -0.413816          -11.26050
     54       2.00000          -0.403657          -10.98407
     55       2.00000          -0.401668          -10.92994
     56       2.00000          -0.388384          -10.56847
     57       2.00000          -0.382050          -10.39611
     58       2.00000          -0.379072          -10.31507
     59       0.00000          -0.169191           -4.60392
     60       0.00000          -0.160379           -4.36415
     61       0.00000          -0.153896           -4.18773
     62       0.00000          -0.082942           -2.25697
     63       0.00000          -0.064272           -1.74892
     64       0.00000          -0.062169           -1.69172
     65       0.00000          -0.055398           -1.50747
     66       0.00000          -0.046391           -1.26236
     67       0.00000          -0.039296           -1.06931
     68       0.00000          -0.030609           -0.83291
     69       0.00000          -0.028005           -0.76205
     70       0.00000          -0.022230           -0.60490
     71       0.00000          -0.020391           -0.55486
     72       0.00000          -0.018866           -0.51337
     73       0.00000          -0.016065           -0.43716
     74       0.00000          -0.010268           -0.27941
     75       0.00000          -0.003862           -0.10508
     76       0.00000           0.000009            0.00026
     77       0.00000           0.003416            0.09297
     78       0.00000           0.005441            0.14806
     79       0.00000           0.006961            0.18942
     80       0.00000           0.013439            0.36568
     81       0.00000           0.018048            0.49110
     82       0.00000           0.020717            0.56374
     83       0.00000           0.029515            0.80314
     84       0.00000           0.036652            0.99735
     85       0.00000           0.043298            1.17819
     86       0.00000           0.049622            1.35027
     87       0.00000           0.056368            1.53384
     88       0.00000           0.063339            1.72353
     89       0.00000           0.073498            1.99998
     90       0.00000           0.078609            2.13906
     91       0.00000           0.082585            2.24724
     92       0.00000           0.087005            2.36752
     93       0.00000           0.091526            2.49056
     94       0.00000           0.102777            2.79670
     95       0.00000           0.104307            2.83833
     96       0.00000           0.111094            3.02303
     97       0.00000           0.116368            3.16654
     98       0.00000           0.118752            3.23142
     99       0.00000           0.120526            3.27967
    100       0.00000           0.127289            3.46371
    101       0.00000           0.128878            3.50694
    102       0.00000           0.131473            3.57755
    103       0.00000           0.140955            3.83557
    104       0.00000           0.142855            3.88728
    105       0.00000           0.145509            3.95950
    106       0.00000           0.152339            4.14534
    107       0.00000           0.158292            4.30734
    108       0.00000           0.162003            4.40832
    109       0.00000           0.166823            4.53947
    110       0.00000           0.170114            4.62905
    111       0.00000           0.174632            4.75198
    112       0.00000           0.181654            4.94306
    113       0.00000           0.186829            5.08386
    114       0.00000           0.187783            5.10984
    115       0.00000           0.195675            5.32458
    116       0.00000           0.202686            5.51538
    117       0.00000           0.207756            5.65334
    118       0.00000           0.208512            5.67389
    119       0.00000           0.216448            5.88986
    120       0.00000           0.224071            6.09728
    121       0.00000           0.226831            6.17239
    122       0.00000           0.230241            6.26519
    123       0.00000           0.237987            6.47595
    124       0.00000           0.241965            6.58420
    125       0.00000           0.246969            6.72037
    126       0.00000           0.247225            6.72734
    127       0.00000           0.257964            7.01956
    128       0.00000           0.267181            7.27036
    129       0.00000           0.270526            7.36139

  Highest occupied state (VBM) at    -10.31506834 eV
  | Occupation number:      2.00000000

  Lowest unoccupied state (CBM) at    -4.60391894 eV
  | Occupation number:      0.00000000

  Overall HOMO-LUMO gap:      5.71114940 eV.
  Calculating total energy contributions from superposition of free atom densities.

  Total energy components:
  | Sum of eigenvalues            :        -437.83168288 Ha      -11914.00626918 eV
  | XC energy correction          :         -98.82317783 Ha       -2689.11548954 eV
  | XC potential correction       :         127.02668320 Ha        3456.57191841 eV
  | Free-atom electrostatic energy:        -333.64548179 Ha       -9078.95549176 eV
  | Hartree energy correction     :           0.00000000 Ha           0.00000000 eV
  | vdW energy correction         :           0.00000000 Ha           0.00000000 eV
  | Entropy correction            :          -0.00000000 Ha          -0.00000000 eV
  | ---------------------------
  | Total energy                  :        -743.27365931 Ha      -20225.50533208 eV
  | Total energy, T -> 0          :        -743.27365931 Ha      -20225.50533208 eV  <-- do not rely on this value for anything but (periodic) metals
  | Electronic free energy        :        -743.27365931 Ha      -20225.50533208 eV

  Derived energy quantities:
  | Kinetic energy                :         735.16476999 Ha       20004.85122693 eV
  | Electrostatic energy          :       -1379.61525146 Ha      -37541.24106946 eV
  | Energy correction for multipole
  | error in Hartree potential    :           0.00000000 Ha           0.00000000 eV
  | Sum of eigenvalues per atom                           :        -372.31269591 eV
  | Total energy (T->0) per atom                          :        -632.04704163 eV  <-- do not rely on this value for anything but (periodic) metals
  | Electronic free energy per atom                       :        -632.04704163 eV
  Initialize hartree_potential_storage
  Max. number of atoms included in rho_multipole:           32

  End scf initialization - timings             :  max(cpu_time)    wall_clock(cpu1)
  | Time for scf. initialization               :        2.012 s           2.013 s
  | Boundary condition initialization          :        0.000 s           0.000 s
  | Integration                                :        1.264 s           1.261 s
  | Solution of K.-S. eqns.                    :        0.076 s           0.074 s
  | Grid partitioning                          :        0.308 s           0.299 s
  | Preloading free-atom quantities on grid    :        0.028 s           0.028 s
  | Free-atom superposition energy             :        0.044 s           0.041 s
  | Total energy evaluation                    :        0.004 s           0.000 s
------------------------------------------------------------

------------------------------------------------------------
          Begin self-consistency iteration #    1

  Date     :  20170309, Time     :  181958.690
------------------------------------------------------------
  Evaluating new KS density.
  Integration grid: deviation in total charge (<rho> - N_e) =   1.421085E-14
  Pulay mixing of updated and previous charge densities.

  Evaluating partitioned Hartree potential by multipole expansion.
  | Analytical far-field extrapolation by fixed multipoles:
  | Hartree multipole sum: apparent total charge =  -0.263414E-04
  Summing up the Hartree potential.
  Time summed over all CPUs for potential: real work        9.644 s, elapsed       10.487 s
  | RMS charge density error from multipole expansion :   0.105971E-01

  Integrating Hamiltonian matrix: batch-based integration.
  Time summed over all CPUs for integration: real work       23.510 s, elapsed       24.611 s

  Updating Kohn-Sham eigenvalues, eigenvectors, occupation numbers, and Fermi level.
  Solving generalized eigenproblem
  Solving real symmetric generalised eigenvalue problem by standard ScaLAPACK.
  Using Cholesky factor for transformation
  Using 2-stage real ELPA solver
  K-Point:    1, Trafo times: 1-stage=     0.021 s, 2-stage=     0.019 s ==> Using 2-stage solver
  Determining occupation numbers for Kohn-Sham eigenstates.
  | Chemical potential (Fermi level) in eV                 : -.38355927E+01
  | Error in electron count due to remaining E_F inaccuracy: 0.00000000E+00
  | Maximum occupation number of highest empty state:  0.00E+00

  Writing Kohn-Sham eigenvalues.

  State    Occupation    Eigenvalue [Ha]    Eigenvalue [eV]
      1       2.00000         -18.622392         -506.74107
      2       2.00000         -18.621404         -506.71419
      3       2.00000         -18.614819         -506.53500
      4       2.00000         -14.006826         -381.14512
      5       2.00000         -14.003791         -381.06254
      6       2.00000         -13.994053         -380.79755
      7       2.00000         -10.064320         -273.86409
      8       2.00000         -10.062430         -273.81265
      9       2.00000         -10.060231         -273.75280
     10       2.00000          -9.978816         -271.53741
     11       2.00000          -9.961381         -271.06298
     12       2.00000          -9.904537         -269.51617
     13       2.00000          -9.855512         -268.18211
     14       2.00000          -9.835520         -267.63812
     15       2.00000          -9.833435         -267.58138
     16       2.00000          -0.973564          -26.49202
     17       2.00000          -0.966366          -26.29617
     18       2.00000          -0.961248          -26.15689
     19       2.00000          -0.883660          -24.04562
     20       2.00000          -0.869745          -23.66697
     21       2.00000          -0.858498          -23.36091
     22       2.00000          -0.744332          -20.25431
     23       2.00000          -0.722472          -19.65946
     24       2.00000          -0.706316          -19.21983
     25       2.00000          -0.681112          -18.53401
     26       2.00000          -0.642006          -17.46987
     27       2.00000          -0.621117          -16.90144
     28       2.00000          -0.578888          -15.75234
     29       2.00000          -0.570383          -15.52091
     30       2.00000          -0.547481          -14.89770
     31       2.00000          -0.517147          -14.07228
     32       2.00000          -0.499428          -13.59014
     33       2.00000          -0.475994          -12.95245
     34       2.00000          -0.472697          -12.86273
     35       2.00000          -0.445707          -12.12830
     36       2.00000          -0.443693          -12.07351
     37       2.00000          -0.437596          -11.90761
     38       2.00000          -0.430239          -11.70739
     39       2.00000          -0.415747          -11.31306
     40       2.00000          -0.404776          -11.01451
     41       2.00000          -0.401961          -10.93792
     42       2.00000          -0.397447          -10.81507
     43       2.00000          -0.389120          -10.58848
     44       2.00000          -0.382491          -10.40811
     45       2.00000          -0.379177          -10.31793
     46       2.00000          -0.368965          -10.04004
     47       2.00000          -0.365605           -9.94861
     48       2.00000          -0.355231           -9.66633
     49       2.00000          -0.353736           -9.62565
     50       2.00000          -0.350044           -9.52519
     51       2.00000          -0.344157           -9.36498
     52       2.00000          -0.332498           -9.04773
     53       2.00000          -0.253782           -6.90577
     54       2.00000          -0.245629           -6.68392
     55       2.00000          -0.233439           -6.35220
     56       2.00000          -0.219659           -5.97723
     57       2.00000          -0.215011           -5.85074
     58       2.00000          -0.209328           -5.69611
     59       0.00000          -0.062024           -1.68776
     60       0.00000          -0.057755           -1.57159
     61       0.00000          -0.046831           -1.27432
     62       0.00000          -0.037317           -1.01545
     63       0.00000          -0.020545           -0.55904
     64       0.00000          -0.019580           -0.53281
     65       0.00000          -0.002148           -0.05845
     66       0.00000           0.000326            0.00887
     67       0.00000           0.009412            0.25611
     68       0.00000           0.016823            0.45778
     69       0.00000           0.021969            0.59781
     70       0.00000           0.028214            0.76774
     71       0.00000           0.032356            0.88046
     72       0.00000           0.036787            1.00103
     73       0.00000           0.041639            1.13306
     74       0.00000           0.047813            1.30105
     75       0.00000           0.050835            1.38330
     76       0.00000           0.057971            1.57748
     77       0.00000           0.061398            1.67072
     78       0.00000           0.069825            1.90003
     79       0.00000           0.075966            2.06714
     80       0.00000           0.081001            2.20414
     81       0.00000           0.082584            2.24723
     82       0.00000           0.089285            2.42958
     83       0.00000           0.098375            2.67692
     84       0.00000           0.104323            2.83877
     85       0.00000           0.105776            2.87832
     86       0.00000           0.114028            3.10286
     87       0.00000           0.118682            3.22951
     88       0.00000           0.126297            3.43671
     89       0.00000           0.131121            3.56799
     90       0.00000           0.143756            3.91181
     91       0.00000           0.148783            4.04859
     92       0.00000           0.150979            4.10835
     93       0.00000           0.157052            4.27359
     94       0.00000           0.164441            4.47466
     95       0.00000           0.167600            4.56063
     96       0.00000           0.169852            4.62189
     97       0.00000           0.178328            4.85255
     98       0.00000           0.179346            4.88026
     99       0.00000           0.184473            5.01977
    100       0.00000           0.185159            5.03843
    101       0.00000           0.190461            5.18272
    102       0.00000           0.192786            5.24597
    103       0.00000           0.197030            5.36145
    104       0.00000           0.204674            5.56946
    105       0.00000           0.206850            5.62867
    106       0.00000           0.209464            5.69982
    107       0.00000           0.215307            5.85880
    108       0.00000           0.219897            5.98371
    109       0.00000           0.223721            6.08776
    110       0.00000           0.227592            6.19308
    111       0.00000           0.229193            6.23665
    112       0.00000           0.239684            6.52212
    113       0.00000           0.246155            6.69822
    114       0.00000           0.254629            6.92882
    115       0.00000           0.259434            7.05957
    116       0.00000           0.265130            7.21456
    117       0.00000           0.267872            7.28916
    118       0.00000           0.270622            7.36400
    119       0.00000           0.276491            7.52369
    120       0.00000           0.280543            7.63395
    121       0.00000           0.287005            7.80981
    122       0.00000           0.291956            7.94454
    123       0.00000           0.297746            8.10208
    124       0.00000           0.302172            8.22252
    125       0.00000           0.311476            8.47568
    126       0.00000           0.318861            8.67664
    127       0.00000           0.328380            8.93568
    128       0.00000           0.338993            9.22448
    129       0.00000           0.340476            9.26483

  Highest occupied state (VBM) at     -5.69610551 eV
  | Occupation number:      2.00000000

  Lowest unoccupied state (CBM) at    -1.68775967 eV
  | Occupation number:      0.00000000

  Overall HOMO-LUMO gap:      4.00834584 eV.

  Total energy components:
  | Sum of eigenvalues            :        -418.17391437 Ha      -11379.09117181 eV
  | XC energy correction          :        -100.74664608 Ha       -2741.45572344 eV
  | XC potential correction       :         129.52033734 Ha        3524.42769984 eV
  | Free-atom electrostatic energy:        -333.64548179 Ha       -9078.95549176 eV
  | Hartree energy correction     :         -19.66360510 Ha        -535.07391914 eV
  | vdW energy correction         :           0.00000000 Ha           0.00000000 eV
  | Entropy correction            :           0.00000000 Ha           0.00000000 eV
  | ---------------------------
  | Total energy                  :        -742.70931001 Ha      -20210.14860631 eV
  | Total energy, T -> 0          :        -742.70931001 Ha      -20210.14860631 eV  <-- do not rely on this value for anything but (periodic) metals
  | Electronic free energy        :        -742.70931001 Ha      -20210.14860631 eV

  Derived energy quantities:
  | Kinetic energy                :         743.99857109 Ha       20245.23118530 eV
  | Electrostatic energy          :       -1385.96123502 Ha      -37713.92406817 eV
  | Energy correction for multipole
  | error in Hartree potential    :          -0.04033607 Ha          -1.09760028 eV
  | Sum of eigenvalues per atom                           :        -355.59659912 eV
  | Total energy (T->0) per atom                          :        -631.56714395 eV  <-- do not rely on this value for anything but (periodic) metals
  | Electronic free energy per atom                       :        -631.56714395 eV

  Self-consistency convergence accuracy:
  | Change of charge density      :  0.9036E+00
  | Change of sum of eigenvalues  :  0.5349E+03 eV
  | Change of total energy        :  0.1536E+02 eV

  End self-consistency iteration #     1       :  max(cpu_time)    wall_clock(cpu1)
  | Time for this iteration                    :        1.672 s           1.671 s
  | Charge density update                      :        0.524 s           0.520 s
[...]
   ----------------------------------------------------------------
   Total forces(  20)            : -0.991219E-03  0.127783E-02 -0.107177E-03
  atom #   21
   Hellmann-Feynman              : -0.340048E-01 -0.768207E-02 -0.903887E-02
   Ionic forces                  :  0.000000E+00  0.000000E+00  0.000000E+00
   Multipole                     :  0.238494E-01 -0.876047E-02 -0.233307E-01
   Pulay + GGA                   :  0.225439E-01  0.159003E-01  0.406185E-01
   Van der Waals                 : -0.129620E-01  0.322401E-03 -0.788147E-02
   ----------------------------------------------------------------
   Total forces(  21)            : -0.573505E-03 -0.219892E-03  0.367458E-03
  atom #   22
   Hellmann-Feynman              :  0.353185E-01  0.397280E-01  0.145915E-01
   Ionic forces                  :  0.000000E+00  0.000000E+00  0.000000E+00
   Multipole                     : -0.751365E-02  0.176337E-01 -0.820314E-02
   Pulay + GGA                   : -0.362976E-01 -0.517612E-01 -0.123568E-01
   Van der Waals                 :  0.874587E-02 -0.524343E-02  0.536250E-02
   ----------------------------------------------------------------
   Total forces(  22)            :  0.253138E-03  0.357076E-03 -0.606020E-03
  atom #   23
   Hellmann-Feynman              : -0.176100E+00  0.569865E+00 -0.103726E+01
   Ionic forces                  :  0.000000E+00  0.000000E+00  0.000000E+00
   Multipole                     : -0.892413E-01 -0.241848E+00  0.274235E+00
   Pulay + GGA                   :  0.260140E+00 -0.333330E+00  0.769177E+00
   Van der Waals                 :  0.514824E-02  0.787059E-02 -0.896959E-02
   ----------------------------------------------------------------
   Total forces(  23)            : -0.522035E-04  0.255772E-02 -0.281543E-02
  atom #   24
   Hellmann-Feynman              : -0.104535E-01 -0.505814E-01  0.530796E-01
   Ionic forces                  :  0.000000E+00  0.000000E+00  0.000000E+00
   Multipole                     :  0.356882E-01  0.158900E-01 -0.133022E-01
   Pulay + GGA                   : -0.350285E-01  0.285615E-01 -0.307873E-01
   Van der Waals                 :  0.949174E-02  0.609983E-02 -0.888071E-02
   ----------------------------------------------------------------
   Total forces(  24)            : -0.302095E-03 -0.300381E-04  0.109333E-03
  atom #   25
   Hellmann-Feynman              : -0.241151E-01 -0.185131E-01  0.492027E-01
   Ionic forces                  :  0.000000E+00  0.000000E+00  0.000000E+00
   Multipole                     : -0.426822E-02  0.366539E-01 -0.365085E-02
   Pulay + GGA                   :  0.274383E-01 -0.229230E-01 -0.489042E-01
   Van der Waals                 :  0.112389E-02  0.471539E-02  0.360944E-02
   ----------------------------------------------------------------
   Total forces(  25)            :  0.178795E-03 -0.669017E-04  0.257014E-03
  atom #   26
   Hellmann-Feynman              : -0.430573E-02 -0.410065E-01 -0.410595E-03
   Ionic forces                  :  0.000000E+00  0.000000E+00  0.000000E+00
   Multipole                     : -0.211971E-01 -0.173462E-01 -0.152815E-01
   Pulay + GGA                   :  0.328467E-01  0.528507E-01  0.156192E-01
   Van der Waals                 : -0.783826E-02  0.573134E-02  0.120059E-03
   ----------------------------------------------------------------
   Total forces(  26)            : -0.494461E-03  0.229410E-03  0.471247E-04
  atom #   27
   Hellmann-Feynman              : -0.182616E+00 -0.159510E+01  0.546965E+00
   Ionic forces                  :  0.000000E+00  0.000000E+00  0.000000E+00
   Multipole                     : -0.108816E+00 -0.104969E+00 -0.125270E+00
   Pulay + GGA                   :  0.287151E+00  0.170139E+01 -0.420894E+00
   Van der Waals                 :  0.491725E-02 -0.269206E-04 -0.120597E-02
   ----------------------------------------------------------------
   Total forces(  27)            :  0.636616E-03  0.128791E-02 -0.405720E-03
  atom #   28
   Hellmann-Feynman              :  0.212488E+00  0.226539E+01  0.394118E+00
   Ionic forces                  :  0.000000E+00  0.000000E+00  0.000000E+00
   Multipole                     : -0.306748E-01 -0.185343E+00 -0.518141E-01
   Pulay + GGA                   : -0.176584E+00 -0.209915E+01 -0.356155E+00
   Van der Waals                 : -0.569179E-02  0.200404E-01  0.139381E-01
   ----------------------------------------------------------------
   Total forces(  28)            : -0.462146E-03  0.938494E-03  0.866007E-04
  atom #   29
   Hellmann-Feynman              : -0.612314E-01 -0.212158E-01 -0.258119E-01
   Ionic forces                  :  0.000000E+00  0.000000E+00  0.000000E+00
   Multipole                     :  0.841125E-02  0.456351E-01  0.910434E-02
   Pulay + GGA                   :  0.612779E-01 -0.212742E-01  0.214929E-01
   Van der Waals                 : -0.873857E-02 -0.321499E-02 -0.317594E-02
   ----------------------------------------------------------------
   Total forces(  29)            : -0.280809E-03 -0.698855E-04  0.160941E-02
  atom #   30
   Hellmann-Feynman              : -0.162768E-01 -0.468555E-01 -0.404614E-03
   Ionic forces                  :  0.000000E+00  0.000000E+00  0.000000E+00
   Multipole                     : -0.264760E-01  0.127733E-01  0.275605E-01
   Pulay + GGA                   :  0.531114E-01  0.329938E-01 -0.231801E-01
   Van der Waals                 : -0.114500E-01  0.261398E-04 -0.326991E-02
   ----------------------------------------------------------------
   Total forces(  30)            : -0.109145E-02 -0.106227E-02  0.705798E-03
  atom #   31
   Hellmann-Feynman              :  0.209233E-01 -0.213756E-01 -0.155070E-01
   Ionic forces                  :  0.000000E+00  0.000000E+00  0.000000E+00
   Multipole                     : -0.308357E-02  0.904926E-02 -0.321365E-01
   Pulay + GGA                   : -0.463995E-02  0.915685E-02  0.497362E-01
   Van der Waals                 : -0.135505E-01  0.259435E-02 -0.459259E-02
   ----------------------------------------------------------------
   Total forces(  31)            : -0.350739E-03 -0.575110E-03 -0.249997E-02
  atom #   32
   Hellmann-Feynman              :  0.184601E-01 -0.403390E-01 -0.374077E-02
   Ionic forces                  :  0.000000E+00  0.000000E+00  0.000000E+00
   Multipole                     :  0.265770E-01  0.903405E-02  0.219915E-01
   Pulay + GGA                   : -0.433588E-01  0.168939E-01 -0.291368E-01
   Van der Waals                 :  0.396864E-03  0.137536E-01  0.108435E-01
   ----------------------------------------------------------------
   Total forces(  32)            :  0.207514E-02 -0.657450E-03 -0.425459E-04

  Timings for VdW correction (Tkatchenko-Scheffler 2009 or later):
  | CPU time:        0.132 s, Wall clock time:        0.130 s.
  Removing unitary transformations (pure translations, rotations) from forces on atoms.
  Atomic forces before filtering:
  | Net force on center of mass :  -0.280875E-03  0.559982E-03 -0.151630E-03 eV/A
  | Net torque on center of mass:  -0.281306E-02  0.184119E-02 -0.512315E-03 eV
  Atomic forces after filtering:
  | Net force on center of mass :  -0.348449E-18  0.871124E-19  0.122502E-18 eV/A
  | Net torque on center of mass:  -0.156733E-17  0.178989E-17  0.276587E-17 eV

  Energy and forces in a compact form:
  | Total energy uncorrected      :         -0.202084904811626E+05 eV
  | Total energy corrected        :         -0.202084904811630E+05 eV  <-- do not rely on this value for anything but (periodic) metals
  | Electronic free energy        :         -0.202084904811634E+05 eV
  Total atomic forces (unitary forces cleaned) [eV/Ang]:
  |   1         -0.764198699400854E-03          0.736133937156138E-03         -0.149847466464858E-02
  |   2         -0.125854112088712E-02         -0.135434961004869E-02         -0.271883983211533E-03
  |   3          0.127310959110408E-02          0.927389637689172E-03          0.447604680499209E-03
  |   4         -0.411951609024139E-03          0.529886642285913E-03         -0.867019285135488E-03
  |   5          0.814549878787544E-03          0.189999547902721E-03          0.995991247323890E-03
  |   6          0.155951165351689E-03          0.117691465321018E-02          0.106333199972911E-04
  |   7         -0.186458608484422E-02         -0.142593796010601E-02          0.154053418452703E-02
  |   8          0.128515057503469E-02         -0.150267344119427E-02         -0.203582307217319E-03
  |   9         -0.366326865201860E-02          0.589780518001068E-03         -0.613172865233815E-03
  |  10          0.134488867634707E-02         -0.196039338658755E-03          0.109089789707922E-02
  |  11          0.266249072242162E-02          0.100906291387918E-02          0.182064330947621E-03
  |  12         -0.568522809881597E-03          0.224105455116227E-03          0.112513985850411E-02
  |  13         -0.198013520244419E-02          0.155210572908651E-02          0.565915831496500E-03
  |  14          0.480495430141115E-03         -0.531968384177117E-03         -0.327727178998369E-04
  |  15         -0.349637296972732E-03         -0.402929466939683E-03         -0.846169584718726E-03
  |  16          0.261999866508295E-03         -0.409670114760200E-03         -0.885525521671842E-03
  |  17          0.422577949478534E-02         -0.225011837281421E-02         -0.733674789337159E-03
  |  18         -0.210091883530528E-02         -0.264433897892191E-04          0.322892744349511E-02
  |  19          0.166200463809442E-02         -0.279750636577228E-02         -0.361545024779469E-04
  |  20         -0.978370798529250E-03          0.127755962849062E-02         -0.148516417392788E-03
  |  21         -0.575601500625105E-03         -0.253105448556888E-03          0.360261052840523E-03
  |  22          0.273501070614494E-03          0.371959150970810E-03         -0.658253034862914E-03
  |  23         -0.130628415893834E-04          0.259408084175907E-02         -0.282185990613769E-02
  |  24         -0.258005698745569E-03          0.163085017548671E-04          0.957180444124336E-04
  |  25          0.226213572421420E-03         -0.149632642153353E-04          0.243571360841773E-03
  |  26         -0.454256905424743E-03          0.261436726814713E-03          0.680367489149264E-04
  |  27          0.644266092602900E-03          0.126739201389908E-02         -0.396011517089777E-03
  |  28         -0.453147861907604E-03          0.913277253418195E-03          0.127392642831938E-03
  |  29         -0.277568227843461E-03         -0.979212037707888E-04          0.161937000343144E-02
  |  30         -0.107593698879737E-02         -0.108126106601228E-02          0.767917554367414E-03
  |  31         -0.354647212636596E-03         -0.623226871139635E-03         -0.245441065550800E-02
  |  32          0.209195757266312E-02         -0.669278853479110E-03         -0.249444896701531E-05

  ------------------------------------ 
  Start decomposition of the XC Energy 
  ------------------------------------ 
  Hartree-Fock part   :          0.000000000 Ha              0.000000000 eV
  ------------------------------------ 
  X Energy            :        -96.982784122 Ha          -2639.035828631 eV
  C Energy GGA        :         -3.870305549 Ha           -105.316372413 eV
  Total XC Energy     :       -100.853089671 Ha          -2744.352201044 eV
  LDA X and C from self-consistent density 
  X Energy LDA        :        -88.001655665 Ha          -2394.646888935 eV
  C Energy LDA        :         -7.532389750 Ha           -204.966753681 eV
  ------------------------------------ 
  End decomposition of the XC Energy 
  ------------------------------------ 
   
  ESP charge fitting starts.
  | Calculation :  00000001  of  00000001
  | Full density
  Computing multipole expansion for total density.
  Generating points for esp charges.
  Partitioning the integration grid into batches with parallel hashing+maxmin method.
  | Number of batches:     3905
  | Maximal batch size:     196
  | Minimal batch size:      94
  | Average batch size:     125.096
  | Standard deviation of batch sizes:      16.744

  Integration load balanced across    32 MPI tasks.
  Work distribution over tasks is as follows:
  Initializing partition tables, free-atom densities, potentials, etc. across the integration grid (initialize_grid_storage).
  | Original list of interatomic distances with          32 x         32 entries is created.
  | Net number of integration points:   488498
  | of which are non-zero points    :   488498
  Summing up potential from multipole expanded  density.
  Summing up the Hartree potential.
  Time summed over all CPUs for potential: real work        6.349 s, elapsed        6.589 s
  Fitting esp charges to potential.
  |
  | ESP charges fitted to the electrostatic potential :
  |
  | Atom         1: C, ESP charge:      0.38727511
  |
  | Atom         2: C, ESP charge:     -0.59235362
  |
  | Atom         3: O, ESP charge:      0.54477114
  |
  | Atom         4: H, ESP charge:     -0.12184669
  |
  | Atom         5: H, ESP charge:     -0.11887709
  |
  | Atom         6: H, ESP charge:     -0.13376989
  |
  | Atom         7: N, ESP charge:      0.48076962
  |
  | Atom         8: C, ESP charge:     -0.22575335
  |
  | Atom         9: C, ESP charge:     -0.38568027
  |
  | Atom        10: O, ESP charge:      0.47322942
  |
  | Atom        11: H, ESP charge:     -0.28474351
  |
  | Atom        12: H, ESP charge:     -0.08450775
  |
  | Atom        13: C, ESP charge:      0.45327834
  |
  | Atom        14: H, ESP charge:     -0.13394345
  |
  | Atom        15: H, ESP charge:     -0.12268366
  |
  | Atom        16: H, ESP charge:     -0.13228408
  |
  | Atom        17: N, ESP charge:      0.49964760
  |
  | Atom        18: C, ESP charge:     -0.58385531
  |
  | Atom        19: C, ESP charge:     -0.23495760
  |
  | Atom        20: O, ESP charge:      0.48979234
  |
  | Atom        21: H, ESP charge:     -0.18694118
  |
  | Atom        22: H, ESP charge:     -0.00201578
  |
  | Atom        23: C, ESP charge:      0.69488113
  |
  | Atom        24: H, ESP charge:     -0.19873044
  |
  | Atom        25: H, ESP charge:     -0.18320130
  |
  | Atom        26: H, ESP charge:     -0.17966393
  |
  | Atom        27: N, ESP charge:      0.31102966
  |
  | Atom        28: C, ESP charge:     -0.05065885
  |
  | Atom        29: H, ESP charge:     -0.28041430
  |
  | Atom        30: H, ESP charge:     -0.05490581
  |
  | Atom        31: H, ESP charge:     -0.04079298
  |
  | Atom        32: H, ESP charge:     -0.00209353

  RRMS:       0.00691288

  Done.

------------------------------------------------------------------------------
  Final output of selected total energy values:

  The following output summarizes some interesting total energy values
  at the end of a run (AFTER all relaxation, molecular dynamics, etc.).

  | Total energy of the DFT / Hartree-Fock s.c.f. calculation      :         -20208.490481163 eV
  | Final zero-broadening corrected energy (caution - metals only) :         -20208.490481163 eV
  | For reference only, the value of 1 Hartree used in FHI-aims is :             27.211384500 eV

  Before relying on these values, please be sure to understand exactly which
  total energy value is referred to by a given number. Different objects may
  all carry the same name 'total energy'. Definitions:

  Total energy of the DFT / Hartree-Fock s.c.f. calculation:
  | Note that this energy does not include ANY quantities calculated after the
  | s.c.f. cycle, in particular not ANY RPA, MP2, etc. many-body perturbation terms.

  Final zero-broadening corrected energy:
  | For metallic systems only, a broadening of the occupation numbers at the Fermi
  | level can be extrapolated back to zero broadening by an electron-gas inspired
  | formula. For all systems that are not real metals, this value can be
  | meaningless and should be avoided.

------------------------------------------------------------------------------
  Methods described in the following list of references were used in this FHI-aims run.
  If you publish the results, please make sure to cite these reference if they apply.
  FHI-aims is an academic code, and for our developers (often, Ph.D. students
  and postdocs), scientific credit in the community is essential.
  Thank you for helping us!

  For any use of FHI-aims, please cite:

    Volker Blum, Ralf Gehrke, Felix Hanke, Paula Havu, Ville Havu,
    Xinguo Ren, Karsten Reuter, and Matthias Scheffler
    'Ab initio molecular simulations with numeric atom-centered orbitals'
    Computer Physics Communications 180, 2175-2196 (2009)
    http://dx.doi.org/10.1016/j.cpc.2009.06.022


  The scalable eigensolver library ELPA was used in your run.
  ELPA is essential especially for large systems on hundreds or thousands of CPUs.
  For ELPA, please cite:

    Andreas Marek, Volker Blum, Rainer Johanni, Ville Havu, Bruno Lang,
    Thomas Auckenthaler, Alexander Heinecke, Hans-Joachim Bungartz, and Hermann Lederer,
    'The ELPA Library - Scalable Parallel Eigenvalue Solutions
    for Electronic Structure Theory and Computational Science'
    The Journal of Physics: Condensed Matter 26, 213201 (2014).
    http://dx.doi.org/10.1088/0953-8984/26/21/213201


  For ELPA's efficient two-stage tridiagonalization used in your run, please cite:

    T. Auckenthaler, V. Blum, H.-J. Bungartz, T. Huckle, R. Johanni, L. Kraemer,
    B. Lang, H. Lederer, and P. R. Willems,
    'Parallel solution of partial symmetric eigenvalue problems'
    'from  electronic structure calculations'
    Parallel Computing 37, 783-794 (2011).
    http://dx.doi.org/10.1016/j.parco.2011.05.002


  For the real-space grid partitioning and parallelization used in this calculation, please cite:

    Ville Havu, Volker Blum, Paula Havu, and Matthias Scheffler,
    'Efficient O(N) integration for all-electron electronic structure calculation'
    'using numerically tabulated basis functions'
    Journal of Computational Physics 228, 8367-8379 (2009).
    http://dx.doi.org/10.1016/j.jcp.2009.08.008

  Of course, there are many other important community references, e.g., those cited in the
  above references. Our list is limited to references that describe implementations in the
  FHI-aims code. The reason is purely practical (length of this list) - please credit others as well.

------------------------------------------------------------
          Leaving FHI-aims.
          Date     :  20170309, Time     :  182028.562

          Computational steps:
          | Number of self-consistency cycles          :           14

          Detailed time accounting                     :  max(cpu_time)    wall_clock(cpu1)
          | Total time                                 :       32.814 s          32.963 s
          | Preparation time                           :        0.240 s           0.243 s
          | Grid partitioning                          :        0.308 s           0.299 s
          | Preloading free-atom quantities on grid    :        0.028 s           0.028 s
          | Free-atom superposition energy             :        0.044 s           0.041 s
          | Total time for integrations                :       12.221 s          12.208 s
          | Total time for solution of K.-S. equations :        0.528 s           0.488 s
          | Total time for density & force components  :       10.457 s          10.429 s
          | Total time for mixing                      :        0.132 s           0.103 s
          | Total time for Hartree multipole update    :        0.068 s           0.057 s
          | Total time for Hartree multipole sum       :        6.672 s           6.641 s
          | Total time for total energy evaluation     :        0.036 s           0.015 s
          | Total time for vdW correction              :        0.132 s           0.130 s

          Have a nice day.
------------------------------------------------------------
