  MPI-parallelism will be employed.
------------------------------------------------------------
          Invoking FHI-aims ...
          Version 150427
          Git rev.: 9dd23e0 BL: Update Version stamp
          Compiled on 2015/11/03 at 22:05:20 on host eos03.

          When using FHI-aims, please cite the following reference:

          Volker Blum, Ralf Gehrke, Felix Hanke, Paula Havu,
          Ville Havu, Xinguo Ren, Karsten Reuter, and Matthias Scheffler,
          'Ab Initio Molecular Simulations with Numeric Atom-Centered Orbitals: FHI-aims',
          Computer Physics Communications 180, 2175-2196 (2009)

          For any questions about FHI-aims, please visit the aimsclub website
          with its forums and wiki. Contributions to both the forums and the
          wiki are warmly encouraged - they are for you, and everyone is welcome there.

------------------------------------------------------------

  Date     :  20170309, Time     :  184010.651
  Time zero on CPU 1             :   0.384024000000000E+00  s.
  Internal wall clock time zero  :           258316810.651  s.

  Using       32 parallel tasks.
  Task        0 on host eos026 reporting.
  Task        1 on host eos026 reporting.
  Task        2 on host eos026 reporting.
  Task        3 on host eos026 reporting.
  Task        4 on host eos026 reporting.
  Task        5 on host eos026 reporting.
  Task        6 on host eos026 reporting.
  Task        7 on host eos026 reporting.
  Task        8 on host eos026 reporting.
  Task        9 on host eos026 reporting.
  Task       10 on host eos026 reporting.
  Task       11 on host eos026 reporting.
  Task       12 on host eos026 reporting.
  Task       13 on host eos026 reporting.
  Task       14 on host eos026 reporting.
  Task       15 on host eos026 reporting.
  Task       16 on host eos026 reporting.
  Task       17 on host eos026 reporting.
  Task       18 on host eos026 reporting.
  Task       19 on host eos026 reporting.
  Task       20 on host eos026 reporting.
  Task       21 on host eos026 reporting.
  Task       22 on host eos026 reporting.
  Task       23 on host eos026 reporting.
  Task       24 on host eos026 reporting.
  Task       25 on host eos026 reporting.
  Task       26 on host eos026 reporting.
  Task       27 on host eos026 reporting.
  Task       28 on host eos026 reporting.
  Task       29 on host eos026 reporting.
  Task       30 on host eos026 reporting.
  Task       31 on host eos026 reporting.

  Performing system and environment tests:
  | Environment variable OMP_NUM_THREADS correctly set to 1.
  | Stacksize not measured: no C compiler
  | Checking for scalapack...
  | Testing pdtran()...
  | All pdtran() tests passed.

  Obtaining array dimensions for all initial allocations:
  
  -----------------------------------------------------------------------
  Parsing control.in (first pass over file, find array dimensions only).
  The contents of control.in will be repeated verbatim below
  unless switched off by setting 'verbatim_writeout .false.' .
  in the first line of control.in .
  -----------------------------------------------------------------------
  
  #########################################################################################
  #
  # Input for System
  #
  #########################################################################################
  #
  #
  #  Physical model
  #
    xc                 pbe
    vdw_correction_hirshfeld
    spin               none
    charge             0.
  #
  #  SCF convergence
  #
    occupation_type    gaussian 0.05
    mixer              pulay
      n_max_pulay        10
      charge_mix_param   0.5
    sc_accuracy_rho    1E-4
    sc_accuracy_eev    1E-2
    sc_accuracy_etot   1E-5
    sc_accuracy_forces 1E-4
    sc_iter_limit      1000
  #
  #  ESP charge
  #
    output esp
    esp equal_grid_n 80 80 80
  #
  #
  ################################################################################
  #
  #  FHI-aims code project
  # Volker Blum, Fritz Haber Institute Berlin, 2009
  #
  #  Suggested "tight" defaults for H atom (to be pasted into control.in file)
  #
  ################################################################################
    species        H
  #     global species definitions
      nucleus             1
      mass                1.00794
  #
      l_hartree           6
  #
      cut_pot             4.0  2.0  1.0
      basis_dep_cutoff    1e-4
  #
      radial_base         24 7.0
      radial_multiplier   2
      angular_grids       specified
        division   0.1930   50
        division   0.3175  110
        division   0.4293  194
        division   0.5066  302
        division   0.5626  434
  #      division   0.5922  590
  #      division   0.6227  974
  #      division   0.6868 1202
  #      outer_grid  770
        outer_grid  434
  ################################################################################
  #
  #  Definition of "minimal" basis
  #
  ################################################################################
  #     valence basis states
      valence      1  s   1.
  #     ion occupancy
      ion_occ      1  s   0.5
  ################################################################################
  #
  #  Suggested additional basis functions. For production calculations,
  #  uncomment them one after another (the most important basis functions are
  #  listed first).
  #
  #  Basis constructed for dimers: 0.5 A, 0.7 A, 1.0 A, 1.5 A, 2.5 A
  #
  ################################################################################
  #  "First tier" - improvements: -1014.90 meV to -62.69 meV
       hydro 2 s 2.1
       hydro 2 p 3.5
  #  "Second tier" - improvements: -12.89 meV to -1.83 meV
       hydro 1 s 0.85
       hydro 2 p 3.7
       hydro 2 s 1.2
       hydro 3 d 7
  #  "Third tier" - improvements: -0.25 meV to -0.12 meV
  #     hydro 4 f 11.2
  #     hydro 3 p 4.8
  #     hydro 4 d 9
  #     hydro 3 s 3.2
  ################################################################################
  #
  # For methods that use the localized form of the "resolution of identity" for
  # the two-electron Coulomb operator (RI_method LVL), particularly Hartree-Fock and
  # hybrid density functional calculations, the highest accuracy can be obtained by
  # uncommenting the line beginning with "for_aux"  below, thus adding an extra g radial
  # function to the construction of the product basis set for the expansion.
  # See Ref. New J. Phys. 17, 093020 (2015) for more information, particularly Figs. 1 and 6.
  #
  ################################################################################
  #
  # for_aux hydro 5 g 6.0
  ################################################################################
  #
  #  FHI-aims code project
  # Volker Blum, Fritz Haber Institute Berlin, 2009
  #
  #  Suggested "tight" defaults for C atom (to be pasted into control.in file)
  #
  ################################################################################
    species        C
  #     global species definitions
      nucleus             6
      mass                12.0107
  #
      l_hartree           6
  #
      cut_pot             4.0  2.0  1.0
      basis_dep_cutoff    1e-4
  #
      radial_base         34 7.0
      radial_multiplier   2
      angular_grids specified
        division   0.2187   50
        division   0.4416  110
        division   0.6335  194
        division   0.7727  302
        division   0.8772  434
  #      division   0.9334  590
  #      division   0.9924  770
  #      division   1.0230  974
  #      division   1.5020 1202
  #     outer_grid  974
        outer_grid  434
  ################################################################################
  #
  #  Definition of "minimal" basis
  #
  ################################################################################
  #     valence basis states
      valence      2  s   2.
      valence      2  p   2.
  #     ion occupancy
      ion_occ      2  s   1.
      ion_occ      2  p   1.
  ################################################################################
  #
  #  Suggested additional basis functions. For production calculations,
  #  uncomment them one after another (the most important basis functions are
  #  listed first).
  #
  #  Constructed for dimers: 1.0 A, 1.25 A, 1.5 A, 2.0 A, 3.0 A
  #
  ################################################################################
  #  "First tier" - improvements: -1214.57 meV to -155.61 meV
       hydro 2 p 1.7
       hydro 3 d 6
       hydro 2 s 4.9
  #  "Second tier" - improvements: -67.75 meV to -5.23 meV
       hydro 4 f 9.8
       hydro 3 p 5.2
       hydro 3 s 4.3
       hydro 5 g 14.4
       hydro 3 d 6.2
  #  "Third tier" - improvements: -2.43 meV to -0.60 meV
  #     hydro 2 p 5.6
  #     hydro 2 s 1.4
  #     hydro 3 d 4.9
  #     hydro 4 f 11.2
  #  "Fourth tier" - improvements: -0.39 meV to -0.18 meV
  #     hydro 2 p 2.1
  #     hydro 5 g 16.4
  #     hydro 4 d 13.2
  #     hydro 3 s 13.6
  #     hydro 4 f 17.6
  #  Further basis functions - improvements: -0.08 meV and below
  #     hydro 3 s 2
  #     hydro 3 p 6
  #     hydro 4 d 20
  ################################################################################
  #
  # For methods that use the localized form of the "resolution of identity" for
  # the two-electron Coulomb operator (RI_method LVL), particularly Hartree-Fock and
  # hybrid density functional calculations, the highest accuracy can be obtained by
  # uncommenting the line beginning with "for_aux"  below, thus adding an extra g radial
  # function to the construction of the product basis set for the expansion.
  # See Ref. New J. Phys. 17, 093020 (2015) for more information, particularly Figs. 1 and 6.
  #
  ################################################################################
  #
  # for_aux hydro 5 g 6.0
  ################################################################################
  #
  #  FHI-aims code project
  # Volker Blum, Fritz Haber Institute Berlin, 2009
  #
  #  Suggested "tight" defaults for N atom (to be pasted into control.in file)
  #
  ################################################################################
    species        N
  #     global species definitions
      nucleus             7
      mass                14.0067
  #
      l_hartree           6
  #
      cut_pot             4.0  2.0  1.0
      basis_dep_cutoff    1e-4
  #
      radial_base         35 7.0
      radial_multiplier   2
      angular_grids       specified
        division   0.1841   50
        division   0.3514  110
        division   0.5126  194
        division   0.6292  302
        division   0.6939  434
  #      division   0.7396  590
  #      division   0.7632  770
  #      division   0.8122  974
  #      division   1.1604 1202
  #      outer_grid  974
        outer_grid  434
  ################################################################################
  #
  #  Definition of "minimal" basis
  #
  ################################################################################
  #     valence basis states
      valence      2  s   2.
      valence      2  p   3.
  #     ion occupancy
      ion_occ      2  s   1.
      ion_occ      2  p   2.
  ################################################################################
  #
  #  Suggested additional basis functions. For production calculations,
  #  uncomment them one after another (the most important basis functions are
  #  listed first).
  #
  #  Constructed for dimers: 1.0 A, 1.1 A, 1.5 A, 2.0 A, 3.0 A
  #
  ################################################################################
  #  "First tier" - improvements: -1193.42 meV to -220.60 meV
       hydro 2 p 1.8
       hydro 3 d 6.8
       hydro 3 s 5.8
  #  "Second tier" - improvements: -80.21 meV to -6.86 meV
       hydro 4 f 10.8
       hydro 3 p 5.8
       hydro 1 s 0.8
       hydro 5 g 16
       hydro 3 d 4.9
  #  "Third tier" - improvements: -4.29 meV to -0.53 meV
  #     hydro 3 s 16
  #     ionic 2 p auto
  #     hydro 3 d 6.6
  #     hydro 4 f 11.6
  #  "Fourth tier" - improvements: -0.75 meV to -0.25 meV
  #     hydro 2 p 4.5
  #     hydro 2 s 2.4
  #     hydro 5 g 14.4
  #     hydro 4 d 14.4
  #     hydro 4 f 16.8
  # Further basis functions - -0.21 meV and below
  #     hydro 3 p 14.8
  #     hydro 3 s 4.4
  #     hydro 3 d 19.6
  #     hydro 5 g 12.8
  ################################################################################
  #
  # For methods that use the localized form of the "resolution of identity" for
  # the two-electron Coulomb operator (RI_method LVL), particularly Hartree-Fock and
  # hybrid density functional calculations, the highest accuracy can be obtained by
  # uncommenting the line beginning with "for_aux"  below, thus adding an extra g radial
  # function to the construction of the product basis set for the expansion.
  # See Ref. New J. Phys. 17, 093020 (2015) for more information, particularly Figs. 1 and 6.
  #
  ################################################################################
  #
  # for_aux hydro 5 g 6.0
  ################################################################################
  #
  #  FHI-aims code project
  # Volker Blum, Fritz Haber Institute Berlin, 2009
  #
  #  Suggested "tight" defaults for O atom (to be pasted into control.in file)
  #
  ################################################################################
    species        O
  #     global species definitions
      nucleus             8
      mass                15.9994
  #
      l_hartree           6
  #
      cut_pot             4.0  2.0  1.0
      basis_dep_cutoff    1e-4
  #
      radial_base         36 7.0
      radial_multiplier   2
       angular_grids specified
        division   0.1817   50
        division   0.3417  110
        division   0.4949  194
        division   0.6251  302
        division   0.8014  434
  #      division   0.8507  590
  #      division   0.8762  770
  #      division   0.9023  974
  #      division   1.2339 1202
  #      outer_grid 974
        outer_grid  434
  ################################################################################
  #
  #  Definition of "minimal" basis
  #
  ################################################################################
  #     valence basis states
      valence      2  s   2.
      valence      2  p   4.
  #     ion occupancy
      ion_occ      2  s   1.
      ion_occ      2  p   3.
  ################################################################################
  #
  #  Suggested additional basis functions. For production calculations,
  #  uncomment them one after another (the most important basis functions are
  #  listed first).
  #
  #  Constructed for dimers: 1.0 A, 1.208 A, 1.5 A, 2.0 A, 3.0 A
  #
  ################################################################################
  #  "First tier" - improvements: -699.05 meV to -159.38 meV
       hydro 2 p 1.8
       hydro 3 d 7.6
       hydro 3 s 6.4
  #  "Second tier" - improvements: -49.91 meV to -5.39 meV
       hydro 4 f 11.6
       hydro 3 p 6.2
       hydro 3 d 5.6
       hydro 5 g 17.6
       hydro 1 s 0.75
  #  "Third tier" - improvements: -2.83 meV to -0.50 meV
  #     ionic 2 p auto
  #     hydro 4 f 10.8
  #     hydro 4 d 4.7
  #     hydro 2 s 6.8
  #  "Fourth tier" - improvements: -0.40 meV to -0.12 meV
  #     hydro 3 p 5
  #     hydro 3 s 3.3
  #     hydro 5 g 15.6
  #     hydro 4 f 17.6
  #     hydro 4 d 14
  # Further basis functions - -0.08 meV and below
  #     hydro 3 s 2.1
  #     hydro 4 d 11.6
  #     hydro 3 p 16
  #     hydro 2 s 17.2
  ################################################################################
  #
  # For methods that use the localized form of the "resolution of identity" for
  # the two-electron Coulomb operator (RI_method LVL), particularly Hartree-Fock and
  # hybrid density functional calculations, the highest accuracy can be obtained by
  # uncommenting the line beginning with "for_aux"  below, thus adding an extra g radial
  # function to the construction of the product basis set for the expansion.
  # See Ref. New J. Phys. 17, 093020 (2015) for more information, particularly Figs. 1 and 6.
  #
  ################################################################################
  #
  # for_aux hydro 5 g 6.0
  
  -----------------------------------------------------------------------
  Completed first pass over input file control.in .
  -----------------------------------------------------------------------
  
  
  -----------------------------------------------------------------------
  Parsing geometry.in (first pass over file, find array dimensions only).
  The contents of geometry.in will be repeated verbatim below
  unless switched off by setting 'verbatim_writeout .false.' .
  in the first line of geometry.in .
  -----------------------------------------------------------------------
  
  #
  # This is the geometry file that corresponds to the current relaxation step.
  # If you do not want this file to be written, set the "write_restart_geometry" flag to .false.
  #
  atom      -0.12396069      0.36133715      0.15661394 C
  atom      -0.18197872      0.47655648      1.66522938 C
  atom       0.82902629      0.66801750      2.33614959 O
  atom       0.93121860      0.34163712     -0.12925521 H
  atom      -0.60059419      1.22850237     -0.32065040 H
  atom      -0.61757524     -0.55327308     -0.19193242 H
  atom      -1.40614695      0.41986237      2.31106380 N
  atom      -2.73509990      0.00907440      1.87955096 C
  atom      -2.83275319     -1.52258075      1.65069239 C
  atom      -1.89509527     -2.17100129      1.20376521 O
  atom      -1.26707802      0.41863863      3.31800045 H
  atom      -3.37795723      0.27209595      2.73188339 H
  atom      -3.28162824      0.76066263      0.65443404 C
  atom      -2.79215431      0.44317404     -0.27204384 H
  atom      -3.13413021      1.84075134      0.77964791 H
  atom      -4.35673396      0.56771184      0.53855128 H
  atom      -4.04393462     -2.11223128      1.91730517 N
  atom      -5.17599946     -1.53995138      2.62547712 C
  atom      -4.87471678     -1.35841149      4.13463317 C
  atom      -4.15740956     -2.14513302      4.74189272 O
  atom      -4.00515102     -3.12750103      1.86186137 H
  atom      -5.41892335     -0.56879234      2.17117361 H
  atom      -6.39344459     -2.45892129      2.46991199 C
  atom      -7.27164454     -2.03825414      2.97541567 H
  atom      -6.18651387     -3.43922791      2.92073244 H
  atom      -6.63576040     -2.59792704      1.40882714 H
  atom      -5.47263535     -0.29547045      4.75564363 N
  atom      -6.31960931      0.73245989      4.17047203 C
  atom      -5.27998775     -0.24888134      5.75148374 H
  atom      -6.60654436      1.43318860      4.96141191 H
  atom      -7.24530531      0.32217104      3.74053743 H
  atom      -5.79754050      1.31073546      3.39300040 H
  
  -----------------------------------------------------------------------
  Completed first pass over input file geometry.in .
  -----------------------------------------------------------------------
  

  Basic array size parameters:
  | Number of species                 :        4
  | Number of atoms                   :       32
  | Max. basis fn. angular momentum   :        4
  | Max. atomic/ionic basis occupied n:        2
  | Max. number of basis fn. types    :        2
  | Max. radial fns per species/type  :        8
  | Max. logarithmic grid size        :     1301
  | Max. radial integration grid size :       73
  | Max. angular integration grid size:      434
  | Max. angular grid division number :        8
  | Radial grid for Hartree potential :     1301
  | Number of spin channels           :        1

------------------------------------------------------------
          Reading file control.in.
------------------------------------------------------------
  XC: Using PBE gradient-corrected functionals.
  Spin treatment: No spin polarisation.
  Charge =   0.000000E+00: Neutral system requested explicitly.
  Occupation type: Gaussian broadening, width =   0.500000E-01 eV.
  Using pulay charge density mixing.
  Pulay mixing - number of memorized iterations:   10
  Charge density mixing - mixing parameter:     0.5000
  Convergence accuracy of self-consistent charge density:  0.1000E-03
  Convergence accuracy of sum of eigenvalues:  0.1000E-01
  Convergence accuracy of total energy:  0.1000E-04
  Convergence accuracy of forces:  0.1000E-03
  Maximum number of s.-c. iterations  :  1000
  Fitting ESP-charges to Potential. 
  | Esp charge output options: 
  | ESP Grid method: 3, cubic grid
  | Number of points in x, ,y, z:  0080 0080 0080
  |
 
  Reading configuration options for species H                   .
  | Found nuclear charge :   1.0000
  | Found atomic mass :    1.00794000000000      amu
  | Found l_max for Hartree potential  :   6
  | Found cutoff potl. onset [A], width [A], scale factor :    4.00000    2.00000    1.00000
  | Threshold for basis-dependent cutoff potential is   0.100000E-03
  | Found data for basic radial integration grid :    24 points, outermost radius =    7.000 A
  | Found multiplier for basic radial grid :   2
  | Found angular grid specification: user-specified.
  | Specified grid contains     6 separate shells.
  | Check grid settings after all constraints further below.
  | Found free-atom valence shell :  1 s   1.000
  | No ionic wave fns used. Skipping ion_occ.
  | Found hydrogenic basis function :  2 s   2.100
  | Found hydrogenic basis function :  2 p   3.500
  | Found hydrogenic basis function :  1 s   0.850
  | Found hydrogenic basis function :  2 p   3.700
  | Found hydrogenic basis function :  2 s   1.200
  | Found hydrogenic basis function :  3 d   7.000
  Species H                   : Missing cutoff potential type.
  Defaulting to exp(1/x)/(1-x)^2 type cutoff potential.
  Species H : No 'logarithmic' tag. Using default grid for free atom:
  | Default logarithmic grid data [bohr] : 0.1000E-03 0.1000E+03 0.1012E+01
  Species H : On-site basis accuracy parameter (for Gram-Schmidt orthonormalisation) not specified.
  Using default value basis_acc =  0.1000000E-03.
  Species H                   : Using default innermost maximum threshold i_radial=  2 for radial functions.
  Species H                   : Default cutoff onset for free atom density etc. : 0.40000000E+01 AA.
  Species H                   : Basic radial grid will be enhanced according to radial_multiplier =   2, to contain    49 grid points.
 
  Reading configuration options for species C                   .
  | Found nuclear charge :   6.0000
  | Found atomic mass :    12.0107000000000      amu
  | Found l_max for Hartree potential  :   6
  | Found cutoff potl. onset [A], width [A], scale factor :    4.00000    2.00000    1.00000
  | Threshold for basis-dependent cutoff potential is   0.100000E-03
  | Found data for basic radial integration grid :    34 points, outermost radius =    7.000 A
  | Found multiplier for basic radial grid :   2
  | Found angular grid specification: user-specified.
  | Specified grid contains     6 separate shells.
  | Check grid settings after all constraints further below.
  | Found free-atom valence shell :  2 s   2.000
  | Found free-atom valence shell :  2 p   2.000
  | No ionic wave fns used. Skipping ion_occ.
  | No ionic wave fns used. Skipping ion_occ.
  | Found hydrogenic basis function :  2 p   1.700
  | Found hydrogenic basis function :  3 d   6.000
  | Found hydrogenic basis function :  2 s   4.900
  | Found hydrogenic basis function :  4 f   9.800
  | Found hydrogenic basis function :  3 p   5.200
  | Found hydrogenic basis function :  3 s   4.300
  | Found hydrogenic basis function :  5 g  14.400
  | Found hydrogenic basis function :  3 d   6.200
  Species C                   : Missing cutoff potential type.
  Defaulting to exp(1/x)/(1-x)^2 type cutoff potential.
  Species C : No 'logarithmic' tag. Using default grid for free atom:
  | Default logarithmic grid data [bohr] : 0.1000E-03 0.1000E+03 0.1012E+01
  Species C : On-site basis accuracy parameter (for Gram-Schmidt orthonormalisation) not specified.
  Using default value basis_acc =  0.1000000E-03.
  Species C                   : Using default innermost maximum threshold i_radial=  2 for radial functions.
  Species C                   : Default cutoff onset for free atom density etc. : 0.40000000E+01 AA.
  Species C                   : Basic radial grid will be enhanced according to radial_multiplier =   2, to contain    69 grid points.
 
  Reading configuration options for species N                   .
  | Found nuclear charge :   7.0000
  | Found atomic mass :    14.0067000000000      amu
  | Found l_max for Hartree potential  :   6
  | Found cutoff potl. onset [A], width [A], scale factor :    4.00000    2.00000    1.00000
  | Threshold for basis-dependent cutoff potential is   0.100000E-03
  | Found data for basic radial integration grid :    35 points, outermost radius =    7.000 A
  | Found multiplier for basic radial grid :   2
  | Found angular grid specification: user-specified.
  | Specified grid contains     6 separate shells.
  | Check grid settings after all constraints further below.
  | Found free-atom valence shell :  2 s   2.000
  | Found free-atom valence shell :  2 p   3.000
  | No ionic wave fns used. Skipping ion_occ.
  | No ionic wave fns used. Skipping ion_occ.
  | Found hydrogenic basis function :  2 p   1.800
  | Found hydrogenic basis function :  3 d   6.800
  | Found hydrogenic basis function :  3 s   5.800
  | Found hydrogenic basis function :  4 f  10.800
  | Found hydrogenic basis function :  3 p   5.800
  | Found hydrogenic basis function :  1 s   0.800
  | Found hydrogenic basis function :  5 g  16.000
  | Found hydrogenic basis function :  3 d   4.900
  Species N                   : Missing cutoff potential type.
  Defaulting to exp(1/x)/(1-x)^2 type cutoff potential.
  Species N : No 'logarithmic' tag. Using default grid for free atom:
  | Default logarithmic grid data [bohr] : 0.1000E-03 0.1000E+03 0.1012E+01
  Species N : On-site basis accuracy parameter (for Gram-Schmidt orthonormalisation) not specified.
  Using default value basis_acc =  0.1000000E-03.
  Species N                   : Using default innermost maximum threshold i_radial=  2 for radial functions.
  Species N                   : Default cutoff onset for free atom density etc. : 0.40000000E+01 AA.
  Species N                   : Basic radial grid will be enhanced according to radial_multiplier =   2, to contain    71 grid points.
 
  Reading configuration options for species O                   .
  | Found nuclear charge :   8.0000
  | Found atomic mass :    15.9994000000000      amu
  | Found l_max for Hartree potential  :   6
  | Found cutoff potl. onset [A], width [A], scale factor :    4.00000    2.00000    1.00000
  | Threshold for basis-dependent cutoff potential is   0.100000E-03
  | Found data for basic radial integration grid :    36 points, outermost radius =    7.000 A
  | Found multiplier for basic radial grid :   2
  | Found angular grid specification: user-specified.
  | Specified grid contains     6 separate shells.
  | Check grid settings after all constraints further below.
  | Found free-atom valence shell :  2 s   2.000
  | Found free-atom valence shell :  2 p   4.000
  | No ionic wave fns used. Skipping ion_occ.
  | No ionic wave fns used. Skipping ion_occ.
  | Found hydrogenic basis function :  2 p   1.800
  | Found hydrogenic basis function :  3 d   7.600
  | Found hydrogenic basis function :  3 s   6.400
  | Found hydrogenic basis function :  4 f  11.600
  | Found hydrogenic basis function :  3 p   6.200
  | Found hydrogenic basis function :  3 d   5.600
  | Found hydrogenic basis function :  5 g  17.600
  | Found hydrogenic basis function :  1 s   0.750
  Species O                   : Missing cutoff potential type.
  Defaulting to exp(1/x)/(1-x)^2 type cutoff potential.
  Species O : No 'logarithmic' tag. Using default grid for free atom:
  | Default logarithmic grid data [bohr] : 0.1000E-03 0.1000E+03 0.1012E+01
  Species O : On-site basis accuracy parameter (for Gram-Schmidt orthonormalisation) not specified.
  Using default value basis_acc =  0.1000000E-03.
  Species O                   : Using default innermost maximum threshold i_radial=  2 for radial functions.
  Species O                   : Default cutoff onset for free atom density etc. : 0.40000000E+01 AA.
  Species O                   : Basic radial grid will be enhanced according to radial_multiplier =   2, to contain    73 grid points.
 
  Finished reading input file 'control.in'. Consistency checks are next.
 
  Target number of points in a grid batch is not set. Defaulting to  100
  Method for grid partitioning is not set. Defaulting to parallel hash+maxmin partitioning.
  Batch size limit is not set. Defaulting to    200
  By default, will store active basis functions for each batch.
  If in need of memory, prune_basis_once .false. can be used to disable this option.
  communication_type for Hartree potential was not specified.
  Defaulting to calc_hartree .
  Pulay mixer: Number of initial linear mixing iterations not set.
  Defaulting to    0 iterations.
  Work space size for distributed Hartree potential not set.
  Defaulting to   0.200000E+03 MB.
  Algorithm-dependent basis array size parameters:
  | n_max_pulay                         :       10
  Geometry relaxation not requested: no relaxation will be performed.
  Handling of forces: Unphysical translation and rotation will be removed from forces.
  No accuracy limit for integral partition fn. given. Defaulting to  0.1000E-14.
  No threshold value for u(r) in integrations given. Defaulting to  0.1000E-05.
  No accuracy for occupation numbers given. Defaulting to  0.1000E-07.
  No threshold value for occupation numbers given. Defaulting to  0.0000E+00.
  No accuracy for fermi level given. Defaulting to  0.1000E-19.
  Maximum # of iterations to find E_F not set. Defaulting to  200.
  Preferred method for the eigenvalue solver ('KS_method') not specified in 'control.in'.
  Calling blacs routine to test compilation state
  Since scalapack support is enabled, defaulting to 'elpa'.
  Preferred method for the MBD eigenvalue solver ('mbd_eigensolver') not specified in 'control.in'.
  Calling blacs routine to test compilation state
  Since scalapack support is enabled, defaulting to 'scaLAPACK'.
  Will not use alltoall communication since running on < 1024 CPUs.
  Threshold for basis singularities not set.
  Default threshold for basis singularities:  0.1000E-04
  partition_type (choice of integration weights) for integrals was not specified.
  | Using a version of the partition function of Stratmann and coworkers ('stratmann_smoother').
  | At each grid point, the set of atoms used to build the partition table is smoothly restricted to
  | only those atoms whose free-atom density would be non-zero at that grid point.
  Partitioning for Hartree potential was not defined. Using partition_type for integrals.
  | Adjusted default value of keyword multip_moments_threshold to:       0.10000000E-11
  | This value may affect high angular momentum components of the Hartree potential in periodic systems.
  No q(lm)/r^(l+1) cutoff set for long-range Hartree potential.
  | Using default value of  0.100000E-09 .
  | Verify using the multipole_threshold keyword.
  Defaulting to new monopole extrapolation.
  Density update method: automatic selection selected.
------------------------------------------------------------


------------------------------------------------------------
          Reading geometry description geometry.in.
------------------------------------------------------------
 * Warning! You did not set the 'relativistic' flag in input file 'control.in'.
 * Since you are not attempting to treat any elements beyond Ca(Z=20), FHI-aims
 * will default to 'relativistic none'.
 * You must ensure that this is really what you want!!
 * For example, DO NOT compute total-energy differences between results from
 * different settings of the 'relativistic' flag.
  Input structure read successfully.
  The structure contains       32 atoms,  and a total of        116.000 electrons.

  Input geometry:
  | No unit cell requested.
  | Atomic structure:
  |       Atom                x [A]            y [A]            z [A]
  |    1: Species C             -0.123961         0.361337         0.156614
  |    2: Species C             -0.181979         0.476556         1.665229
  |    3: Species O              0.829026         0.668018         2.336150
  |    4: Species H              0.931219         0.341637        -0.129255
  |    5: Species H             -0.600594         1.228502        -0.320650
  |    6: Species H             -0.617575        -0.553273        -0.191932
  |    7: Species N             -1.406147         0.419862         2.311064
  |    8: Species C             -2.735100         0.009074         1.879551
  |    9: Species C             -2.832753        -1.522581         1.650692
  |   10: Species O             -1.895095        -2.171001         1.203765
  |   11: Species H             -1.267078         0.418639         3.318000
  |   12: Species H             -3.377957         0.272096         2.731883
  |   13: Species C             -3.281628         0.760663         0.654434
  |   14: Species H             -2.792154         0.443174        -0.272044
  |   15: Species H             -3.134130         1.840751         0.779648
  |   16: Species H             -4.356734         0.567712         0.538551
  |   17: Species N             -4.043935        -2.112231         1.917305
  |   18: Species C             -5.175999        -1.539951         2.625477
  |   19: Species C             -4.874717        -1.358411         4.134633
  |   20: Species O             -4.157410        -2.145133         4.741893
  |   21: Species H             -4.005151        -3.127501         1.861861
  |   22: Species H             -5.418923        -0.568792         2.171174
  |   23: Species C             -6.393445        -2.458921         2.469912
  |   24: Species H             -7.271645        -2.038254         2.975416
  |   25: Species H             -6.186514        -3.439228         2.920732
  |   26: Species H             -6.635760        -2.597927         1.408827
  |   27: Species N             -5.472635        -0.295470         4.755644
  |   28: Species C             -6.319609         0.732460         4.170472
  |   29: Species H             -5.279988        -0.248881         5.751484
  |   30: Species H             -6.606544         1.433189         4.961412
  |   31: Species H             -7.245305         0.322171         3.740537
  |   32: Species H             -5.797541         1.310735         3.393000
  |

  | The smallest distance between any two atoms is         1.01537243 AA.
  |
  | The first atom of this pair is atom number                     27 .
  | The second atom of this pair is atom number                    29 .

  Number of empty states per atom not set in control.in - providing a guess from actual geometry.
  | Total number of empty states used during s.c.f. cycle:       71
  If you use a very high smearing, use empty_states (per atom!) in control.in to increase this value.

  Structure-dependent array size parameters: 
  | Maximum number of distinct radial functions  :       40
  | Maximum number of basis functions            :      840
  | Number of Kohn-Sham states (occupied + empty):      129
------------------------------------------------------------

------------------------------------------------------------
          Preparing all fixed parts of the calculation.
------------------------------------------------------------
  Determining machine precision:
    2.225073858507201E-308
  Setting up grids for atomic and cluster calculations.

  Creating wave function, potential, and density for free atoms.

  Species: H

  List of occupied orbitals and eigenvalues:
    n    l              occ      energy [Ha]    energy [eV]
    1    0           1.0000        -0.238382        -6.4867


  Species: C

  List of occupied orbitals and eigenvalues:
    n    l              occ      energy [Ha]    energy [eV]
    1    0           2.0000       -10.041232      -273.2358
    2    0           2.0000        -0.504327       -13.7234
    2    1           2.0000        -0.193750        -5.2722


  Species: N

  List of occupied orbitals and eigenvalues:
    n    l              occ      energy [Ha]    energy [eV]
    1    0           2.0000       -14.129007      -384.4699
    2    0           2.0000        -0.681802       -18.5528
    2    1           3.0000        -0.260543        -7.0897


  Species: O

  List of occupied orbitals and eigenvalues:
    n    l              occ      energy [Ha]    energy [eV]
    1    0           2.0000       -18.898576      -514.2564
    2    0           2.0000        -0.878795       -23.9132
    2    1           4.0000        -0.332075        -9.0362

  Creating fixed part of basis set: Ionic, confined, hydrogenic.
 
  H                    hydrogenic:
 
  List of hydrogenic basis orbitals: 
    n    l      effective z      eigenvalue [eV]  inner max. [A]     outer max. [A]     outer radius [A]   
    2    0         2.100000       -14.9965           0.193243           1.317208           5.373006
    2    1         3.500000       -41.6672           0.602369           0.602369           4.056063
    1    0         0.850000        -9.8292           0.624871           0.624871           5.373006
    2    1         3.700000       -46.5653           0.573622           0.573622           3.910002
    2    0         1.200000        -4.5995           0.334980           2.228188           5.505995
    3    2         7.000000       -74.0753           0.680699           0.680699           3.769201
 
 
  C                    hydrogenic:
 
  List of hydrogenic basis orbitals: 
    n    l      effective z      eigenvalue [eV]  inner max. [A]     outer max. [A]     outer radius [A]   
    2    1         1.700000        -9.8152           1.245706           1.245706           5.401630
    3    2         6.000000       -54.4226           0.792453           0.792453           4.178599
    2    0         4.900000       -81.6681           0.082559           0.562749           3.353238
    4    3         9.800000       -81.6681           0.863254           0.863254           4.028125
    3    1         5.200000       -40.8774           0.305389           1.215618           4.898362
    3    0         4.300000       -27.9508           0.091041           1.610311           5.401630
    5    4        14.400000      -112.8510           0.917666           0.917666           3.883070
    3    2         6.200000       -58.1113           0.763917           0.763917           4.077671
 
 
  N                    hydrogenic:
 
  List of hydrogenic basis orbitals: 
    n    l      effective z      eigenvalue [eV]  inner max. [A]     outer max. [A]     outer radius [A]   
    2    1         1.800000       -11.0118           1.177451           1.177451           5.427479
    3    2         6.800000       -69.9029           0.704619           0.704619           3.854246
    3    0         5.800000       -50.8549           0.067388           1.191934           4.629968
    4    3        10.800000       -99.1854           0.786571           0.786571           3.761152
    3    1         5.800000       -50.8549           0.274880           1.094176           4.518138
    1    0         0.800000        -8.7059           0.662839           0.662839           5.361532
    5    4        16.000000      -139.3222           0.825990           0.825990           3.625711
    3    2         4.900000       -36.2967           0.968267           0.968267           4.862000
 
 
  O                    hydrogenic:
 
  List of hydrogenic basis orbitals: 
    n    l      effective z      eigenvalue [eV]  inner max. [A]     outer max. [A]     outer radius [A]   
    2    1         1.800000       -11.0118           1.178562           1.178562           5.432602
    3    2         7.600000       -87.3182           0.624125           0.624125           3.541477
    3    0         6.400000       -61.9209           0.061167           1.081902           4.306578
    4    3        11.600000      -114.4238           0.731631           0.731631           3.585037
    3    1         6.200000       -58.1113           0.255680           1.030270           4.306578
    3    2         5.600000       -47.4081           0.847233           0.847233           4.413171
    5    4        17.600000      -168.5799           0.749740           0.749740           3.372465
    1    0         0.750000        -7.6499           0.705284           0.705284           5.366593
 

  Adding cutoff potential to free-atom effective potential.
  Creating atomic-like basis functions for current effective potential.

  Species H                   :

  List of atomic basis orbitals and eigenvalues:
    n    l      energy [Ha]    energy [eV]    outer radius [A]
    1    0        -0.238382        -6.4867       5.373006


  Species C                   :

  List of atomic basis orbitals and eigenvalues:
    n    l      energy [Ha]    energy [eV]    outer radius [A]
    1    0       -10.041232      -273.2358       1.934409
    2    0        -0.504327       -13.7234       5.271162
    2    1        -0.193750        -5.2722       5.401630


  Species N                   :

  List of atomic basis orbitals and eigenvalues:
    n    l      energy [Ha]    energy [eV]    outer radius [A]
    1    0       -14.129007      -384.4699       1.637919
    2    0        -0.681802       -18.5528       5.168461
    2    1        -0.260543        -7.0897       5.361532


  Species O                   :

  List of atomic basis orbitals and eigenvalues:
    n    l      energy [Ha]    energy [eV]    outer radius [A]
    1    0       -18.898576      -514.2564       1.415765
    2    0        -0.878795       -23.9132       5.048385
    2    1        -0.332075        -9.0362       5.301386

  Assembling full basis from fixed parts.
  | Species H :   atomic orbital   1 s accepted.
  | Species H :    hydro orbital   2 s accepted.
  | Species H :    hydro orbital   1 s accepted.
  | Species H :    hydro orbital   2 s accepted.
  | Species H :    hydro orbital   2 p accepted.
  | Species H :    hydro orbital   2 p accepted.
  | Species H :    hydro orbital   3 d accepted.
  | Species C :   atomic orbital   1 s accepted.
  | Species C :    hydro orbital   2 s accepted.
  | Species C :   atomic orbital   2 s accepted.
  | Species C :    hydro orbital   3 s accepted.
  | Species C :    hydro orbital   3 p accepted.
  | Species C :   atomic orbital   2 p accepted.
  | Species C :    hydro orbital   2 p accepted.
  | Species C :    hydro orbital   3 d accepted.
  | Species C :    hydro orbital   3 d accepted.
  | Species C :    hydro orbital   4 f accepted.
  | Species C :    hydro orbital   5 g accepted.
  | Species N :   atomic orbital   1 s accepted.
  | Species N :    hydro orbital   3 s accepted.
  | Species N :   atomic orbital   2 s accepted.
  | Species N :    hydro orbital   1 s accepted.
  | Species N :    hydro orbital   3 p accepted.
  | Species N :   atomic orbital   2 p accepted.
  | Species N :    hydro orbital   2 p accepted.
  | Species N :    hydro orbital   3 d accepted.
  | Species N :    hydro orbital   3 d accepted.
  | Species N :    hydro orbital   4 f accepted.
  | Species N :    hydro orbital   5 g accepted.
  | Species O :   atomic orbital   1 s accepted.
  | Species O :    hydro orbital   3 s accepted.
  | Species O :   atomic orbital   2 s accepted.
  | Species O :    hydro orbital   1 s accepted.
  | Species O :    hydro orbital   3 p accepted.
  | Species O :   atomic orbital   2 p accepted.
  | Species O :    hydro orbital   2 p accepted.
  | Species O :    hydro orbital   3 d accepted.
  | Species O :    hydro orbital   3 d accepted.
  | Species O :    hydro orbital   4 f accepted.
  | Species O :    hydro orbital   5 g accepted.
 
  Basis size parameters after reduction:
  | Total number of radial functions:       40
  | Total number of basis functions :      840
 
  Testing on-site integration grid accuracy.
  |  Species  Function  <phi|h_atom|phi> (log., in eV)  <phi|h_atom|phi> (rad., in eV)
           1        1                 -6.4869821809                 -6.4870742227
           1        2                 13.5044133542                 13.5041049177
           1        3                 32.7854418792                 32.7779770519
           1        4                 33.7995553101                 33.7152624900 ***
           1        5                 28.8558651799                 28.8558652046
           1        6                 59.6361831893                 59.6362535845
           1        7                 60.2733718049                 60.2733715484
           2        8               -273.2358277112               -273.2358261765
           2        9                -10.7624923123                -10.7625144012
           2       10                 17.4634079027                 17.4634252127
           2       11                 53.0363661832                 53.0366180446
           2       12                 15.0981351967                 15.0981317714
           2       13                  3.8522181899                  3.8522770949
           2       14                 12.1181835661                 12.1206868578
           2       15                 29.4320778347                 29.4320780959
           2       16                 54.8753777694                 54.8752901936
           2       17                 59.3533975461                 59.3533974833
           2       18                 93.4537491195                 93.4537492066
           3       19               -384.4698526889               -384.4698499465
           3       20                 12.5691022037                 12.5690910168
           3       21                -15.7489097511                -15.7489165588
           3       22                 27.0978334940                 27.0985589490
           3       23                 18.5949116966                 18.5949125562
           3       24                  1.2212828291                  1.2212855301
           3       25                 13.4428926797                 13.4434051125
           3       26                 35.9380614500                 35.9380613666
           3       27                 39.9231532098                 39.9231654735
           3       28                 72.9957335806                 72.9957336833
           3       29                116.4231321147                116.4231321431
           4       30               -514.2564144315               -514.2564099626
           4       31                 15.1726678541                 15.1726530877
           4       32                -21.5447785304                -21.5447874973
           4       33                 14.4944558459                 14.4944698284
           4       34                 20.8882174564                 20.8882178906
           4       35                 -2.4850315908                 -2.4850322289
           4       36                 13.8600193195                 13.8599826966
           4       37                 45.8243383616                 45.8243383675
           4       38                 52.1840606465                 52.1840622440
           4       39                 85.4074185510                 85.4074185819
           4       40                142.0983717302                142.0983717339
 * Note: Onsite integrals marked "***" above are less accurate than
 * onsite_accuracy_threshold =    0.03000 eV. Usually, this is harmless.
 * When in doubt, tighten the "radial" and/or "radial_multiplier" flags to check.

  Preparing densities etc. for the partition functions (integrals / Hartree potential).

  Preparations completed.
  max(cpu_time)          :      0.240 s.
  Wall clock time (cpu1) :      0.238 s.
------------------------------------------------------------

------------------------------------------------------------
          Begin self-consistency loop: Initialization.

          Date     :  20170309, Time     :  184011.692
------------------------------------------------------------

  Initializing index lists of integration centers etc. from given atomic structure:
  | Number of centers in hartree potential         :        32
  | Number of centers in hartree multipole         :        32
  | Number of centers in electron density summation:        32
  | Number of centers in basis integrals           :        32
  | Number of centers in integrals                 :        32
  | Number of centers in hamiltonian               :        32
  Using modified Scalapack Eigenvalue solver (ELPA)
  * Using 32 tasks for Scalapack Eigenvalue solver.
  Detailed listing of tasks and assigned k-points:
  (for non-periodic systems, the "k-point" denotes an internal label only)
   Task     0 k-point     1 on eos026
   Task     1 k-point     1 on eos026
   Task     2 k-point     1 on eos026
   Task     3 k-point     1 on eos026
   Task     4 k-point     1 on eos026
   Task     5 k-point     1 on eos026
   Task     6 k-point     1 on eos026
   Task     7 k-point     1 on eos026
   Task     8 k-point     1 on eos026
   Task     9 k-point     1 on eos026
   Task    10 k-point     1 on eos026
   Task    11 k-point     1 on eos026
   Task    12 k-point     1 on eos026
   Task    13 k-point     1 on eos026
   Task    14 k-point     1 on eos026
   Task    15 k-point     1 on eos026
   Task    16 k-point     1 on eos026
   Task    17 k-point     1 on eos026
   Task    18 k-point     1 on eos026
   Task    19 k-point     1 on eos026
   Task    20 k-point     1 on eos026
   Task    21 k-point     1 on eos026
   Task    22 k-point     1 on eos026
   Task    23 k-point     1 on eos026
   Task    24 k-point     1 on eos026
   Task    25 k-point     1 on eos026
   Task    26 k-point     1 on eos026
   Task    27 k-point     1 on eos026
   Task    28 k-point     1 on eos026
   Task    29 k-point     1 on eos026
   Task    30 k-point     1 on eos026
   Task    31 k-point     1 on eos026
  Tasks:    32 split into      8 X      4 BLACS grid
  Calculating blocksize based on n_basis =          840 max_nprow =            8 max_npcol =            4
  Scalapack blocksize set to:           16
  Required Scalapack workspace - INTEGER:            1 REAL:             1
  Partitioning the integration grid into batches with parallel hashing+maxmin method.
  | Number of batches:     5046
  | Maximal batch size:     193
  | Minimal batch size:      10
  | Average batch size:     104.583
  | Standard deviation of batch sizes:      33.012

  Integration load balanced across    32 MPI tasks.
  Work distribution over tasks is as follows:
  Task     0 has      16543 integration points.
  Task     1 has      16409 integration points.
  Task     2 has      16450 integration points.
  Task     3 has      16585 integration points.
  Task     4 has      16472 integration points.
  Task     5 has      16447 integration points.
  Task     6 has      16579 integration points.
  Task     7 has      16413 integration points.
  Task     8 has      16446 integration points.
  Task     9 has      16406 integration points.
  Task    10 has      16588 integration points.
  Task    11 has      16411 integration points.
  Task    12 has      16446 integration points.
  Task    13 has      16458 integration points.
  Task    14 has      16565 integration points.
  Task    15 has      16540 integration points.
  Task    16 has      16415 integration points.
  Task    17 has      16584 integration points.
  Task    18 has      16580 integration points.
  Task    19 has      16548 integration points.
  Task    20 has      16560 integration points.
  Task    21 has      16465 integration points.
  Task    22 has      16453 integration points.
  Task    23 has      16562 integration points.
  Task    24 has      16460 integration points.
  Task    25 has      16553 integration points.
  Task    26 has      16464 integration points.
  Task    27 has      16423 integration points.
  Task    28 has      16574 integration points.
  Task    29 has      16431 integration points.
  Task    30 has      16455 integration points.
  Task    31 has      16443 integration points.
  Initializing partition tables, free-atom densities, potentials, etc. across the integration grid (initialize_grid_storage).
  | initialize_grid_storage: Actual outermost partition radius vs. multipole_radius_free
  | (-- VB: in principle, multipole_radius_free should be larger, hence this output)
  | Species        1: Confinement radius =              6.000000000000000 AA, multipole_radius_free =              6.071692442739658 AA.
  | Species        1: outer_partition_radius set to              6.071692442739658 AA .
  | Species        2: Confinement radius =              6.000000000000000 AA, multipole_radius_free =              6.029870734432609 AA.
  | Species        2: outer_partition_radius set to              6.029870734432609 AA .
  | Species        3: Confinement radius =              6.000000000000000 AA, multipole_radius_free =              6.058726835495003 AA.
  | Species        3: outer_partition_radius set to              6.058726835495003 AA .
  | Species        4: Confinement radius =              6.000000000000000 AA, multipole_radius_free =              6.064445521808699 AA.
  | Species        4: outer_partition_radius set to              6.064445521808699 AA .
  | Original list of interatomic distances with          32 x         32 entries is created.
  | Net number of integration points:   527728
  | of which are non-zero points    :   413476
  Obtaining max. number of non-zero basis functions in each batch (get_n_compute_maxes).
  | Maximal number of non-zero basis functions:      765 in task     0
  | Maximal number of non-zero basis functions:      768 in task     1
  | Maximal number of non-zero basis functions:      769 in task     2
  | Maximal number of non-zero basis functions:      785 in task     3
  | Maximal number of non-zero basis functions:      775 in task     4
  | Maximal number of non-zero basis functions:      765 in task     5
  | Maximal number of non-zero basis functions:      751 in task     6
  | Maximal number of non-zero basis functions:      769 in task     7
  | Maximal number of non-zero basis functions:      782 in task     8
  | Maximal number of non-zero basis functions:      764 in task     9
  | Maximal number of non-zero basis functions:      765 in task    10
  | Maximal number of non-zero basis functions:      764 in task    11
  | Maximal number of non-zero basis functions:      752 in task    12
  | Maximal number of non-zero basis functions:      767 in task    13
  | Maximal number of non-zero basis functions:      781 in task    14
  | Maximal number of non-zero basis functions:      759 in task    15
  | Maximal number of non-zero basis functions:      765 in task    16
  | Maximal number of non-zero basis functions:      773 in task    17
  | Maximal number of non-zero basis functions:      759 in task    18
  | Maximal number of non-zero basis functions:      770 in task    19
  | Maximal number of non-zero basis functions:      776 in task    20
  | Maximal number of non-zero basis functions:      782 in task    21
  | Maximal number of non-zero basis functions:      761 in task    22
  | Maximal number of non-zero basis functions:      763 in task    23
  | Maximal number of non-zero basis functions:      752 in task    24
  | Maximal number of non-zero basis functions:      746 in task    25
  | Maximal number of non-zero basis functions:      775 in task    26
  | Maximal number of non-zero basis functions:      784 in task    27
  | Maximal number of non-zero basis functions:      782 in task    28
  | Maximal number of non-zero basis functions:      769 in task    29
  | Maximal number of non-zero basis functions:      751 in task    30
  | Maximal number of non-zero basis functions:      763 in task    31
  Selecting the method for density update.
  Loop over occupied states selected for charge density update.
  Integrating Hamiltonian matrix: batch-based integration.
  Time summed over all CPUs for integration: real work       21.913 s, elapsed       22.952 s
  Integrating overlap matrix.
  Time summed over all CPUs for integration: real work       13.418 s, elapsed       13.868 s
  Deallocating overlap matrix.

  Updating Kohn-Sham eigenvalues, eigenvectors, occupation numbers, and Fermi level.
  Solving generalized eigenproblem
  Solving real symmetric generalised eigenvalue problem by standard ScaLAPACK.
  Transforming overlap matrix with ScaLAPACK and checking for singularities.
  : Overlap matrix is nonsingular, using Cholesky decomposition
  | Lowest eigenvalue:  0.104613E-03
  Factoring overlap matrix with Cholesky decomposition
  Using Cholesky factor for transformation
  Using 1-stage real ELPA solver
  Determining occupation numbers for Kohn-Sham eigenstates.
  | Chemical potential (Fermi level) in eV                 : -.96097422E+01
  | Error in electron count due to remaining E_F inaccuracy: 0.00000000E+00
  | Maximum occupation number of highest empty state:  0.00E+00

  Writing Kohn-Sham eigenvalues.

  State    Occupation    Eigenvalue [Ha]    Eigenvalue [eV]
      1       2.00000         -18.975327         -516.34491
      2       2.00000         -18.974695         -516.32773
      3       2.00000         -18.974240         -516.31534
      4       2.00000         -14.254320         -387.87979
      5       2.00000         -14.253785         -387.86522
      6       2.00000         -14.251391         -387.80007
      7       2.00000         -10.171607         -276.78350
      8       2.00000         -10.170902         -276.76431
      9       2.00000         -10.170714         -276.75920
     10       2.00000         -10.166387         -276.64148
     11       2.00000         -10.148911         -276.16592
     12       2.00000         -10.147631         -276.13108
     13       2.00000         -10.134899         -275.78462
     14       2.00000         -10.134045         -275.76138
     15       2.00000         -10.133338         -275.74215
     16       2.00000          -1.135827          -30.90742
     17       2.00000          -1.132558          -30.81846
     18       2.00000          -1.130469          -30.76164
     19       2.00000          -1.016130          -27.65030
     20       2.00000          -1.009803          -27.47813
     21       2.00000          -1.006978          -27.40125
     22       2.00000          -0.883294          -24.03565
     23       2.00000          -0.872459          -23.74082
     24       2.00000          -0.850335          -23.13880
     25       2.00000          -0.815719          -22.19685
     26       2.00000          -0.771728          -20.99979
     27       2.00000          -0.766858          -20.86728
     28       2.00000          -0.711547          -19.36217
     29       2.00000          -0.687614          -18.71094
     30       2.00000          -0.662160          -18.01829
     31       2.00000          -0.627088          -17.06394
     32       2.00000          -0.617636          -16.80674
     33       2.00000          -0.613412          -16.69178
     34       2.00000          -0.607718          -16.53685
     35       2.00000          -0.594739          -16.18366
     36       2.00000          -0.592972          -16.13559
     37       2.00000          -0.566017          -15.40212
     38       2.00000          -0.560799          -15.26012
     39       2.00000          -0.556066          -15.13131
     40       2.00000          -0.552137          -15.02441
     41       2.00000          -0.547020          -14.88518
     42       2.00000          -0.542122          -14.75189
     43       2.00000          -0.534743          -14.55109
     44       2.00000          -0.527840          -14.36325
     45       2.00000          -0.523009          -14.23179
     46       2.00000          -0.517505          -14.08202
     47       2.00000          -0.512282          -13.93992
     48       2.00000          -0.497732          -13.54397
     49       2.00000          -0.496200          -13.50228
     50       2.00000          -0.484919          -13.19532
     51       2.00000          -0.484253          -13.17718
     52       2.00000          -0.478196          -13.01238
     53       2.00000          -0.409310          -11.13788
     54       2.00000          -0.408646          -11.11982
     55       2.00000          -0.401814          -10.93391
     56       2.00000          -0.383508          -10.43578
     57       2.00000          -0.382219          -10.40071
     58       2.00000          -0.377474          -10.27158
     59       0.00000          -0.171638           -4.67051
     60       0.00000          -0.163790           -4.45695
     61       0.00000          -0.150876           -4.10555
     62       0.00000          -0.088921           -2.41967
     63       0.00000          -0.063400           -1.72520
     64       0.00000          -0.061964           -1.68612
     65       0.00000          -0.053032           -1.44309
     66       0.00000          -0.050041           -1.36170
     67       0.00000          -0.041839           -1.13848
     68       0.00000          -0.033896           -0.92236
     69       0.00000          -0.030887           -0.84047
     70       0.00000          -0.024660           -0.67104
     71       0.00000          -0.021385           -0.58192
     72       0.00000          -0.018900           -0.51429
     73       0.00000          -0.012880           -0.35049
     74       0.00000          -0.009569           -0.26038
     75       0.00000          -0.004857           -0.13218
     76       0.00000          -0.001219           -0.03317
     77       0.00000           0.003541            0.09637
     78       0.00000           0.005258            0.14309
     79       0.00000           0.017497            0.47611
     80       0.00000           0.018573            0.50539
     81       0.00000           0.024351            0.66264
     82       0.00000           0.032395            0.88152
     83       0.00000           0.037358            1.01656
     84       0.00000           0.042444            1.15496
     85       0.00000           0.046055            1.25322
     86       0.00000           0.051366            1.39775
     87       0.00000           0.054670            1.48764
     88       0.00000           0.065563            1.78406
     89       0.00000           0.068965            1.87663
     90       0.00000           0.073317            1.99507
     91       0.00000           0.077869            2.11893
     92       0.00000           0.085489            2.32628
     93       0.00000           0.088369            2.40464
     94       0.00000           0.091144            2.48016
     95       0.00000           0.100223            2.72720
     96       0.00000           0.108819            2.96112
     97       0.00000           0.112877            3.07153
     98       0.00000           0.114025            3.10279
     99       0.00000           0.119762            3.25888
    100       0.00000           0.120790            3.28686
    101       0.00000           0.127214            3.46167
    102       0.00000           0.134360            3.65613
    103       0.00000           0.134897            3.67073
    104       0.00000           0.140927            3.83481
    105       0.00000           0.145591            3.96173
    106       0.00000           0.153818            4.18559
    107       0.00000           0.161725            4.40077
    108       0.00000           0.164542            4.47741
    109       0.00000           0.167580            4.56009
    110       0.00000           0.170319            4.63462
    111       0.00000           0.173945            4.73327
    112       0.00000           0.183077            4.98178
    113       0.00000           0.185885            5.05820
    114       0.00000           0.188584            5.13164
    115       0.00000           0.194193            5.28425
    116       0.00000           0.197070            5.36255
    117       0.00000           0.206050            5.60690
    118       0.00000           0.211258            5.74862
    119       0.00000           0.216099            5.88036
    120       0.00000           0.219077            5.96140
    121       0.00000           0.221327            6.02262
    122       0.00000           0.226880            6.17371
    123       0.00000           0.231972            6.31229
    124       0.00000           0.242189            6.59029
    125       0.00000           0.246772            6.71501
    126       0.00000           0.253898            6.90891
    127       0.00000           0.254801            6.93349
    128       0.00000           0.260370            7.08503
    129       0.00000           0.267705            7.28464

  Highest occupied state (VBM) at    -10.27157928 eV
  | Occupation number:      2.00000000

  Lowest unoccupied state (CBM) at    -4.67051360 eV
  | Occupation number:      0.00000000

  Overall HOMO-LUMO gap:      5.60106568 eV.
  Calculating total energy contributions from superposition of free atom densities.

  Total energy components:
  | Sum of eigenvalues            :        -437.82608419 Ha      -11913.85392091 eV
  | XC energy correction          :         -98.81596638 Ha       -2688.91925583 eV
  | XC potential correction       :         127.01595964 Ha        3456.28011549 eV
  | Free-atom electrostatic energy:        -333.64699650 Ha       -9078.99670913 eV
  | Hartree energy correction     :           0.00000000 Ha           0.00000000 eV
  | vdW energy correction         :           0.00000000 Ha           0.00000000 eV
  | Entropy correction            :          -0.00000000 Ha          -0.00000000 eV
  | ---------------------------
  | Total energy                  :        -743.27308742 Ha      -20225.48977037 eV
  | Total energy, T -> 0          :        -743.27308742 Ha      -20225.48977037 eV  <-- do not rely on this value for anything but (periodic) metals
  | Electronic free energy        :        -743.27308742 Ha      -20225.48977037 eV

  Derived energy quantities:
  | Kinetic energy                :         735.15722727 Ha       20004.64597921 eV
  | Electrostatic energy          :       -1379.61434832 Ha      -37541.21649375 eV
  | Energy correction for multipole
  | error in Hartree potential    :           0.00000000 Ha           0.00000000 eV
  | Sum of eigenvalues per atom                           :        -372.30793503 eV
  | Total energy (T->0) per atom                          :        -632.04655532 eV  <-- do not rely on this value for anything but (periodic) metals
  | Electronic free energy per atom                       :        -632.04655532 eV
  Initialize hartree_potential_storage
  Max. number of atoms included in rho_multipole:           32

  End scf initialization - timings             :  max(cpu_time)    wall_clock(cpu1)
  | Time for scf. initialization               :        1.932 s           1.931 s
  | Boundary condition initialization          :        0.004 s           0.001 s
  | Integration                                :        1.176 s           1.173 s
  | Solution of K.-S. eqns.                    :        0.076 s           0.074 s
  | Grid partitioning                          :        0.340 s           0.338 s
  | Preloading free-atom quantities on grid    :        0.028 s           0.028 s
  | Free-atom superposition energy             :        0.040 s           0.038 s
  | Total energy evaluation                    :        0.000 s           0.001 s
------------------------------------------------------------

------------------------------------------------------------
          Begin self-consistency iteration #    1

  Date     :  20170309, Time     :  184013.623
------------------------------------------------------------
  Evaluating new KS density.
  Integration grid: deviation in total charge (<rho> - N_e) =   2.842171E-14
  Pulay mixing of updated and previous charge densities.

  Evaluating partitioned Hartree potential by multipole expansion.
  | Analytical far-field extrapolation by fixed multipoles:
  | Hartree multipole sum: apparent total charge =  -0.588826E-05
  Summing up the Hartree potential.
  Time summed over all CPUs for potential: real work        9.528 s, elapsed        9.799 s
  | RMS charge density error from multipole expansion :   0.105646E-01

  Integrating Hamiltonian matrix: batch-based integration.
  Time summed over all CPUs for integration: real work       21.711 s, elapsed       22.589 s

  Updating Kohn-Sham eigenvalues, eigenvectors, occupation numbers, and Fermi level.
  Solving generalized eigenproblem
  Solving real symmetric generalised eigenvalue problem by standard ScaLAPACK.
  Using Cholesky factor for transformation
  Using 2-stage real ELPA solver
  K-Point:    1, Trafo times: 1-stage=     0.021 s, 2-stage=     0.019 s ==> Using 2-stage solver
  Determining occupation numbers for Kohn-Sham eigenstates.
  | Chemical potential (Fermi level) in eV                 : -.21894458E+01
  | Error in electron count due to remaining E_F inaccuracy: 0.00000000E+00
  | Maximum occupation number of highest empty state:  0.00E+00

  Writing Kohn-Sham eigenvalues.

  State    Occupation    Eigenvalue [Ha]    Eigenvalue [eV]
      1       2.00000         -18.619260         -506.65584
      2       2.00000         -18.618093         -506.62408
      3       2.00000         -18.594072         -505.97044
      4       2.00000         -14.001163         -380.99102
      5       2.00000         -13.990208         -380.69293
      6       2.00000         -13.972275         -380.20494
      7       2.00000         -10.061864         -273.79726
      8       2.00000         -10.057875         -273.68871
      9       2.00000         -10.033323         -273.02061
     10       2.00000          -9.977651         -271.50571
     11       2.00000          -9.971552         -271.33973
     12       2.00000          -9.914095         -269.77626
     13       2.00000          -9.854271         -268.14835
     14       2.00000          -9.849846         -268.02794
     15       2.00000          -9.828103         -267.43629
     16       2.00000          -0.972299          -26.45761
     17       2.00000          -0.962177          -26.18216
     18       2.00000          -0.939679          -25.56997
     19       2.00000          -0.871299          -23.70926
     20       2.00000          -0.870467          -23.68661
     21       2.00000          -0.849716          -23.12195
     22       2.00000          -0.742089          -20.19328
     23       2.00000          -0.726584          -19.77136
     24       2.00000          -0.689872          -18.77236
     25       2.00000          -0.682175          -18.56292
     26       2.00000          -0.641568          -17.45797
     27       2.00000          -0.632065          -17.19937
     28       2.00000          -0.582594          -15.85319
     29       2.00000          -0.566099          -15.40433
     30       2.00000          -0.529000          -14.39483
     31       2.00000          -0.503634          -13.70458
     32       2.00000          -0.489793          -13.32795
     33       2.00000          -0.479110          -13.03726
     34       2.00000          -0.476165          -12.95710
     35       2.00000          -0.458200          -12.46826
     36       2.00000          -0.448381          -12.20106
     37       2.00000          -0.432868          -11.77893
     38       2.00000          -0.415477          -11.30570
     39       2.00000          -0.413350          -11.24784
     40       2.00000          -0.409785          -11.15081
     41       2.00000          -0.401974          -10.93826
     42       2.00000          -0.393213          -10.69988
     43       2.00000          -0.389291          -10.59314
     44       2.00000          -0.386185          -10.50863
     45       2.00000          -0.381595          -10.38373
     46       2.00000          -0.368515          -10.02781
     47       2.00000          -0.361013           -9.82368
     48       2.00000          -0.356943           -9.71291
     49       2.00000          -0.350393           -9.53469
     50       2.00000          -0.341163           -9.28351
     51       2.00000          -0.338080           -9.19963
     52       2.00000          -0.325448           -8.85589
     53       2.00000          -0.242955           -6.61115
     54       2.00000          -0.238039           -6.47738
     55       2.00000          -0.226347           -6.15921
     56       2.00000          -0.219064           -5.96104
     57       2.00000          -0.207945           -5.65846
     58       2.00000          -0.191891           -5.22161
     59       0.00000          -0.059601           -1.62183
     60       0.00000          -0.055442           -1.50866
     61       0.00000          -0.048500           -1.31975
     62       0.00000          -0.026162           -0.71189
     63       0.00000          -0.024386           -0.66357
     64       0.00000          -0.019460           -0.52953
     65       0.00000          -0.012950           -0.35240
     66       0.00000          -0.004037           -0.10986
     67       0.00000           0.002390            0.06502
     68       0.00000           0.008729            0.23753
     69       0.00000           0.020592            0.56033
     70       0.00000           0.024831            0.67568
     71       0.00000           0.033629            0.91509
     72       0.00000           0.033744            0.91822
     73       0.00000           0.037974            1.03333
     74       0.00000           0.052872            1.43873
     75       0.00000           0.057069            1.55293
     76       0.00000           0.059477            1.61844
     77       0.00000           0.064918            1.76650
     78       0.00000           0.069010            1.87785
     79       0.00000           0.073903            2.01099
     80       0.00000           0.083860            2.28195
     81       0.00000           0.085945            2.33867
     82       0.00000           0.094083            2.56013
     83       0.00000           0.101627            2.76542
     84       0.00000           0.107776            2.93274
     85       0.00000           0.109053            2.96749
     86       0.00000           0.117733            3.20368
     87       0.00000           0.121723            3.31225
     88       0.00000           0.125141            3.40527
     89       0.00000           0.131485            3.57788
     90       0.00000           0.134187            3.65143
     91       0.00000           0.142196            3.86936
     92       0.00000           0.146960            3.99900
     93       0.00000           0.151502            4.12257
     94       0.00000           0.156835            4.26770
     95       0.00000           0.161143            4.38493
     96       0.00000           0.169143            4.60262
     97       0.00000           0.173710            4.72688
     98       0.00000           0.177561            4.83168
     99       0.00000           0.182460            4.96499
    100       0.00000           0.184364            5.01679
    101       0.00000           0.189276            5.15045
    102       0.00000           0.195085            5.30852
    103       0.00000           0.197970            5.38703
    104       0.00000           0.205630            5.59548
    105       0.00000           0.209028            5.68795
    106       0.00000           0.213366            5.80598
    107       0.00000           0.217904            5.92946
    108       0.00000           0.221826            6.03618
    109       0.00000           0.225249            6.12933
    110       0.00000           0.226259            6.15681
    111       0.00000           0.233511            6.35416
    112       0.00000           0.241905            6.58257
    113       0.00000           0.244470            6.65237
    114       0.00000           0.249946            6.80138
    115       0.00000           0.259561            7.06302
    116       0.00000           0.261380            7.11252
    117       0.00000           0.263370            7.16667
    118       0.00000           0.274266            7.46315
    119       0.00000           0.278405            7.57579
    120       0.00000           0.281680            7.66490
    121       0.00000           0.286217            7.78836
    122       0.00000           0.289207            7.86971
    123       0.00000           0.298366            8.11895
    124       0.00000           0.302617            8.23462
    125       0.00000           0.312821            8.51228
    126       0.00000           0.315164            8.57606
    127       0.00000           0.325161            8.84807
    128       0.00000           0.334081            9.09080
    129       0.00000           0.338413            9.20868

  Highest occupied state (VBM) at     -5.22161072 eV
  | Occupation number:      2.00000000

  Lowest unoccupied state (CBM) at    -1.62182812 eV
  | Occupation number:      0.00000000

  Overall HOMO-LUMO gap:      3.59978259 eV.

  Total energy components:
  | Sum of eigenvalues            :        -417.69630173 Ha      -11366.09467054 eV
  | XC energy correction          :        -100.74905378 Ha       -2741.52124044 eV
  | XC potential correction       :         129.52276399 Ha        3524.49373247 eV
  | Free-atom electrostatic energy:        -333.64699650 Ha       -9078.99670913 eV
  | Hartree energy correction     :         -20.13542784 Ha        -547.91286908 eV
  | vdW energy correction         :           0.00000000 Ha           0.00000000 eV
  | Entropy correction            :          -0.00000000 Ha          -0.00000000 eV
  | ---------------------------
  | Total energy                  :        -742.70501586 Ha      -20210.03175672 eV
  | Total energy, T -> 0          :        -742.70501586 Ha      -20210.03175672 eV  <-- do not rely on this value for anything but (periodic) metals
  | Electronic free energy        :        -742.70501586 Ha      -20210.03175672 eV

  Derived energy quantities:
  | Kinetic energy                :         744.04302600 Ha       20246.44086490 eV
  | Electrostatic energy          :       -1385.99898808 Ha      -37714.95138117 eV
  | Energy correction for multipole
  | error in Hartree potential    :          -0.04078755 Ha          -1.10988558 eV
  | Sum of eigenvalues per atom                           :        -355.19045845 eV
  | Total energy (T->0) per atom                          :        -631.56349240 eV  <-- do not rely on this value for anything but (periodic) metals
  | Electronic free energy per atom                       :        -631.56349240 eV

  Self-consistency convergence accuracy:
  | Change of charge density      :  0.9044E+00
  | Change of sum of eigenvalues  :  0.5478E+03 eV
  | Change of total energy        :  0.1546E+02 eV

  End self-consistency iteration #     1       :  max(cpu_time)    wall_clock(cpu1)
  | Time for this iteration                    :        1.556 s           1.551 s
  | Charge density update                      :        0.484 s           0.484 s
[...]
   ----------------------------------------------------------------
   Total forces(  20)            : -0.130251E-02  0.244248E-02 -0.214427E-02
  atom #   21
   Hellmann-Feynman              :  0.472588E-01  0.587783E-01  0.133832E-01
   Ionic forces                  :  0.000000E+00  0.000000E+00  0.000000E+00
   Multipole                     : -0.394829E-01  0.459431E-02  0.261829E-02
   Pulay + GGA                   : -0.184001E-01 -0.679345E-01 -0.106342E-01
   Van der Waals                 :  0.989872E-02  0.613034E-02 -0.616421E-02
   ----------------------------------------------------------------
   Total forces(  21)            : -0.725563E-03  0.156837E-02 -0.796951E-03
  atom #   22
   Hellmann-Feynman              :  0.520726E-02 -0.647052E-01  0.701473E-03
   Ionic forces                  :  0.000000E+00  0.000000E+00  0.000000E+00
   Multipole                     :  0.297703E-02  0.310739E-02  0.913916E-02
   Pulay + GGA                   : -0.551006E-02  0.677464E-01 -0.742479E-02
   Van der Waals                 : -0.254172E-02 -0.614140E-02 -0.264718E-02
   ----------------------------------------------------------------
   Total forces(  22)            :  0.132511E-03  0.717646E-05 -0.231339E-03
  atom #   23
   Hellmann-Feynman              : -0.749238E+00 -0.803880E+00 -0.258669E+00
   Ionic forces                  :  0.000000E+00  0.000000E+00  0.000000E+00
   Multipole                     :  0.161702E+00  0.203134E+00  0.255358E-01
   Pulay + GGA                   :  0.584760E+00  0.584414E+00  0.238035E+00
   Van der Waals                 :  0.198798E-02  0.156027E-01 -0.467670E-02
   ----------------------------------------------------------------
   Total forces(  23)            : -0.788245E-03 -0.729644E-03  0.226026E-03
  atom #   24
   Hellmann-Feynman              :  0.469497E-01 -0.298975E-02 -0.940611E-02
   Ionic forces                  :  0.000000E+00  0.000000E+00  0.000000E+00
   Multipole                     :  0.584559E-03 -0.299519E-01 -0.171132E-01
   Pulay + GGA                   : -0.485287E-01  0.367855E-01  0.265459E-01
   Van der Waals                 :  0.956294E-03 -0.411885E-02 -0.268755E-03
   ----------------------------------------------------------------
   Total forces(  24)            : -0.381083E-04 -0.274981E-03 -0.242082E-03
  atom #   25
   Hellmann-Feynman              :  0.148836E-01  0.470595E-01  0.105006E-01
   Ionic forces                  :  0.000000E+00  0.000000E+00  0.000000E+00
   Multipole                     : -0.167853E-01  0.109988E-01 -0.214702E-01
   Pulay + GGA                   :  0.113216E-01 -0.563084E-01  0.878916E-02
   Van der Waals                 : -0.930925E-02 -0.173134E-02  0.208882E-02
   ----------------------------------------------------------------
   Total forces(  25)            :  0.110586E-03  0.186084E-04 -0.916487E-04
  atom #   26
   Hellmann-Feynman              :  0.391938E-01  0.241296E-01  0.276469E-01
   Ionic forces                  :  0.000000E+00  0.000000E+00  0.000000E+00
   Multipole                     : -0.149773E-01 -0.168059E-01  0.263146E-01
   Pulay + GGA                   : -0.197654E-01 -0.777712E-02 -0.560244E-01
   Van der Waals                 : -0.415270E-02  0.471683E-03  0.201071E-02
   ----------------------------------------------------------------
   Total forces(  26)            :  0.298475E-03  0.183202E-04 -0.522520E-04
  atom #   27
   Hellmann-Feynman              :  0.957585E+00 -0.103834E+01  0.583848E+00
   Ionic forces                  :  0.000000E+00  0.000000E+00  0.000000E+00
   Multipole                     :  0.105158E+00 -0.157409E+00  0.330582E-01
   Pulay + GGA                   : -0.107090E+01  0.120082E+01 -0.609816E+00
   Van der Waals                 :  0.820191E-02 -0.472351E-02 -0.493572E-02
   ----------------------------------------------------------------
   Total forces(  27)            :  0.471843E-04  0.349417E-03  0.215367E-02
  atom #   28
   Hellmann-Feynman              : -0.129176E+01  0.157821E+01 -0.627631E+00
   Ionic forces                  :  0.000000E+00  0.000000E+00  0.000000E+00
   Multipole                     :  0.766823E-01 -0.832376E-01  0.613487E-01
   Pulay + GGA                   :  0.120383E+01 -0.148582E+01  0.571205E+00
   Van der Waals                 :  0.910874E-02 -0.721067E-02 -0.680818E-02
   ----------------------------------------------------------------
   Total forces(  28)            : -0.213802E-02  0.194604E-02 -0.188578E-02
  atom #   29
   Hellmann-Feynman              :  0.205988E-01 -0.405251E-01 -0.398621E-01
   Ionic forces                  :  0.000000E+00  0.000000E+00  0.000000E+00
   Multipole                     : -0.240865E-01  0.270243E-01 -0.145209E-01
   Pulay + GGA                   :  0.357086E-02  0.157596E-01  0.653423E-01
   Van der Waals                 :  0.291343E-03 -0.215547E-02 -0.110921E-01
   ----------------------------------------------------------------
   Total forces(  29)            :  0.374465E-03  0.103384E-03 -0.132802E-03
  atom #   30
   Hellmann-Feynman              :  0.265679E-01 -0.433429E-01 -0.371624E-02
   Ionic forces                  :  0.000000E+00  0.000000E+00  0.000000E+00
   Multipole                     : -0.133052E-01  0.615307E-02 -0.411570E-01
   Pulay + GGA                   : -0.160916E-01  0.407541E-01  0.502717E-01
   Van der Waals                 :  0.197323E-02 -0.368537E-02 -0.515590E-02
   ----------------------------------------------------------------
   Total forces(  30)            : -0.855594E-03 -0.121100E-03  0.242497E-03
  atom #   31
   Hellmann-Feynman              :  0.397296E-01 -0.985757E-02  0.326906E-01
   Ionic forces                  :  0.000000E+00  0.000000E+00  0.000000E+00
   Multipole                     :  0.236093E-01  0.182255E-01 -0.266373E-02
   Pulay + GGA                   : -0.561039E-01 -0.169530E-01 -0.334435E-01
   Van der Waals                 : -0.702788E-02  0.794263E-02  0.385504E-02
   ----------------------------------------------------------------
   Total forces(  31)            :  0.207077E-03 -0.642440E-03  0.438416E-03
  atom #   32
   Hellmann-Feynman              : -0.393820E-02 -0.194536E-01  0.537272E-01
   Ionic forces                  :  0.000000E+00  0.000000E+00  0.000000E+00
   Multipole                     : -0.228300E-01 -0.178914E-01  0.610953E-02
   Pulay + GGA                   :  0.231632E-01  0.324083E-01 -0.542715E-01
   Van der Waals                 :  0.318599E-02  0.467341E-02 -0.502370E-02
   ----------------------------------------------------------------
   Total forces(  32)            : -0.419025E-03 -0.263328E-03  0.541493E-03

  Timings for VdW correction (Tkatchenko-Scheffler 2009 or later):
  | CPU time:        0.124 s, Wall clock time:        0.122 s.
  Removing unitary transformations (pure translations, rotations) from forces on atoms.
  Atomic forces before filtering:
  | Net force on center of mass :  -0.126412E-02  0.448607E-03 -0.511793E-03 eV/A
  | Net torque on center of mass:   0.126705E-02  0.303817E-03 -0.325904E-03 eV
  Atomic forces after filtering:
  | Net force on center of mass :  -0.696899E-18 -0.348449E-18  0.174225E-17 eV/A
  | Net torque on center of mass:   0.106025E-17 -0.129074E-17 -0.230489E-17 eV

  Energy and forces in a compact form:
  | Total energy uncorrected      :         -0.202083054264173E+05 eV
  | Total energy corrected        :         -0.202083054264173E+05 eV  <-- do not rely on this value for anything but (periodic) metals
  | Electronic free energy        :         -0.202083054264173E+05 eV
  Total atomic forces (unitary forces cleaned) [eV/Ang]:
  |   1         -0.250647046909272E-03         -0.860951110330603E-03         -0.206932851524833E-02
  |   2          0.927534677108287E-03         -0.461113579531412E-03          0.125130965250742E-02
  |   3         -0.600941037690236E-03         -0.880902946258951E-03         -0.167245430497739E-02
  |   4         -0.388883218364796E-03         -0.559137036664819E-03          0.452065093905358E-04
  |   5          0.342242217467605E-03          0.118982562062999E-03          0.767049794367573E-03
  |   6         -0.240489283980499E-03          0.288597057543666E-03          0.356661373115635E-03
  |   7          0.156978358234440E-02          0.123667682611927E-02          0.327013623314633E-02
  |   8         -0.742850205373891E-05          0.103941032877194E-02          0.636115862280765E-03
  |   9          0.834179775695214E-03         -0.435111775001435E-02         -0.492407165283318E-03
  |  10         -0.136420995967662E-02          0.212458826965364E-02          0.749918311412615E-03
  |  11         -0.207621317017786E-03          0.842876477326769E-03         -0.834847617323474E-03
  |  12          0.205706921810642E-03          0.408324482397827E-04          0.251018188767973E-03
  |  13         -0.772285987101841E-04          0.138338308600012E-02         -0.117350623053919E-02
  |  14          0.202780835984896E-03         -0.119741369837234E-03          0.410616126638660E-03
  |  15         -0.184660310203715E-03         -0.244610768257466E-04         -0.172379693365212E-03
  |  16          0.687489739167024E-04         -0.499135484932627E-03          0.141906342148599E-03
  |  17          0.223058825965414E-02         -0.207186236345754E-02         -0.204544556678065E-02
  |  18         -0.169362091462058E-02          0.162758555907065E-02         -0.760063007470210E-03
  |  19          0.322794928315417E-02         -0.315782974067977E-02          0.310725889717489E-02
  |  20         -0.126186401212077E-02          0.245494835582134E-02         -0.211002735872177E-02
  |  21         -0.671818588004811E-03          0.154812803855412E-02         -0.750858139597622E-03
  |  22          0.172825239342010E-03         -0.163986411974534E-04         -0.219032119195484E-03
  |  23         -0.739525649936245E-03         -0.754525232284922E-03          0.257483296943034E-03
  |  24          0.709492333903995E-05         -0.298294482534192E-03         -0.218036728996183E-03
  |  25          0.162812875734898E-03         -0.223989496968527E-07         -0.482093480532454E-04
  |  26          0.350927228006442E-03         -0.200735748010570E-04         -0.198767918157743E-04
  |  27          0.787252743526307E-04          0.355597864968316E-03          0.216264787163689E-02
  |  28         -0.210983239723929E-02          0.194127566496834E-02         -0.189117701893150E-02
  |  29          0.402912660030638E-03          0.122075915293261E-03         -0.123811448210056E-03
  |  30         -0.833116703329783E-03         -0.118086556307040E-03          0.228133808284349E-03
  |  31          0.238511074565869E-03         -0.656737834569811E-03          0.435119805950165E-03
  |  32         -0.391436262649261E-03         -0.274567275217007E-03          0.530878980743973E-03

  ------------------------------------ 
  Start decomposition of the XC Energy 
  ------------------------------------ 
  Hartree-Fock part   :          0.000000000 Ha              0.000000000 eV
  ------------------------------------ 
  X Energy            :        -96.977009361 Ha          -2638.878689386 eV
  C Energy GGA        :         -3.867127146 Ha           -105.229883683 eV
  Total XC Energy     :       -100.844136507 Ha          -2744.108573069 eV
  LDA X and C from self-consistent density 
  X Energy LDA        :        -87.991110648 Ha          -2394.359944438 eV
  C Energy LDA        :         -7.531246238 Ha           -204.935637156 eV
  ------------------------------------ 
  End decomposition of the XC Energy 
  ------------------------------------ 
   
  ESP charge fitting starts.
  | Calculation :  00000001  of  00000001
  | Full density
  Computing multipole expansion for total density.
  Generating points for esp charges.
  Partitioning the integration grid into batches with parallel hashing+maxmin method.
  | Number of batches:     3918
  | Maximal batch size:     192
  | Minimal batch size:      51
  | Average batch size:     124.139
  | Standard deviation of batch sizes:      15.043

  Integration load balanced across    32 MPI tasks.
  Work distribution over tasks is as follows:
  Initializing partition tables, free-atom densities, potentials, etc. across the integration grid (initialize_grid_storage).
  | Original list of interatomic distances with          32 x         32 entries is created.
  | Net number of integration points:   486377
  | of which are non-zero points    :   486377
  Summing up potential from multipole expanded  density.
  Summing up the Hartree potential.
  Time summed over all CPUs for potential: real work        6.449 s, elapsed        6.941 s
  Fitting esp charges to potential.
  |
  | ESP charges fitted to the electrostatic potential :
  |
  | Atom         1: C, ESP charge:      0.63556556
  |
  | Atom         2: C, ESP charge:     -0.85778606
  |
  | Atom         3: O, ESP charge:      0.58480628
  |
  | Atom         4: H, ESP charge:     -0.16464663
  |
  | Atom         5: H, ESP charge:     -0.16453431
  |
  | Atom         6: H, ESP charge:     -0.19663469
  |
  | Atom         7: N, ESP charge:      0.82482319
  |
  | Atom         8: C, ESP charge:     -0.39109710
  |
  | Atom         9: C, ESP charge:     -0.69787559
  |
  | Atom        10: O, ESP charge:      0.52732569
  |
  | Atom        11: H, ESP charge:     -0.34583719
  |
  | Atom        12: H, ESP charge:     -0.05581059
  |
  | Atom        13: C, ESP charge:      0.56691714
  |
  | Atom        14: H, ESP charge:     -0.13785202
  |
  | Atom        15: H, ESP charge:     -0.16878111
  |
  | Atom        16: H, ESP charge:     -0.15315702
  |
  | Atom        17: N, ESP charge:      1.01393897
  |
  | Atom        18: C, ESP charge:     -1.12924200
  |
  | Atom        19: C, ESP charge:      0.00480056
  |
  | Atom        20: O, ESP charge:      0.43772158
  |
  | Atom        21: H, ESP charge:     -0.38137264
  |
  | Atom        22: H, ESP charge:      0.24197618
  |
  | Atom        23: C, ESP charge:      0.43441778
  |
  | Atom        24: H, ESP charge:     -0.09307695
  |
  | Atom        25: H, ESP charge:     -0.11493260
  |
  | Atom        26: H, ESP charge:     -0.09284993
  |
  | Atom        27: N, ESP charge:      0.24612040
  |
  | Atom        28: C, ESP charge:      0.30494174
  |
  | Atom        29: H, ESP charge:     -0.30942891
  |
  | Atom        30: H, ESP charge:     -0.15048292
  |
  | Atom        31: H, ESP charge:     -0.10870046
  |
  | Atom        32: H, ESP charge:     -0.10925636

  RRMS:       0.00105301

  Done.

------------------------------------------------------------------------------
  Final output of selected total energy values:

  The following output summarizes some interesting total energy values
  at the end of a run (AFTER all relaxation, molecular dynamics, etc.).

  | Total energy of the DFT / Hartree-Fock s.c.f. calculation      :         -20208.305426417 eV
  | Final zero-broadening corrected energy (caution - metals only) :         -20208.305426417 eV
  | For reference only, the value of 1 Hartree used in FHI-aims is :             27.211384500 eV

  Before relying on these values, please be sure to understand exactly which
  total energy value is referred to by a given number. Different objects may
  all carry the same name 'total energy'. Definitions:

  Total energy of the DFT / Hartree-Fock s.c.f. calculation:
  | Note that this energy does not include ANY quantities calculated after the
  | s.c.f. cycle, in particular not ANY RPA, MP2, etc. many-body perturbation terms.

  Final zero-broadening corrected energy:
  | For metallic systems only, a broadening of the occupation numbers at the Fermi
  | level can be extrapolated back to zero broadening by an electron-gas inspired
  | formula. For all systems that are not real metals, this value can be
  | meaningless and should be avoided.

------------------------------------------------------------------------------
  Methods described in the following list of references were used in this FHI-aims run.
  If you publish the results, please make sure to cite these reference if they apply.
  FHI-aims is an academic code, and for our developers (often, Ph.D. students
  and postdocs), scientific credit in the community is essential.
  Thank you for helping us!

  For any use of FHI-aims, please cite:

    Volker Blum, Ralf Gehrke, Felix Hanke, Paula Havu, Ville Havu,
    Xinguo Ren, Karsten Reuter, and Matthias Scheffler
    'Ab initio molecular simulations with numeric atom-centered orbitals'
    Computer Physics Communications 180, 2175-2196 (2009)
    http://dx.doi.org/10.1016/j.cpc.2009.06.022


  The scalable eigensolver library ELPA was used in your run.
  ELPA is essential especially for large systems on hundreds or thousands of CPUs.
  For ELPA, please cite:

    Andreas Marek, Volker Blum, Rainer Johanni, Ville Havu, Bruno Lang,
    Thomas Auckenthaler, Alexander Heinecke, Hans-Joachim Bungartz, and Hermann Lederer,
    'The ELPA Library - Scalable Parallel Eigenvalue Solutions
    for Electronic Structure Theory and Computational Science'
    The Journal of Physics: Condensed Matter 26, 213201 (2014).
    http://dx.doi.org/10.1088/0953-8984/26/21/213201


  For ELPA's efficient two-stage tridiagonalization used in your run, please cite:

    T. Auckenthaler, V. Blum, H.-J. Bungartz, T. Huckle, R. Johanni, L. Kraemer,
    B. Lang, H. Lederer, and P. R. Willems,
    'Parallel solution of partial symmetric eigenvalue problems'
    'from  electronic structure calculations'
    Parallel Computing 37, 783-794 (2011).
    http://dx.doi.org/10.1016/j.parco.2011.05.002


  For the real-space grid partitioning and parallelization used in this calculation, please cite:

    Ville Havu, Volker Blum, Paula Havu, and Matthias Scheffler,
    'Efficient O(N) integration for all-electron electronic structure calculation'
    'using numerically tabulated basis functions'
    Journal of Computational Physics 228, 8367-8379 (2009).
    http://dx.doi.org/10.1016/j.jcp.2009.08.008

  Of course, there are many other important community references, e.g., those cited in the
  above references. Our list is limited to references that describe implementations in the
  FHI-aims code. The reason is purely practical (length of this list) - please credit others as well.

------------------------------------------------------------
          Leaving FHI-aims.
          Date     :  20170309, Time     :  184041.621

          Computational steps:
          | Number of self-consistency cycles          :           14

          Detailed time accounting                     :  max(cpu_time)    wall_clock(cpu1)
          | Total time                                 :       30.842 s          30.970 s
          | Preparation time                           :        0.240 s           0.238 s
          | Grid partitioning                          :        0.340 s           0.338 s
          | Preloading free-atom quantities on grid    :        0.028 s           0.028 s
          | Free-atom superposition energy             :        0.040 s           0.038 s
          | Total time for integrations                :       11.297 s          11.273 s
          | Total time for solution of K.-S. equations :        0.528 s           0.491 s
          | Total time for density & force components  :        9.721 s           9.708 s
          | Total time for mixing                      :        0.124 s           0.105 s
          | Total time for Hartree multipole update    :        0.068 s           0.058 s
          | Total time for Hartree multipole sum       :        6.344 s           6.328 s
          | Total time for total energy evaluation     :        0.024 s           0.015 s
          | Total time for vdW correction              :        0.124 s           0.122 s

          Have a nice day.
------------------------------------------------------------
