  MPI-parallelism will be employed.
------------------------------------------------------------
          Invoking FHI-aims ...
          Version 150427
          Git rev.: 9dd23e0 BL: Update Version stamp
          Compiled on 2015/11/03 at 22:05:20 on host eos03.

          When using FHI-aims, please cite the following reference:

          Volker Blum, Ralf Gehrke, Felix Hanke, Paula Havu,
          Ville Havu, Xinguo Ren, Karsten Reuter, and Matthias Scheffler,
          'Ab Initio Molecular Simulations with Numeric Atom-Centered Orbitals: FHI-aims',
          Computer Physics Communications 180, 2175-2196 (2009)

          For any questions about FHI-aims, please visit the aimsclub website
          with its forums and wiki. Contributions to both the forums and the
          wiki are warmly encouraged - they are for you, and everyone is welcome there.

------------------------------------------------------------

  Date     :  20170309, Time     :  180355.312
  Time zero on CPU 1             :   0.316019000000000E+00  s.
  Internal wall clock time zero  :           258314635.312  s.

  Using       32 parallel tasks.
  Task        0 on host eos399 reporting.
  Task        1 on host eos399 reporting.
  Task        2 on host eos399 reporting.
  Task        3 on host eos399 reporting.
  Task        4 on host eos399 reporting.
  Task        5 on host eos399 reporting.
  Task        6 on host eos399 reporting.
  Task        7 on host eos399 reporting.
  Task        8 on host eos399 reporting.
  Task        9 on host eos399 reporting.
  Task       10 on host eos399 reporting.
  Task       11 on host eos399 reporting.
  Task       12 on host eos399 reporting.
  Task       13 on host eos399 reporting.
  Task       14 on host eos399 reporting.
  Task       15 on host eos399 reporting.
  Task       16 on host eos399 reporting.
  Task       17 on host eos399 reporting.
  Task       18 on host eos399 reporting.
  Task       19 on host eos399 reporting.
  Task       20 on host eos399 reporting.
  Task       21 on host eos399 reporting.
  Task       22 on host eos399 reporting.
  Task       23 on host eos399 reporting.
  Task       24 on host eos399 reporting.
  Task       25 on host eos399 reporting.
  Task       26 on host eos399 reporting.
  Task       27 on host eos399 reporting.
  Task       28 on host eos399 reporting.
  Task       29 on host eos399 reporting.
  Task       30 on host eos399 reporting.
  Task       31 on host eos399 reporting.

  Performing system and environment tests:
  | Environment variable OMP_NUM_THREADS correctly set to 1.
  | Stacksize not measured: no C compiler
  | Checking for scalapack...
  | Testing pdtran()...
  | All pdtran() tests passed.

  Obtaining array dimensions for all initial allocations:
  
  -----------------------------------------------------------------------
  Parsing control.in (first pass over file, find array dimensions only).
  The contents of control.in will be repeated verbatim below
  unless switched off by setting 'verbatim_writeout .false.' .
  in the first line of control.in .
  -----------------------------------------------------------------------
  
  #########################################################################################
  #
  # Input for System
  #
  #########################################################################################
  #
  #
  #  Physical model
  #
    xc                 pbe
    vdw_correction_hirshfeld
    spin               none
    charge             0.
  #
  #  SCF convergence
  #
    occupation_type    gaussian 0.05
    mixer              pulay
      n_max_pulay        10
      charge_mix_param   0.5
    sc_accuracy_rho    1E-4
    sc_accuracy_eev    1E-2
    sc_accuracy_etot   1E-5
    sc_accuracy_forces 1E-4
    sc_iter_limit      1000
  #
  #  ESP charge
  #
    output esp
    esp equal_grid_n 80 80 80
  #
  #
  ################################################################################
  #
  #  FHI-aims code project
  # Volker Blum, Fritz Haber Institute Berlin, 2009
  #
  #  Suggested "tight" defaults for H atom (to be pasted into control.in file)
  #
  ################################################################################
    species        H
  #     global species definitions
      nucleus             1
      mass                1.00794
  #
      l_hartree           6
  #
      cut_pot             4.0  2.0  1.0
      basis_dep_cutoff    1e-4
  #
      radial_base         24 7.0
      radial_multiplier   2
      angular_grids       specified
        division   0.1930   50
        division   0.3175  110
        division   0.4293  194
        division   0.5066  302
        division   0.5626  434
  #      division   0.5922  590
  #      division   0.6227  974
  #      division   0.6868 1202
  #      outer_grid  770
        outer_grid  434
  ################################################################################
  #
  #  Definition of "minimal" basis
  #
  ################################################################################
  #     valence basis states
      valence      1  s   1.
  #     ion occupancy
      ion_occ      1  s   0.5
  ################################################################################
  #
  #  Suggested additional basis functions. For production calculations,
  #  uncomment them one after another (the most important basis functions are
  #  listed first).
  #
  #  Basis constructed for dimers: 0.5 A, 0.7 A, 1.0 A, 1.5 A, 2.5 A
  #
  ################################################################################
  #  "First tier" - improvements: -1014.90 meV to -62.69 meV
       hydro 2 s 2.1
       hydro 2 p 3.5
  #  "Second tier" - improvements: -12.89 meV to -1.83 meV
       hydro 1 s 0.85
       hydro 2 p 3.7
       hydro 2 s 1.2
       hydro 3 d 7
  #  "Third tier" - improvements: -0.25 meV to -0.12 meV
  #     hydro 4 f 11.2
  #     hydro 3 p 4.8
  #     hydro 4 d 9
  #     hydro 3 s 3.2
  ################################################################################
  #
  # For methods that use the localized form of the "resolution of identity" for
  # the two-electron Coulomb operator (RI_method LVL), particularly Hartree-Fock and
  # hybrid density functional calculations, the highest accuracy can be obtained by
  # uncommenting the line beginning with "for_aux"  below, thus adding an extra g radial
  # function to the construction of the product basis set for the expansion.
  # See Ref. New J. Phys. 17, 093020 (2015) for more information, particularly Figs. 1 and 6.
  #
  ################################################################################
  #
  # for_aux hydro 5 g 6.0
  ################################################################################
  #
  #  FHI-aims code project
  # Volker Blum, Fritz Haber Institute Berlin, 2009
  #
  #  Suggested "tight" defaults for C atom (to be pasted into control.in file)
  #
  ################################################################################
    species        C
  #     global species definitions
      nucleus             6
      mass                12.0107
  #
      l_hartree           6
  #
      cut_pot             4.0  2.0  1.0
      basis_dep_cutoff    1e-4
  #
      radial_base         34 7.0
      radial_multiplier   2
      angular_grids specified
        division   0.2187   50
        division   0.4416  110
        division   0.6335  194
        division   0.7727  302
        division   0.8772  434
  #      division   0.9334  590
  #      division   0.9924  770
  #      division   1.0230  974
  #      division   1.5020 1202
  #     outer_grid  974
        outer_grid  434
  ################################################################################
  #
  #  Definition of "minimal" basis
  #
  ################################################################################
  #     valence basis states
      valence      2  s   2.
      valence      2  p   2.
  #     ion occupancy
      ion_occ      2  s   1.
      ion_occ      2  p   1.
  ################################################################################
  #
  #  Suggested additional basis functions. For production calculations,
  #  uncomment them one after another (the most important basis functions are
  #  listed first).
  #
  #  Constructed for dimers: 1.0 A, 1.25 A, 1.5 A, 2.0 A, 3.0 A
  #
  ################################################################################
  #  "First tier" - improvements: -1214.57 meV to -155.61 meV
       hydro 2 p 1.7
       hydro 3 d 6
       hydro 2 s 4.9
  #  "Second tier" - improvements: -67.75 meV to -5.23 meV
       hydro 4 f 9.8
       hydro 3 p 5.2
       hydro 3 s 4.3
       hydro 5 g 14.4
       hydro 3 d 6.2
  #  "Third tier" - improvements: -2.43 meV to -0.60 meV
  #     hydro 2 p 5.6
  #     hydro 2 s 1.4
  #     hydro 3 d 4.9
  #     hydro 4 f 11.2
  #  "Fourth tier" - improvements: -0.39 meV to -0.18 meV
  #     hydro 2 p 2.1
  #     hydro 5 g 16.4
  #     hydro 4 d 13.2
  #     hydro 3 s 13.6
  #     hydro 4 f 17.6
  #  Further basis functions - improvements: -0.08 meV and below
  #     hydro 3 s 2
  #     hydro 3 p 6
  #     hydro 4 d 20
  ################################################################################
  #
  # For methods that use the localized form of the "resolution of identity" for
  # the two-electron Coulomb operator (RI_method LVL), particularly Hartree-Fock and
  # hybrid density functional calculations, the highest accuracy can be obtained by
  # uncommenting the line beginning with "for_aux"  below, thus adding an extra g radial
  # function to the construction of the product basis set for the expansion.
  # See Ref. New J. Phys. 17, 093020 (2015) for more information, particularly Figs. 1 and 6.
  #
  ################################################################################
  #
  # for_aux hydro 5 g 6.0
  ################################################################################
  #
  #  FHI-aims code project
  # Volker Blum, Fritz Haber Institute Berlin, 2009
  #
  #  Suggested "tight" defaults for N atom (to be pasted into control.in file)
  #
  ################################################################################
    species        N
  #     global species definitions
      nucleus             7
      mass                14.0067
  #
      l_hartree           6
  #
      cut_pot             4.0  2.0  1.0
      basis_dep_cutoff    1e-4
  #
      radial_base         35 7.0
      radial_multiplier   2
      angular_grids       specified
        division   0.1841   50
        division   0.3514  110
        division   0.5126  194
        division   0.6292  302
        division   0.6939  434
  #      division   0.7396  590
  #      division   0.7632  770
  #      division   0.8122  974
  #      division   1.1604 1202
  #      outer_grid  974
        outer_grid  434
  ################################################################################
  #
  #  Definition of "minimal" basis
  #
  ################################################################################
  #     valence basis states
      valence      2  s   2.
      valence      2  p   3.
  #     ion occupancy
      ion_occ      2  s   1.
      ion_occ      2  p   2.
  ################################################################################
  #
  #  Suggested additional basis functions. For production calculations,
  #  uncomment them one after another (the most important basis functions are
  #  listed first).
  #
  #  Constructed for dimers: 1.0 A, 1.1 A, 1.5 A, 2.0 A, 3.0 A
  #
  ################################################################################
  #  "First tier" - improvements: -1193.42 meV to -220.60 meV
       hydro 2 p 1.8
       hydro 3 d 6.8
       hydro 3 s 5.8
  #  "Second tier" - improvements: -80.21 meV to -6.86 meV
       hydro 4 f 10.8
       hydro 3 p 5.8
       hydro 1 s 0.8
       hydro 5 g 16
       hydro 3 d 4.9
  #  "Third tier" - improvements: -4.29 meV to -0.53 meV
  #     hydro 3 s 16
  #     ionic 2 p auto
  #     hydro 3 d 6.6
  #     hydro 4 f 11.6
  #  "Fourth tier" - improvements: -0.75 meV to -0.25 meV
  #     hydro 2 p 4.5
  #     hydro 2 s 2.4
  #     hydro 5 g 14.4
  #     hydro 4 d 14.4
  #     hydro 4 f 16.8
  # Further basis functions - -0.21 meV and below
  #     hydro 3 p 14.8
  #     hydro 3 s 4.4
  #     hydro 3 d 19.6
  #     hydro 5 g 12.8
  ################################################################################
  #
  # For methods that use the localized form of the "resolution of identity" for
  # the two-electron Coulomb operator (RI_method LVL), particularly Hartree-Fock and
  # hybrid density functional calculations, the highest accuracy can be obtained by
  # uncommenting the line beginning with "for_aux"  below, thus adding an extra g radial
  # function to the construction of the product basis set for the expansion.
  # See Ref. New J. Phys. 17, 093020 (2015) for more information, particularly Figs. 1 and 6.
  #
  ################################################################################
  #
  # for_aux hydro 5 g 6.0
  ################################################################################
  #
  #  FHI-aims code project
  # Volker Blum, Fritz Haber Institute Berlin, 2009
  #
  #  Suggested "tight" defaults for O atom (to be pasted into control.in file)
  #
  ################################################################################
    species        O
  #     global species definitions
      nucleus             8
      mass                15.9994
  #
      l_hartree           6
  #
      cut_pot             4.0  2.0  1.0
      basis_dep_cutoff    1e-4
  #
      radial_base         36 7.0
      radial_multiplier   2
       angular_grids specified
        division   0.1817   50
        division   0.3417  110
        division   0.4949  194
        division   0.6251  302
        division   0.8014  434
  #      division   0.8507  590
  #      division   0.8762  770
  #      division   0.9023  974
  #      division   1.2339 1202
  #      outer_grid 974
        outer_grid  434
  ################################################################################
  #
  #  Definition of "minimal" basis
  #
  ################################################################################
  #     valence basis states
      valence      2  s   2.
      valence      2  p   4.
  #     ion occupancy
      ion_occ      2  s   1.
      ion_occ      2  p   3.
  ################################################################################
  #
  #  Suggested additional basis functions. For production calculations,
  #  uncomment them one after another (the most important basis functions are
  #  listed first).
  #
  #  Constructed for dimers: 1.0 A, 1.208 A, 1.5 A, 2.0 A, 3.0 A
  #
  ################################################################################
  #  "First tier" - improvements: -699.05 meV to -159.38 meV
       hydro 2 p 1.8
       hydro 3 d 7.6
       hydro 3 s 6.4
  #  "Second tier" - improvements: -49.91 meV to -5.39 meV
       hydro 4 f 11.6
       hydro 3 p 6.2
       hydro 3 d 5.6
       hydro 5 g 17.6
       hydro 1 s 0.75
  #  "Third tier" - improvements: -2.83 meV to -0.50 meV
  #     ionic 2 p auto
  #     hydro 4 f 10.8
  #     hydro 4 d 4.7
  #     hydro 2 s 6.8
  #  "Fourth tier" - improvements: -0.40 meV to -0.12 meV
  #     hydro 3 p 5
  #     hydro 3 s 3.3
  #     hydro 5 g 15.6
  #     hydro 4 f 17.6
  #     hydro 4 d 14
  # Further basis functions - -0.08 meV and below
  #     hydro 3 s 2.1
  #     hydro 4 d 11.6
  #     hydro 3 p 16
  #     hydro 2 s 17.2
  ################################################################################
  #
  # For methods that use the localized form of the "resolution of identity" for
  # the two-electron Coulomb operator (RI_method LVL), particularly Hartree-Fock and
  # hybrid density functional calculations, the highest accuracy can be obtained by
  # uncommenting the line beginning with "for_aux"  below, thus adding an extra g radial
  # function to the construction of the product basis set for the expansion.
  # See Ref. New J. Phys. 17, 093020 (2015) for more information, particularly Figs. 1 and 6.
  #
  ################################################################################
  #
  # for_aux hydro 5 g 6.0
  
  -----------------------------------------------------------------------
  Completed first pass over input file control.in .
  -----------------------------------------------------------------------
  
  
  -----------------------------------------------------------------------
  Parsing geometry.in (first pass over file, find array dimensions only).
  The contents of geometry.in will be repeated verbatim below
  unless switched off by setting 'verbatim_writeout .false.' .
  in the first line of geometry.in .
  -----------------------------------------------------------------------
  
  #
  # This is the geometry file that corresponds to the current relaxation step.
  # If you do not want this file to be written, set the "write_restart_geometry" flag to .false.
  #
  atom       1.45827851      0.32658498      3.15323425 C
  atom       0.12116378     -0.37614288      3.04864765 C
  atom      -0.48507951     -0.77362492      4.05215278 O
  atom       2.17295733     -0.34587594      3.64500592 H
  atom       1.34382513      1.20769605      3.79671272 H
  atom       1.86989388      0.64088040      2.18636349 H
  atom      -0.36505705     -0.55071844      1.78907211 N
  atom      -1.65834157     -1.17831273      1.50113161 C
  atom      -1.54097158     -2.73195481      1.53723626 C
  atom      -1.56456301     -3.42033022      0.52105717 O
  atom       0.19794935     -0.25463359      0.99944211 H
  atom      -2.33335755     -0.87300043      2.31509220 H
  atom      -2.19039098     -0.69751930      0.16035256 C
  atom      -3.18116046     -1.12599740     -0.02852038 H
  atom      -1.53994035     -1.02641095     -0.66105701 H
  atom      -2.27372257      0.39695121      0.14952663 H
  atom      -1.40033967     -3.21935415      2.79806524 N
  atom      -1.28361467     -4.64101957      3.12315916 C
  atom      -0.25261267     -5.40505287      2.25031340 C
  atom      -0.53770829     -6.46802848      1.71073429 O
  atom      -1.30120072     -2.52543426      3.54401869 H
  atom      -0.89263626     -4.67070401      4.15421538 H
  atom      -2.63928300     -5.34692593      3.09063836 C
  atom      -2.53709678     -6.39113286      3.40614883 H
  atom      -3.04569212     -5.34232646      2.07295794 H
  atom      -3.33803656     -4.83261340      3.76275332 H
  atom       1.02052695     -4.90266119      2.17619132 N
  atom       1.58934207     -3.70000712      2.75342350 C
  atom       1.61110184     -5.45292266      1.56044435 H
  atom       2.66313516     -3.85948630      2.91581496 H
  atom       1.14132177     -3.47278163      3.72749244 H
  atom       1.46402361     -2.81751017      2.10589971 H
  
  -----------------------------------------------------------------------
  Completed first pass over input file geometry.in .
  -----------------------------------------------------------------------
  

  Basic array size parameters:
  | Number of species                 :        4
  | Number of atoms                   :       32
  | Max. basis fn. angular momentum   :        4
  | Max. atomic/ionic basis occupied n:        2
  | Max. number of basis fn. types    :        2
  | Max. radial fns per species/type  :        8
  | Max. logarithmic grid size        :     1301
  | Max. radial integration grid size :       73
  | Max. angular integration grid size:      434
  | Max. angular grid division number :        8
  | Radial grid for Hartree potential :     1301
  | Number of spin channels           :        1

------------------------------------------------------------
          Reading file control.in.
------------------------------------------------------------
  XC: Using PBE gradient-corrected functionals.
  Spin treatment: No spin polarisation.
  Charge =   0.000000E+00: Neutral system requested explicitly.
  Occupation type: Gaussian broadening, width =   0.500000E-01 eV.
  Using pulay charge density mixing.
  Pulay mixing - number of memorized iterations:   10
  Charge density mixing - mixing parameter:     0.5000
  Convergence accuracy of self-consistent charge density:  0.1000E-03
  Convergence accuracy of sum of eigenvalues:  0.1000E-01
  Convergence accuracy of total energy:  0.1000E-04
  Convergence accuracy of forces:  0.1000E-03
  Maximum number of s.-c. iterations  :  1000
  Fitting ESP-charges to Potential. 
  | Esp charge output options: 
  | ESP Grid method: 3, cubic grid
  | Number of points in x, ,y, z:  0080 0080 0080
  |
 
  Reading configuration options for species H                   .
  | Found nuclear charge :   1.0000
  | Found atomic mass :    1.00794000000000      amu
  | Found l_max for Hartree potential  :   6
  | Found cutoff potl. onset [A], width [A], scale factor :    4.00000    2.00000    1.00000
  | Threshold for basis-dependent cutoff potential is   0.100000E-03
  | Found data for basic radial integration grid :    24 points, outermost radius =    7.000 A
  | Found multiplier for basic radial grid :   2
  | Found angular grid specification: user-specified.
  | Specified grid contains     6 separate shells.
  | Check grid settings after all constraints further below.
  | Found free-atom valence shell :  1 s   1.000
  | No ionic wave fns used. Skipping ion_occ.
  | Found hydrogenic basis function :  2 s   2.100
  | Found hydrogenic basis function :  2 p   3.500
  | Found hydrogenic basis function :  1 s   0.850
  | Found hydrogenic basis function :  2 p   3.700
  | Found hydrogenic basis function :  2 s   1.200
  | Found hydrogenic basis function :  3 d   7.000
  Species H                   : Missing cutoff potential type.
  Defaulting to exp(1/x)/(1-x)^2 type cutoff potential.
  Species H : No 'logarithmic' tag. Using default grid for free atom:
  | Default logarithmic grid data [bohr] : 0.1000E-03 0.1000E+03 0.1012E+01
  Species H : On-site basis accuracy parameter (for Gram-Schmidt orthonormalisation) not specified.
  Using default value basis_acc =  0.1000000E-03.
  Species H                   : Using default innermost maximum threshold i_radial=  2 for radial functions.
  Species H                   : Default cutoff onset for free atom density etc. : 0.40000000E+01 AA.
  Species H                   : Basic radial grid will be enhanced according to radial_multiplier =   2, to contain    49 grid points.
 
  Reading configuration options for species C                   .
  | Found nuclear charge :   6.0000
  | Found atomic mass :    12.0107000000000      amu
  | Found l_max for Hartree potential  :   6
  | Found cutoff potl. onset [A], width [A], scale factor :    4.00000    2.00000    1.00000
  | Threshold for basis-dependent cutoff potential is   0.100000E-03
  | Found data for basic radial integration grid :    34 points, outermost radius =    7.000 A
  | Found multiplier for basic radial grid :   2
  | Found angular grid specification: user-specified.
  | Specified grid contains     6 separate shells.
  | Check grid settings after all constraints further below.
  | Found free-atom valence shell :  2 s   2.000
  | Found free-atom valence shell :  2 p   2.000
  | No ionic wave fns used. Skipping ion_occ.
  | No ionic wave fns used. Skipping ion_occ.
  | Found hydrogenic basis function :  2 p   1.700
  | Found hydrogenic basis function :  3 d   6.000
  | Found hydrogenic basis function :  2 s   4.900
  | Found hydrogenic basis function :  4 f   9.800
  | Found hydrogenic basis function :  3 p   5.200
  | Found hydrogenic basis function :  3 s   4.300
  | Found hydrogenic basis function :  5 g  14.400
  | Found hydrogenic basis function :  3 d   6.200
  Species C                   : Missing cutoff potential type.
  Defaulting to exp(1/x)/(1-x)^2 type cutoff potential.
  Species C : No 'logarithmic' tag. Using default grid for free atom:
  | Default logarithmic grid data [bohr] : 0.1000E-03 0.1000E+03 0.1012E+01
  Species C : On-site basis accuracy parameter (for Gram-Schmidt orthonormalisation) not specified.
  Using default value basis_acc =  0.1000000E-03.
  Species C                   : Using default innermost maximum threshold i_radial=  2 for radial functions.
  Species C                   : Default cutoff onset for free atom density etc. : 0.40000000E+01 AA.
  Species C                   : Basic radial grid will be enhanced according to radial_multiplier =   2, to contain    69 grid points.
 
  Reading configuration options for species N                   .
  | Found nuclear charge :   7.0000
  | Found atomic mass :    14.0067000000000      amu
  | Found l_max for Hartree potential  :   6
  | Found cutoff potl. onset [A], width [A], scale factor :    4.00000    2.00000    1.00000
  | Threshold for basis-dependent cutoff potential is   0.100000E-03
  | Found data for basic radial integration grid :    35 points, outermost radius =    7.000 A
  | Found multiplier for basic radial grid :   2
  | Found angular grid specification: user-specified.
  | Specified grid contains     6 separate shells.
  | Check grid settings after all constraints further below.
  | Found free-atom valence shell :  2 s   2.000
  | Found free-atom valence shell :  2 p   3.000
  | No ionic wave fns used. Skipping ion_occ.
  | No ionic wave fns used. Skipping ion_occ.
  | Found hydrogenic basis function :  2 p   1.800
  | Found hydrogenic basis function :  3 d   6.800
  | Found hydrogenic basis function :  3 s   5.800
  | Found hydrogenic basis function :  4 f  10.800
  | Found hydrogenic basis function :  3 p   5.800
  | Found hydrogenic basis function :  1 s   0.800
  | Found hydrogenic basis function :  5 g  16.000
  | Found hydrogenic basis function :  3 d   4.900
  Species N                   : Missing cutoff potential type.
  Defaulting to exp(1/x)/(1-x)^2 type cutoff potential.
  Species N : No 'logarithmic' tag. Using default grid for free atom:
  | Default logarithmic grid data [bohr] : 0.1000E-03 0.1000E+03 0.1012E+01
  Species N : On-site basis accuracy parameter (for Gram-Schmidt orthonormalisation) not specified.
  Using default value basis_acc =  0.1000000E-03.
  Species N                   : Using default innermost maximum threshold i_radial=  2 for radial functions.
  Species N                   : Default cutoff onset for free atom density etc. : 0.40000000E+01 AA.
  Species N                   : Basic radial grid will be enhanced according to radial_multiplier =   2, to contain    71 grid points.
 
  Reading configuration options for species O                   .
  | Found nuclear charge :   8.0000
  | Found atomic mass :    15.9994000000000      amu
  | Found l_max for Hartree potential  :   6
  | Found cutoff potl. onset [A], width [A], scale factor :    4.00000    2.00000    1.00000
  | Threshold for basis-dependent cutoff potential is   0.100000E-03
  | Found data for basic radial integration grid :    36 points, outermost radius =    7.000 A
  | Found multiplier for basic radial grid :   2
  | Found angular grid specification: user-specified.
  | Specified grid contains     6 separate shells.
  | Check grid settings after all constraints further below.
  | Found free-atom valence shell :  2 s   2.000
  | Found free-atom valence shell :  2 p   4.000
  | No ionic wave fns used. Skipping ion_occ.
  | No ionic wave fns used. Skipping ion_occ.
  | Found hydrogenic basis function :  2 p   1.800
  | Found hydrogenic basis function :  3 d   7.600
  | Found hydrogenic basis function :  3 s   6.400
  | Found hydrogenic basis function :  4 f  11.600
  | Found hydrogenic basis function :  3 p   6.200
  | Found hydrogenic basis function :  3 d   5.600
  | Found hydrogenic basis function :  5 g  17.600
  | Found hydrogenic basis function :  1 s   0.750
  Species O                   : Missing cutoff potential type.
  Defaulting to exp(1/x)/(1-x)^2 type cutoff potential.
  Species O : No 'logarithmic' tag. Using default grid for free atom:
  | Default logarithmic grid data [bohr] : 0.1000E-03 0.1000E+03 0.1012E+01
  Species O : On-site basis accuracy parameter (for Gram-Schmidt orthonormalisation) not specified.
  Using default value basis_acc =  0.1000000E-03.
  Species O                   : Using default innermost maximum threshold i_radial=  2 for radial functions.
  Species O                   : Default cutoff onset for free atom density etc. : 0.40000000E+01 AA.
  Species O                   : Basic radial grid will be enhanced according to radial_multiplier =   2, to contain    73 grid points.
 
  Finished reading input file 'control.in'. Consistency checks are next.
 
  Target number of points in a grid batch is not set. Defaulting to  100
  Method for grid partitioning is not set. Defaulting to parallel hash+maxmin partitioning.
  Batch size limit is not set. Defaulting to    200
  By default, will store active basis functions for each batch.
  If in need of memory, prune_basis_once .false. can be used to disable this option.
  communication_type for Hartree potential was not specified.
  Defaulting to calc_hartree .
  Pulay mixer: Number of initial linear mixing iterations not set.
  Defaulting to    0 iterations.
  Work space size for distributed Hartree potential not set.
  Defaulting to   0.200000E+03 MB.
  Algorithm-dependent basis array size parameters:
  | n_max_pulay                         :       10
  Geometry relaxation not requested: no relaxation will be performed.
  Handling of forces: Unphysical translation and rotation will be removed from forces.
  No accuracy limit for integral partition fn. given. Defaulting to  0.1000E-14.
  No threshold value for u(r) in integrations given. Defaulting to  0.1000E-05.
  No accuracy for occupation numbers given. Defaulting to  0.1000E-07.
  No threshold value for occupation numbers given. Defaulting to  0.0000E+00.
  No accuracy for fermi level given. Defaulting to  0.1000E-19.
  Maximum # of iterations to find E_F not set. Defaulting to  200.
  Preferred method for the eigenvalue solver ('KS_method') not specified in 'control.in'.
  Calling blacs routine to test compilation state
  Since scalapack support is enabled, defaulting to 'elpa'.
  Preferred method for the MBD eigenvalue solver ('mbd_eigensolver') not specified in 'control.in'.
  Calling blacs routine to test compilation state
  Since scalapack support is enabled, defaulting to 'scaLAPACK'.
  Will not use alltoall communication since running on < 1024 CPUs.
  Threshold for basis singularities not set.
  Default threshold for basis singularities:  0.1000E-04
  partition_type (choice of integration weights) for integrals was not specified.
  | Using a version of the partition function of Stratmann and coworkers ('stratmann_smoother').
  | At each grid point, the set of atoms used to build the partition table is smoothly restricted to
  | only those atoms whose free-atom density would be non-zero at that grid point.
  Partitioning for Hartree potential was not defined. Using partition_type for integrals.
  | Adjusted default value of keyword multip_moments_threshold to:       0.10000000E-11
  | This value may affect high angular momentum components of the Hartree potential in periodic systems.
  No q(lm)/r^(l+1) cutoff set for long-range Hartree potential.
  | Using default value of  0.100000E-09 .
  | Verify using the multipole_threshold keyword.
  Defaulting to new monopole extrapolation.
  Density update method: automatic selection selected.
------------------------------------------------------------


------------------------------------------------------------
          Reading geometry description geometry.in.
------------------------------------------------------------
 * Warning! You did not set the 'relativistic' flag in input file 'control.in'.
 * Since you are not attempting to treat any elements beyond Ca(Z=20), FHI-aims
 * will default to 'relativistic none'.
 * You must ensure that this is really what you want!!
 * For example, DO NOT compute total-energy differences between results from
 * different settings of the 'relativistic' flag.
  Input structure read successfully.
  The structure contains       32 atoms,  and a total of        116.000 electrons.

  Input geometry:
  | No unit cell requested.
  | Atomic structure:
  |       Atom                x [A]            y [A]            z [A]
  |    1: Species C              1.458279         0.326585         3.153234
  |    2: Species C              0.121164        -0.376143         3.048648
  |    3: Species O             -0.485080        -0.773625         4.052153
  |    4: Species H              2.172957        -0.345876         3.645006
  |    5: Species H              1.343825         1.207696         3.796713
  |    6: Species H              1.869894         0.640880         2.186363
  |    7: Species N             -0.365057        -0.550718         1.789072
  |    8: Species C             -1.658342        -1.178313         1.501132
  |    9: Species C             -1.540972        -2.731955         1.537236
  |   10: Species O             -1.564563        -3.420330         0.521057
  |   11: Species H              0.197949        -0.254634         0.999442
  |   12: Species H             -2.333358        -0.873000         2.315092
  |   13: Species C             -2.190391        -0.697519         0.160353
  |   14: Species H             -3.181160        -1.125997        -0.028520
  |   15: Species H             -1.539940        -1.026411        -0.661057
  |   16: Species H             -2.273723         0.396951         0.149527
  |   17: Species N             -1.400340        -3.219354         2.798065
  |   18: Species C             -1.283615        -4.641020         3.123159
  |   19: Species C             -0.252613        -5.405053         2.250313
  |   20: Species O             -0.537708        -6.468028         1.710734
  |   21: Species H             -1.301201        -2.525434         3.544019
  |   22: Species H             -0.892636        -4.670704         4.154215
  |   23: Species C             -2.639283        -5.346926         3.090638
  |   24: Species H             -2.537097        -6.391133         3.406149
  |   25: Species H             -3.045692        -5.342326         2.072958
  |   26: Species H             -3.338037        -4.832613         3.762753
  |   27: Species N              1.020527        -4.902661         2.176191
  |   28: Species C              1.589342        -3.700007         2.753423
  |   29: Species H              1.611102        -5.452923         1.560444
  |   30: Species H              2.663135        -3.859486         2.915815
  |   31: Species H              1.141322        -3.472782         3.727492
  |   32: Species H              1.464024        -2.817510         2.105900
  |

  | The smallest distance between any two atoms is         1.01398125 AA.
  |
  | The first atom of this pair is atom number                      7 .
  | The second atom of this pair is atom number                    11 .

  Number of empty states per atom not set in control.in - providing a guess from actual geometry.
  | Total number of empty states used during s.c.f. cycle:       71
  If you use a very high smearing, use empty_states (per atom!) in control.in to increase this value.

  Structure-dependent array size parameters: 
  | Maximum number of distinct radial functions  :       40
  | Maximum number of basis functions            :      840
  | Number of Kohn-Sham states (occupied + empty):      129
------------------------------------------------------------

------------------------------------------------------------
          Preparing all fixed parts of the calculation.
------------------------------------------------------------
  Determining machine precision:
    2.225073858507201E-308
  Setting up grids for atomic and cluster calculations.

  Creating wave function, potential, and density for free atoms.

  Species: H

  List of occupied orbitals and eigenvalues:
    n    l              occ      energy [Ha]    energy [eV]
    1    0           1.0000        -0.238382        -6.4867


  Species: C

  List of occupied orbitals and eigenvalues:
    n    l              occ      energy [Ha]    energy [eV]
    1    0           2.0000       -10.041232      -273.2358
    2    0           2.0000        -0.504327       -13.7234
    2    1           2.0000        -0.193750        -5.2722


  Species: N

  List of occupied orbitals and eigenvalues:
    n    l              occ      energy [Ha]    energy [eV]
    1    0           2.0000       -14.129007      -384.4699
    2    0           2.0000        -0.681802       -18.5528
    2    1           3.0000        -0.260543        -7.0897


  Species: O

  List of occupied orbitals and eigenvalues:
    n    l              occ      energy [Ha]    energy [eV]
    1    0           2.0000       -18.898576      -514.2564
    2    0           2.0000        -0.878795       -23.9132
    2    1           4.0000        -0.332075        -9.0362

  Creating fixed part of basis set: Ionic, confined, hydrogenic.
 
  H                    hydrogenic:
 
  List of hydrogenic basis orbitals: 
    n    l      effective z      eigenvalue [eV]  inner max. [A]     outer max. [A]     outer radius [A]   
    2    0         2.100000       -14.9965           0.193243           1.317208           5.373006
    2    1         3.500000       -41.6672           0.602369           0.602369           4.056063
    1    0         0.850000        -9.8292           0.624871           0.624871           5.373006
    2    1         3.700000       -46.5653           0.573622           0.573622           3.910002
    2    0         1.200000        -4.5995           0.334980           2.228188           5.505995
    3    2         7.000000       -74.0753           0.680699           0.680699           3.769201
 
 
  C                    hydrogenic:
 
  List of hydrogenic basis orbitals: 
    n    l      effective z      eigenvalue [eV]  inner max. [A]     outer max. [A]     outer radius [A]   
    2    1         1.700000        -9.8152           1.245706           1.245706           5.401630
    3    2         6.000000       -54.4226           0.792453           0.792453           4.178599
    2    0         4.900000       -81.6681           0.082559           0.562749           3.353238
    4    3         9.800000       -81.6681           0.863254           0.863254           4.028125
    3    1         5.200000       -40.8774           0.305389           1.215618           4.898362
    3    0         4.300000       -27.9508           0.091041           1.610311           5.401630
    5    4        14.400000      -112.8510           0.917666           0.917666           3.883070
    3    2         6.200000       -58.1113           0.763917           0.763917           4.077671
 
 
  N                    hydrogenic:
 
  List of hydrogenic basis orbitals: 
    n    l      effective z      eigenvalue [eV]  inner max. [A]     outer max. [A]     outer radius [A]   
    2    1         1.800000       -11.0118           1.177451           1.177451           5.427479
    3    2         6.800000       -69.9029           0.704619           0.704619           3.854246
    3    0         5.800000       -50.8549           0.067388           1.191934           4.629968
    4    3        10.800000       -99.1854           0.786571           0.786571           3.761152
    3    1         5.800000       -50.8549           0.274880           1.094176           4.518138
    1    0         0.800000        -8.7059           0.662839           0.662839           5.361532
    5    4        16.000000      -139.3222           0.825990           0.825990           3.625711
    3    2         4.900000       -36.2967           0.968267           0.968267           4.862000
 
 
  O                    hydrogenic:
 
  List of hydrogenic basis orbitals: 
    n    l      effective z      eigenvalue [eV]  inner max. [A]     outer max. [A]     outer radius [A]   
    2    1         1.800000       -11.0118           1.178562           1.178562           5.432602
    3    2         7.600000       -87.3182           0.624125           0.624125           3.541477
    3    0         6.400000       -61.9209           0.061167           1.081902           4.306578
    4    3        11.600000      -114.4238           0.731631           0.731631           3.585037
    3    1         6.200000       -58.1113           0.255680           1.030270           4.306578
    3    2         5.600000       -47.4081           0.847233           0.847233           4.413171
    5    4        17.600000      -168.5799           0.749740           0.749740           3.372465
    1    0         0.750000        -7.6499           0.705284           0.705284           5.366593
 

  Adding cutoff potential to free-atom effective potential.
  Creating atomic-like basis functions for current effective potential.

  Species H                   :

  List of atomic basis orbitals and eigenvalues:
    n    l      energy [Ha]    energy [eV]    outer radius [A]
    1    0        -0.238382        -6.4867       5.373006


  Species C                   :

  List of atomic basis orbitals and eigenvalues:
    n    l      energy [Ha]    energy [eV]    outer radius [A]
    1    0       -10.041232      -273.2358       1.934409
    2    0        -0.504327       -13.7234       5.271162
    2    1        -0.193750        -5.2722       5.401630


  Species N                   :

  List of atomic basis orbitals and eigenvalues:
    n    l      energy [Ha]    energy [eV]    outer radius [A]
    1    0       -14.129007      -384.4699       1.637919
    2    0        -0.681802       -18.5528       5.168461
    2    1        -0.260543        -7.0897       5.361532


  Species O                   :

  List of atomic basis orbitals and eigenvalues:
    n    l      energy [Ha]    energy [eV]    outer radius [A]
    1    0       -18.898576      -514.2564       1.415765
    2    0        -0.878795       -23.9132       5.048385
    2    1        -0.332075        -9.0362       5.301386

  Assembling full basis from fixed parts.
  | Species H :   atomic orbital   1 s accepted.
  | Species H :    hydro orbital   2 s accepted.
  | Species H :    hydro orbital   1 s accepted.
  | Species H :    hydro orbital   2 s accepted.
  | Species H :    hydro orbital   2 p accepted.
  | Species H :    hydro orbital   2 p accepted.
  | Species H :    hydro orbital   3 d accepted.
  | Species C :   atomic orbital   1 s accepted.
  | Species C :    hydro orbital   2 s accepted.
  | Species C :   atomic orbital   2 s accepted.
  | Species C :    hydro orbital   3 s accepted.
  | Species C :    hydro orbital   3 p accepted.
  | Species C :   atomic orbital   2 p accepted.
  | Species C :    hydro orbital   2 p accepted.
  | Species C :    hydro orbital   3 d accepted.
  | Species C :    hydro orbital   3 d accepted.
  | Species C :    hydro orbital   4 f accepted.
  | Species C :    hydro orbital   5 g accepted.
  | Species N :   atomic orbital   1 s accepted.
  | Species N :    hydro orbital   3 s accepted.
  | Species N :   atomic orbital   2 s accepted.
  | Species N :    hydro orbital   1 s accepted.
  | Species N :    hydro orbital   3 p accepted.
  | Species N :   atomic orbital   2 p accepted.
  | Species N :    hydro orbital   2 p accepted.
  | Species N :    hydro orbital   3 d accepted.
  | Species N :    hydro orbital   3 d accepted.
  | Species N :    hydro orbital   4 f accepted.
  | Species N :    hydro orbital   5 g accepted.
  | Species O :   atomic orbital   1 s accepted.
  | Species O :    hydro orbital   3 s accepted.
  | Species O :   atomic orbital   2 s accepted.
  | Species O :    hydro orbital   1 s accepted.
  | Species O :    hydro orbital   3 p accepted.
  | Species O :   atomic orbital   2 p accepted.
  | Species O :    hydro orbital   2 p accepted.
  | Species O :    hydro orbital   3 d accepted.
  | Species O :    hydro orbital   3 d accepted.
  | Species O :    hydro orbital   4 f accepted.
  | Species O :    hydro orbital   5 g accepted.
 
  Basis size parameters after reduction:
  | Total number of radial functions:       40
  | Total number of basis functions :      840
 
  Testing on-site integration grid accuracy.
  |  Species  Function  <phi|h_atom|phi> (log., in eV)  <phi|h_atom|phi> (rad., in eV)
           1        1                 -6.4869821809                 -6.4870742227
           1        2                 13.5044133542                 13.5041049177
           1        3                 32.7854418792                 32.7779770519
           1        4                 33.7995553101                 33.7152624900 ***
           1        5                 28.8558651799                 28.8558652046
           1        6                 59.6361831893                 59.6362535845
           1        7                 60.2733718049                 60.2733715484
           2        8               -273.2358277112               -273.2358261765
           2        9                -10.7624923123                -10.7625144012
           2       10                 17.4634079027                 17.4634252127
           2       11                 53.0363661832                 53.0366180446
           2       12                 15.0981351967                 15.0981317714
           2       13                  3.8522181899                  3.8522770949
           2       14                 12.1181835661                 12.1206868578
           2       15                 29.4320778347                 29.4320780959
           2       16                 54.8753777694                 54.8752901936
           2       17                 59.3533975461                 59.3533974833
           2       18                 93.4537491195                 93.4537492066
           3       19               -384.4698526889               -384.4698499465
           3       20                 12.5691022037                 12.5690910168
           3       21                -15.7489097511                -15.7489165588
           3       22                 27.0978334940                 27.0985589490
           3       23                 18.5949116966                 18.5949125562
           3       24                  1.2212828291                  1.2212855301
           3       25                 13.4428926797                 13.4434051125
           3       26                 35.9380614500                 35.9380613666
           3       27                 39.9231532098                 39.9231654735
           3       28                 72.9957335806                 72.9957336833
           3       29                116.4231321147                116.4231321431
           4       30               -514.2564144315               -514.2564099626
           4       31                 15.1726678541                 15.1726530877
           4       32                -21.5447785304                -21.5447874973
           4       33                 14.4944558459                 14.4944698284
           4       34                 20.8882174564                 20.8882178906
           4       35                 -2.4850315908                 -2.4850322289
           4       36                 13.8600193195                 13.8599826966
           4       37                 45.8243383616                 45.8243383675
           4       38                 52.1840606465                 52.1840622440
           4       39                 85.4074185510                 85.4074185819
           4       40                142.0983717302                142.0983717339
 * Note: Onsite integrals marked "***" above are less accurate than
 * onsite_accuracy_threshold =    0.03000 eV. Usually, this is harmless.
 * When in doubt, tighten the "radial" and/or "radial_multiplier" flags to check.

  Preparing densities etc. for the partition functions (integrals / Hartree potential).

  Preparations completed.
  max(cpu_time)          :      0.236 s.
  Wall clock time (cpu1) :      0.232 s.
------------------------------------------------------------

------------------------------------------------------------
          Begin self-consistency loop: Initialization.

          Date     :  20170309, Time     :  180356.327
------------------------------------------------------------

  Initializing index lists of integration centers etc. from given atomic structure:
  | Number of centers in hartree potential         :        32
  | Number of centers in hartree multipole         :        32
  | Number of centers in electron density summation:        32
  | Number of centers in basis integrals           :        32
  | Number of centers in integrals                 :        32
  | Number of centers in hamiltonian               :        32
  Using modified Scalapack Eigenvalue solver (ELPA)
  * Using 32 tasks for Scalapack Eigenvalue solver.
  Detailed listing of tasks and assigned k-points:
  (for non-periodic systems, the "k-point" denotes an internal label only)
   Task     0 k-point     1 on eos399
   Task     1 k-point     1 on eos399
   Task     2 k-point     1 on eos399
   Task     3 k-point     1 on eos399
   Task     4 k-point     1 on eos399
   Task     5 k-point     1 on eos399
   Task     6 k-point     1 on eos399
   Task     7 k-point     1 on eos399
   Task     8 k-point     1 on eos399
   Task     9 k-point     1 on eos399
   Task    10 k-point     1 on eos399
   Task    11 k-point     1 on eos399
   Task    12 k-point     1 on eos399
   Task    13 k-point     1 on eos399
   Task    14 k-point     1 on eos399
   Task    15 k-point     1 on eos399
   Task    16 k-point     1 on eos399
   Task    17 k-point     1 on eos399
   Task    18 k-point     1 on eos399
   Task    19 k-point     1 on eos399
   Task    20 k-point     1 on eos399
   Task    21 k-point     1 on eos399
   Task    22 k-point     1 on eos399
   Task    23 k-point     1 on eos399
   Task    24 k-point     1 on eos399
   Task    25 k-point     1 on eos399
   Task    26 k-point     1 on eos399
   Task    27 k-point     1 on eos399
   Task    28 k-point     1 on eos399
   Task    29 k-point     1 on eos399
   Task    30 k-point     1 on eos399
   Task    31 k-point     1 on eos399
  Tasks:    32 split into      8 X      4 BLACS grid
  Calculating blocksize based on n_basis =          840 max_nprow =            8 max_npcol =            4
  Scalapack blocksize set to:           16
  Required Scalapack workspace - INTEGER:            1 REAL:             1
  Partitioning the integration grid into batches with parallel hashing+maxmin method.
  | Number of batches:     4969
  | Maximal batch size:     200
  | Minimal batch size:      49
  | Average batch size:     106.204
  | Standard deviation of batch sizes:      31.390

  Integration load balanced across    32 MPI tasks.
  Work distribution over tasks is as follows:
  Task     0 has      16465 integration points.
  Task     1 has      16471 integration points.
  Task     2 has      16485 integration points.
  Task     3 has      16624 integration points.
  Task     4 has      16482 integration points.
  Task     5 has      16495 integration points.
  Task     6 has      16486 integration points.
  Task     7 has      16477 integration points.
  Task     8 has      16497 integration points.
  Task     9 has      16474 integration points.
  Task    10 has      16514 integration points.
  Task    11 has      16459 integration points.
  Task    12 has      16487 integration points.
  Task    13 has      16471 integration points.
  Task    14 has      16526 integration points.
  Task    15 has      16502 integration points.
  Task    16 has      16489 integration points.
  Task    17 has      16461 integration points.
  Task    18 has      16506 integration points.
  Task    19 has      16503 integration points.
  Task    20 has      16488 integration points.
  Task    21 has      16464 integration points.
  Task    22 has      16480 integration points.
  Task    23 has      16488 integration points.
  Task    24 has      16496 integration points.
  Task    25 has      16463 integration points.
  Task    26 has      16521 integration points.
  Task    27 has      16492 integration points.
  Task    28 has      16516 integration points.
  Task    29 has      16495 integration points.
  Task    30 has      16486 integration points.
  Task    31 has      16465 integration points.
  Initializing partition tables, free-atom densities, potentials, etc. across the integration grid (initialize_grid_storage).
  | initialize_grid_storage: Actual outermost partition radius vs. multipole_radius_free
  | (-- VB: in principle, multipole_radius_free should be larger, hence this output)
  | Species        1: Confinement radius =              6.000000000000000 AA, multipole_radius_free =              6.071692442739658 AA.
  | Species        1: outer_partition_radius set to              6.071692442739658 AA .
  | Species        2: Confinement radius =              6.000000000000000 AA, multipole_radius_free =              6.029870734432609 AA.
  | Species        2: outer_partition_radius set to              6.029870734432609 AA .
  | Species        3: Confinement radius =              6.000000000000000 AA, multipole_radius_free =              6.058726835495003 AA.
  | Species        3: outer_partition_radius set to              6.058726835495003 AA .
  | Species        4: Confinement radius =              6.000000000000000 AA, multipole_radius_free =              6.064445521808699 AA.
  | Species        4: outer_partition_radius set to              6.064445521808699 AA .
  | Original list of interatomic distances with          32 x         32 entries is created.
  | Net number of integration points:   527728
  | of which are non-zero points    :   412193
  Obtaining max. number of non-zero basis functions in each batch (get_n_compute_maxes).
  | Maximal number of non-zero basis functions:      799 in task     0
  | Maximal number of non-zero basis functions:      806 in task     1
  | Maximal number of non-zero basis functions:      793 in task     2
  | Maximal number of non-zero basis functions:      785 in task     3
  | Maximal number of non-zero basis functions:      798 in task     4
  | Maximal number of non-zero basis functions:      792 in task     5
  | Maximal number of non-zero basis functions:      784 in task     6
  | Maximal number of non-zero basis functions:      789 in task     7
  | Maximal number of non-zero basis functions:      793 in task     8
  | Maximal number of non-zero basis functions:      801 in task     9
  | Maximal number of non-zero basis functions:      812 in task    10
  | Maximal number of non-zero basis functions:      803 in task    11
  | Maximal number of non-zero basis functions:      808 in task    12
  | Maximal number of non-zero basis functions:      789 in task    13
  | Maximal number of non-zero basis functions:      787 in task    14
  | Maximal number of non-zero basis functions:      797 in task    15
  | Maximal number of non-zero basis functions:      786 in task    16
  | Maximal number of non-zero basis functions:      799 in task    17
  | Maximal number of non-zero basis functions:      776 in task    18
  | Maximal number of non-zero basis functions:      803 in task    19
  | Maximal number of non-zero basis functions:      805 in task    20
  | Maximal number of non-zero basis functions:      785 in task    21
  | Maximal number of non-zero basis functions:      788 in task    22
  | Maximal number of non-zero basis functions:      792 in task    23
  | Maximal number of non-zero basis functions:      790 in task    24
  | Maximal number of non-zero basis functions:      792 in task    25
  | Maximal number of non-zero basis functions:      790 in task    26
  | Maximal number of non-zero basis functions:      787 in task    27
  | Maximal number of non-zero basis functions:      797 in task    28
  | Maximal number of non-zero basis functions:      798 in task    29
  | Maximal number of non-zero basis functions:      788 in task    30
  | Maximal number of non-zero basis functions:      777 in task    31
  Selecting the method for density update.
  Loop over occupied states selected for charge density update.
  Integrating Hamiltonian matrix: batch-based integration.
  Time summed over all CPUs for integration: real work       22.654 s, elapsed       23.415 s
  Integrating overlap matrix.
  Time summed over all CPUs for integration: real work       13.859 s, elapsed       14.293 s
  Deallocating overlap matrix.

  Updating Kohn-Sham eigenvalues, eigenvectors, occupation numbers, and Fermi level.
  Solving generalized eigenproblem
  Solving real symmetric generalised eigenvalue problem by standard ScaLAPACK.
  Transforming overlap matrix with ScaLAPACK and checking for singularities.
  : Overlap matrix is nonsingular, using Cholesky decomposition
  | Lowest eigenvalue:  0.855724E-04
  Factoring overlap matrix with Cholesky decomposition
  Using Cholesky factor for transformation
  Using 1-stage real ELPA solver
  Determining occupation numbers for Kohn-Sham eigenstates.
  | Chemical potential (Fermi level) in eV                 : -.96751754E+01
  | Error in electron count due to remaining E_F inaccuracy: 0.00000000E+00
  | Maximum occupation number of highest empty state:  0.00E+00

  Writing Kohn-Sham eigenvalues.

  State    Occupation    Eigenvalue [Ha]    Eigenvalue [eV]
      1       2.00000         -18.975136         -516.33972
      2       2.00000         -18.974438         -516.32071
      3       2.00000         -18.973171         -516.28625
      4       2.00000         -14.255072         -387.90024
      5       2.00000         -14.254408         -387.88218
      6       2.00000         -14.254333         -387.88013
      7       2.00000         -10.172002         -276.79427
      8       2.00000         -10.171492         -276.78038
      9       2.00000         -10.171186         -276.77204
     10       2.00000         -10.166632         -276.64814
     11       2.00000         -10.147969         -276.14028
     12       2.00000         -10.147426         -276.12551
     13       2.00000         -10.136410         -275.82575
     14       2.00000         -10.134036         -275.76116
     15       2.00000         -10.133449         -275.74517
     16       2.00000          -1.135405          -30.89595
     17       2.00000          -1.130927          -30.77410
     18       2.00000          -1.126693          -30.65887
     19       2.00000          -1.021269          -27.79013
     20       2.00000          -1.013120          -27.56838
     21       2.00000          -1.004664          -27.33829
     22       2.00000          -0.892061          -24.27423
     23       2.00000          -0.876504          -23.85088
     24       2.00000          -0.842334          -22.92107
     25       2.00000          -0.817257          -22.23869
     26       2.00000          -0.782702          -21.29841
     27       2.00000          -0.749716          -20.40082
     28       2.00000          -0.706177          -19.21606
     29       2.00000          -0.689084          -18.75094
     30       2.00000          -0.666137          -18.12652
     31       2.00000          -0.643226          -17.50307
     32       2.00000          -0.626387          -17.04486
     33       2.00000          -0.614449          -16.72001
     34       2.00000          -0.602880          -16.40520
     35       2.00000          -0.601036          -16.35502
     36       2.00000          -0.585988          -15.94554
     37       2.00000          -0.564043          -15.34840
     38       2.00000          -0.561016          -15.26603
     39       2.00000          -0.555616          -15.11909
     40       2.00000          -0.553880          -15.07184
     41       2.00000          -0.543874          -14.79956
     42       2.00000          -0.542888          -14.77273
     43       2.00000          -0.537953          -14.63844
     44       2.00000          -0.525390          -14.29659
     45       2.00000          -0.519236          -14.12914
     46       2.00000          -0.513361          -13.96925
     47       2.00000          -0.506796          -13.79063
     48       2.00000          -0.505174          -13.74648
     49       2.00000          -0.497944          -13.54975
     50       2.00000          -0.485806          -13.21947
     51       2.00000          -0.481248          -13.09542
     52       2.00000          -0.478391          -13.01767
     53       2.00000          -0.417152          -11.35128
     54       2.00000          -0.411089          -11.18631
     55       2.00000          -0.402636          -10.95628
     56       2.00000          -0.384855          -10.47244
     57       2.00000          -0.383514          -10.43594
     58       2.00000          -0.375458          -10.21673
     59       0.00000          -0.168045           -4.57274
     60       0.00000          -0.159882           -4.35062
     61       0.00000          -0.153531           -4.17780
     62       0.00000          -0.078568           -2.13794
     63       0.00000          -0.066654           -1.81376
     64       0.00000          -0.058035           -1.57921
     65       0.00000          -0.057000           -1.55105
     66       0.00000          -0.046940           -1.27730
     67       0.00000          -0.040134           -1.09210
     68       0.00000          -0.032125           -0.87418
     69       0.00000          -0.027866           -0.75827
     70       0.00000          -0.024586           -0.66901
     71       0.00000          -0.017342           -0.47189
     72       0.00000          -0.014609           -0.39753
     73       0.00000          -0.008497           -0.23122
     74       0.00000          -0.005603           -0.15246
     75       0.00000           0.000194            0.00528
     76       0.00000           0.001327            0.03612
     77       0.00000           0.008058            0.21926
     78       0.00000           0.010241            0.27867
     79       0.00000           0.013403            0.36470
     80       0.00000           0.014725            0.40068
     81       0.00000           0.024585            0.66899
     82       0.00000           0.025295            0.68832
     83       0.00000           0.032191            0.87597
     84       0.00000           0.039289            1.06910
     85       0.00000           0.045259            1.23156
     86       0.00000           0.047777            1.30007
     87       0.00000           0.056322            1.53260
     88       0.00000           0.059241            1.61202
     89       0.00000           0.060471            1.64549
     90       0.00000           0.065971            1.79516
     91       0.00000           0.071060            1.93363
     92       0.00000           0.085674            2.33130
     93       0.00000           0.086231            2.34647
     94       0.00000           0.091104            2.47906
     95       0.00000           0.096316            2.62090
     96       0.00000           0.103989            2.82968
     97       0.00000           0.109384            2.97648
     98       0.00000           0.112496            3.06118
     99       0.00000           0.119879            3.26208
    100       0.00000           0.121256            3.29954
    101       0.00000           0.125003            3.40150
    102       0.00000           0.135925            3.69870
    103       0.00000           0.137512            3.74190
    104       0.00000           0.144349            3.92794
    105       0.00000           0.147058            4.00165
    106       0.00000           0.147732            4.02000
    107       0.00000           0.159128            4.33010
    108       0.00000           0.159621            4.34351
    109       0.00000           0.168352            4.58110
    110       0.00000           0.171221            4.65917
    111       0.00000           0.181003            4.92533
    112       0.00000           0.185288            5.04193
    113       0.00000           0.187589            5.10456
    114       0.00000           0.188295            5.12378
    115       0.00000           0.198049            5.38918
    116       0.00000           0.200199            5.44770
    117       0.00000           0.206367            5.61554
    118       0.00000           0.209151            5.69128
    119       0.00000           0.212354            5.77845
    120       0.00000           0.217695            5.92378
    121       0.00000           0.222604            6.05736
    122       0.00000           0.230619            6.27546
    123       0.00000           0.232096            6.31564
    124       0.00000           0.234447            6.37962
    125       0.00000           0.242622            6.60209
    126       0.00000           0.252753            6.87776
    127       0.00000           0.258628            7.03762
    128       0.00000           0.262153            7.13355
    129       0.00000           0.263335            7.16571

  Highest occupied state (VBM) at    -10.21673430 eV
  | Occupation number:      2.00000000

  Lowest unoccupied state (CBM) at    -4.57273616 eV
  | Occupation number:      0.00000000

  Overall HOMO-LUMO gap:      5.64399814 eV.
  Calculating total energy contributions from superposition of free atom densities.

  Total energy components:
  | Sum of eigenvalues            :        -437.88499174 Ha      -11915.45687708 eV
  | XC energy correction          :         -98.82292412 Ha       -2689.10858557 eV
  | XC potential correction       :         127.02578452 Ha        3456.54746409 eV
  | Free-atom electrostatic energy:        -333.61115235 Ha       -9078.02134006 eV
  | Hartree energy correction     :           0.00000000 Ha           0.00000000 eV
  | vdW energy correction         :           0.00000000 Ha           0.00000000 eV
  | Entropy correction            :          -0.00000000 Ha          -0.00000000 eV
  | ---------------------------
  | Total energy                  :        -743.29328368 Ha      -20226.03933861 eV
  | Total energy, T -> 0          :        -743.29328368 Ha      -20226.03933861 eV  <-- do not rely on this value for anything but (periodic) metals
  | Electronic free energy        :        -743.29328368 Ha      -20226.03933861 eV

  Derived energy quantities:
  | Kinetic energy                :         735.15940328 Ha       20004.70519152 eV
  | Electrostatic energy          :       -1379.62976285 Ha      -37541.63594456 eV
  | Energy correction for multipole
  | error in Hartree potential    :           0.00000000 Ha           0.00000000 eV
  | Sum of eigenvalues per atom                           :        -372.35802741 eV
  | Total energy (T->0) per atom                          :        -632.06372933 eV  <-- do not rely on this value for anything but (periodic) metals
  | Electronic free energy per atom                       :        -632.06372933 eV
  Initialize hartree_potential_storage
  Max. number of atoms included in rho_multipole:           32

  End scf initialization - timings             :  max(cpu_time)    wall_clock(cpu1)
  | Time for scf. initialization               :        1.956 s           1.952 s
  | Boundary condition initialization          :        0.004 s           0.000 s
  | Integration                                :        1.200 s           1.200 s
  | Solution of K.-S. eqns.                    :        0.076 s           0.078 s
  | Grid partitioning                          :        0.320 s           0.312 s
  | Preloading free-atom quantities on grid    :        0.028 s           0.028 s
  | Free-atom superposition energy             :        0.040 s           0.039 s
  | Total energy evaluation                    :        0.004 s           0.001 s
------------------------------------------------------------

------------------------------------------------------------
          Begin self-consistency iteration #    1

  Date     :  20170309, Time     :  180358.279
------------------------------------------------------------
  Evaluating new KS density.
  Integration grid: deviation in total charge (<rho> - N_e) =   4.263256E-14
  Pulay mixing of updated and previous charge densities.

  Evaluating partitioned Hartree potential by multipole expansion.
  | Analytical far-field extrapolation by fixed multipoles:
  | Hartree multipole sum: apparent total charge =   0.655171E-04
  Summing up the Hartree potential.
  Time summed over all CPUs for potential: real work        9.564 s, elapsed        9.740 s
  | RMS charge density error from multipole expansion :   0.107323E-01

  Integrating Hamiltonian matrix: batch-based integration.
  Time summed over all CPUs for integration: real work       22.457 s, elapsed       23.201 s

  Updating Kohn-Sham eigenvalues, eigenvectors, occupation numbers, and Fermi level.
  Solving generalized eigenproblem
  Solving real symmetric generalised eigenvalue problem by standard ScaLAPACK.
  Using Cholesky factor for transformation
  Using 2-stage real ELPA solver
  K-Point:    1, Trafo times: 1-stage=     0.021 s, 2-stage=     0.019 s ==> Using 2-stage solver
  Determining occupation numbers for Kohn-Sham eigenstates.
  | Chemical potential (Fermi level) in eV                 : -.38395911E+01
  | Error in electron count due to remaining E_F inaccuracy: 0.00000000E+00
  | Maximum occupation number of highest empty state:  0.00E+00

  Writing Kohn-Sham eigenvalues.

  State    Occupation    Eigenvalue [Ha]    Eigenvalue [eV]
      1       2.00000         -18.637552         -507.15359
      2       2.00000         -18.612599         -506.47459
      3       2.00000         -18.594214         -505.97429
      4       2.00000         -14.009310         -381.21271
      5       2.00000         -13.983808         -380.51879
      6       2.00000         -13.971610         -380.18686
      7       2.00000         -10.067631         -273.95419
      8       2.00000         -10.046595         -273.38175
      9       2.00000         -10.035452         -273.07855
     10       2.00000          -9.963946         -271.13277
     11       2.00000          -9.949536         -270.74065
     12       2.00000          -9.892710         -269.19434
     13       2.00000          -9.862626         -268.37572
     14       2.00000          -9.835112         -267.62701
     15       2.00000          -9.808484         -266.90242
     16       2.00000          -0.975972          -26.55756
     17       2.00000          -0.954552          -25.97467
     18       2.00000          -0.940544          -25.59349
     19       2.00000          -0.879111          -23.92184
     20       2.00000          -0.860213          -23.40759
     21       2.00000          -0.842600          -22.92830
     22       2.00000          -0.748409          -20.36525
     23       2.00000          -0.714147          -19.43292
     24       2.00000          -0.695865          -18.93544
     25       2.00000          -0.668596          -18.19342
     26       2.00000          -0.627423          -17.07306
     27       2.00000          -0.606096          -16.49272
     28       2.00000          -0.579821          -15.77772
     29       2.00000          -0.563144          -15.32393
     30       2.00000          -0.524632          -14.27596
     31       2.00000          -0.514985          -14.01346
     32       2.00000          -0.483593          -13.15923
     33       2.00000          -0.473144          -12.87491
     34       2.00000          -0.462271          -12.57903
     35       2.00000          -0.454143          -12.35786
     36       2.00000          -0.446722          -12.15593
     37       2.00000          -0.435538          -11.85161
     38       2.00000          -0.424742          -11.55781
     39       2.00000          -0.409236          -11.13588
     40       2.00000          -0.393370          -10.70414
     41       2.00000          -0.387125          -10.53420
     42       2.00000          -0.382430          -10.40646
     43       2.00000          -0.380117          -10.34352
     44       2.00000          -0.377072          -10.26064
     45       2.00000          -0.364464           -9.91757
     46       2.00000          -0.360056           -9.79763
     47       2.00000          -0.356723           -9.70693
     48       2.00000          -0.348730           -9.48943
     49       2.00000          -0.346380           -9.42548
     50       2.00000          -0.337682           -9.18880
     51       2.00000          -0.333297           -9.06947
     52       2.00000          -0.328076           -8.92739
     53       2.00000          -0.258239           -7.02703
     54       2.00000          -0.234136           -6.37115
     55       2.00000          -0.227645           -6.19455
     56       2.00000          -0.213623           -5.81299
     57       2.00000          -0.203421           -5.53538
     58       2.00000          -0.192782           -5.24585
     59       0.00000          -0.061538           -1.67453
     60       0.00000          -0.044859           -1.22067
     61       0.00000          -0.038011           -1.03432
     62       0.00000          -0.031110           -0.84654
     63       0.00000          -0.017976           -0.48914
     64       0.00000          -0.014424           -0.39249
     65       0.00000          -0.009516           -0.25895
     66       0.00000          -0.001057           -0.02876
     67       0.00000           0.012121            0.32983
     68       0.00000           0.015400            0.41906
     69       0.00000           0.021214            0.57727
     70       0.00000           0.028354            0.77155
     71       0.00000           0.033228            0.90419
     72       0.00000           0.040336            1.09760
     73       0.00000           0.044056            1.19881
     74       0.00000           0.052900            1.43948
     75       0.00000           0.056102            1.52661
     76       0.00000           0.061219            1.66586
     77       0.00000           0.067918            1.84815
     78       0.00000           0.076245            2.07473
     79       0.00000           0.078786            2.14389
     80       0.00000           0.086266            2.34741
     81       0.00000           0.095486            2.59830
     82       0.00000           0.097755            2.66006
     83       0.00000           0.108951            2.96470
     84       0.00000           0.113524            3.08914
     85       0.00000           0.116395            3.16728
     86       0.00000           0.122636            3.33708
     87       0.00000           0.126554            3.44371
     88       0.00000           0.130302            3.54570
     89       0.00000           0.132539            3.60657
     90       0.00000           0.141101            3.83956
     91       0.00000           0.146978            3.99947
     92       0.00000           0.149085            4.05682
     93       0.00000           0.155396            4.22853
     94       0.00000           0.158504            4.31311
     95       0.00000           0.167200            4.54974
     96       0.00000           0.170676            4.64434
     97       0.00000           0.173041            4.70868
     98       0.00000           0.175363            4.77187
     99       0.00000           0.181364            4.93518
    100       0.00000           0.187764            5.10932
    101       0.00000           0.195059            5.30783
    102       0.00000           0.197173            5.36534
    103       0.00000           0.201684            5.48810
    104       0.00000           0.204287            5.55892
    105       0.00000           0.210171            5.71904
    106       0.00000           0.217492            5.91825
    107       0.00000           0.219925            5.98446
    108       0.00000           0.225447            6.13471
    109       0.00000           0.232644            6.33058
    110       0.00000           0.237841            6.47198
    111       0.00000           0.242097            6.58778
    112       0.00000           0.245333            6.67585
    113       0.00000           0.248658            6.76633
    114       0.00000           0.254058            6.91327
    115       0.00000           0.263307            7.16494
    116       0.00000           0.271166            7.37880
    117       0.00000           0.271697            7.39326
    118       0.00000           0.276817            7.53258
    119       0.00000           0.284295            7.73607
    120       0.00000           0.288568            7.85232
    121       0.00000           0.294431            8.01189
    122       0.00000           0.298641            8.12644
    123       0.00000           0.304105            8.27513
    124       0.00000           0.305717            8.31898
    125       0.00000           0.314273            8.55180
    126       0.00000           0.322011            8.76237
    127       0.00000           0.329671            8.97081
    128       0.00000           0.334690            9.10737
    129       0.00000           0.342526            9.32061

  Highest occupied state (VBM) at     -5.24585445 eV
  | Occupation number:      2.00000000

  Lowest unoccupied state (CBM) at    -1.67452626 eV
  | Occupation number:      0.00000000

  Overall HOMO-LUMO gap:      3.57132819 eV.

  Total energy components:
  | Sum of eigenvalues            :        -417.16410135 Ha      -11351.61276152 eV
  | XC energy correction          :        -100.75502134 Ha       -2741.68362596 eV
  | XC potential correction       :         129.53139297 Ha        3524.72853894 eV
  | Free-atom electrostatic energy:        -333.61115235 Ha       -9078.02134006 eV
  | Hartree energy correction     :         -20.72123424 Ha        -563.85347235 eV
  | vdW energy correction         :           0.00000000 Ha           0.00000000 eV
  | Entropy correction            :           0.00000000 Ha           0.00000000 eV
  | ---------------------------
  | Total energy                  :        -742.72011632 Ha      -20210.44266095 eV
  | Total energy, T -> 0          :        -742.72011632 Ha      -20210.44266095 eV  <-- do not rely on this value for anything but (periodic) metals
  | Electronic free energy        :        -742.72011632 Ha      -20210.44266095 eV

  Derived energy quantities:
  | Kinetic energy                :         744.02922394 Ha       20246.06529198 eV
  | Electrostatic energy          :       -1385.99431892 Ha      -37714.82432697 eV
  | Energy correction for multipole
  | error in Hartree potential    :          -0.04161676 Ha          -1.13244954 eV
  | Sum of eigenvalues per atom                           :        -354.73789880 eV
  | Total energy (T->0) per atom                          :        -631.57633315 eV  <-- do not rely on this value for anything but (periodic) metals
  | Electronic free energy per atom                       :        -631.57633315 eV

  Self-consistency convergence accuracy:
  | Change of charge density      :  0.9015E+00
  | Change of sum of eigenvalues  :  0.5638E+03 eV
  | Change of total energy        :  0.1560E+02 eV

  End self-consistency iteration #     1       :  max(cpu_time)    wall_clock(cpu1)
  | Time for this iteration                    :        1.580 s           1.580 s
  | Charge density update                      :        0.500 s           0.497 s
[...]
   ----------------------------------------------------------------
   Total forces(  20)            :  0.132326E-02  0.467203E-02  0.106828E-03
  atom #   21
   Hellmann-Feynman              :  0.617223E-02  0.657989E-02 -0.360082E-01
   Ionic forces                  :  0.000000E+00  0.000000E+00  0.000000E+00
   Multipole                     : -0.662861E-02 -0.410127E-01  0.114636E-01
   Pulay + GGA                   :  0.367682E-02  0.468796E-01  0.256226E-01
   Van der Waals                 : -0.134453E-02 -0.121524E-01 -0.277318E-02
   ----------------------------------------------------------------
   Total forces(  21)            :  0.187591E-02  0.294315E-03 -0.169516E-02
  atom #   22
   Hellmann-Feynman              : -0.407563E-01 -0.870957E-02 -0.540091E-01
   Ionic forces                  :  0.000000E+00  0.000000E+00  0.000000E+00
   Multipole                     :  0.923968E-02 -0.944596E-02 -0.781836E-02
   Pulay + GGA                   :  0.330895E-01  0.129187E-01  0.589590E-01
   Van der Waals                 : -0.253729E-02  0.573947E-02  0.184225E-02
   ----------------------------------------------------------------
   Total forces(  22)            : -0.964410E-03  0.502675E-03 -0.102616E-02
  atom #   23
   Hellmann-Feynman              : -0.977540E+00 -0.620926E+00 -0.181889E+00
   Ionic forces                  :  0.000000E+00  0.000000E+00  0.000000E+00
   Multipole                     :  0.251591E+00  0.176502E+00  0.957379E-01
   Pulay + GGA                   :  0.726038E+00  0.445958E+00  0.811982E-01
   Van der Waals                 :  0.775689E-03 -0.975701E-03  0.406855E-02
   ----------------------------------------------------------------
   Total forces(  23)            :  0.864419E-03  0.557673E-03 -0.884433E-03
  atom #   24
   Hellmann-Feynman              :  0.458870E-01  0.352117E-01 -0.402657E-01
   Ionic forces                  :  0.000000E+00  0.000000E+00  0.000000E+00
   Multipole                     : -0.302764E-01  0.141835E-01 -0.677533E-02
   Pulay + GGA                   : -0.699469E-02 -0.497349E-01  0.448762E-01
   Van der Waals                 : -0.886655E-02  0.693829E-03  0.224947E-02
   ----------------------------------------------------------------
   Total forces(  24)            : -0.250568E-03  0.354109E-03  0.846959E-04
  atom #   25
   Hellmann-Feynman              :  0.763623E-01  0.596364E-02  0.132903E-01
   Ionic forces                  :  0.000000E+00  0.000000E+00  0.000000E+00
   Multipole                     : -0.944639E-02 -0.644241E-02  0.255804E-01
   Pulay + GGA                   : -0.507568E-01  0.604324E-02 -0.412118E-01
   Van der Waals                 : -0.163538E-01 -0.547118E-02  0.363628E-02
   ----------------------------------------------------------------
   Total forces(  25)            : -0.194643E-03  0.932891E-04  0.129521E-02
  atom #   26
   Hellmann-Feynman              :  0.535644E-01  0.350055E-02 -0.177725E-01
   Ionic forces                  :  0.000000E+00  0.000000E+00  0.000000E+00
   Multipole                     : -0.186415E-01 -0.296848E-01 -0.183875E-01
   Pulay + GGA                   : -0.350563E-01  0.244592E-01  0.417667E-01
   Van der Waals                 :  0.481811E-03  0.119580E-02 -0.537061E-02
   ----------------------------------------------------------------
   Total forces(  26)            :  0.348432E-03 -0.529288E-03  0.236055E-03
  atom #   27
   Hellmann-Feynman              : -0.498326E+00 -0.166959E+01  0.362981E-01
   Ionic forces                  :  0.000000E+00  0.000000E+00  0.000000E+00
   Multipole                     : -0.708124E-01 -0.135278E+00 -0.588707E-01
   Pulay + GGA                   :  0.571772E+00  0.180076E+01  0.316023E-01
   Van der Waals                 : -0.211935E-02  0.275400E-02 -0.728779E-02
   ----------------------------------------------------------------
   Total forces(  27)            :  0.514832E-03 -0.134976E-02  0.174187E-02
  atom #   28
   Hellmann-Feynman              :  0.106382E+01  0.151357E+01  0.860973E+00
   Ionic forces                  :  0.000000E+00  0.000000E+00  0.000000E+00
   Multipole                     : -0.565682E-01 -0.122887E+00 -0.635470E-01
   Pulay + GGA                   : -0.100818E+01 -0.141853E+01 -0.791360E+00
   Van der Waals                 :  0.106188E-02  0.293173E-01 -0.654759E-02
   ----------------------------------------------------------------
   Total forces(  28)            :  0.142517E-03  0.146722E-02 -0.481239E-03
  atom #   29
   Hellmann-Feynman              : -0.650826E-01 -0.590334E-02  0.121239E-01
   Ionic forces                  :  0.000000E+00  0.000000E+00  0.000000E+00
   Multipole                     :  0.220117E-01  0.339381E-01  0.206794E-01
   Pulay + GGA                   :  0.513983E-01 -0.277339E-01 -0.353499E-01
   Van der Waals                 : -0.958165E-02  0.171627E-02  0.183577E-02
   ----------------------------------------------------------------
   Total forces(  29)            : -0.125427E-02  0.201704E-02 -0.710811E-03
  atom #   30
   Hellmann-Feynman              : -0.392138E-01 -0.403555E-01 -0.129235E-01
   Ionic forces                  :  0.000000E+00  0.000000E+00  0.000000E+00
   Multipole                     : -0.171614E-01  0.364839E-01  0.249504E-02
   Pulay + GGA                   :  0.643224E-01 -0.816813E-03  0.894318E-02
   Van der Waals                 : -0.845804E-02  0.446880E-02  0.170437E-02
   ----------------------------------------------------------------
   Total forces(  30)            : -0.510807E-03 -0.219602E-03  0.219072E-03
  atom #   31
   Hellmann-Feynman              : -0.635573E-02 -0.446944E-01 -0.232166E-01
   Ionic forces                  :  0.000000E+00  0.000000E+00  0.000000E+00
   Multipole                     :  0.127887E-01  0.167734E-01 -0.318959E-01
   Pulay + GGA                   : -0.197218E-01  0.822535E-02  0.558982E-01
   Van der Waals                 :  0.138664E-01  0.186089E-01 -0.167913E-02
   ----------------------------------------------------------------
   Total forces(  31)            :  0.577503E-03 -0.108683E-02 -0.893400E-03
  atom #   32
   Hellmann-Feynman              : -0.219639E-01 -0.622781E-01 -0.121466E-01
   Ionic forces                  :  0.000000E+00  0.000000E+00  0.000000E+00
   Multipole                     :  0.901494E-02 -0.147489E-01  0.284617E-01
   Pulay + GGA                   :  0.164825E-01  0.675686E-01 -0.177599E-01
   Van der Waals                 : -0.303329E-02  0.812003E-02  0.283912E-02
   ----------------------------------------------------------------
   Total forces(  32)            :  0.500242E-03 -0.133830E-02  0.139434E-02

  Timings for VdW correction (Tkatchenko-Scheffler 2009 or later):
  | CPU time:        0.128 s, Wall clock time:        0.126 s.
  Removing unitary transformations (pure translations, rotations) from forces on atoms.
  Atomic forces before filtering:
  | Net force on center of mass :   0.316145E-03  0.686870E-03  0.246167E-03 eV/A
  | Net torque on center of mass:  -0.354279E-02  0.335313E-02 -0.254837E-02 eV
  Atomic forces after filtering:
  | Net force on center of mass :  -0.435562E-18  0.348449E-18  0.522674E-18 eV/A
  | Net torque on center of mass:  -0.221270E-17 -0.737566E-18 -0.311161E-18 eV

  Energy and forces in a compact form:
  | Total energy uncorrected      :         -0.202087695036957E+05 eV
  | Total energy corrected        :         -0.202087695036957E+05 eV  <-- do not rely on this value for anything but (periodic) metals
  | Electronic free energy        :         -0.202087695036957E+05 eV
  Total atomic forces (unitary forces cleaned) [eV/Ang]:
  |   1          0.324809111073458E-04         -0.299731786986454E-03          0.688379199607151E-04
  |   2         -0.291375867947936E-02         -0.100493070733174E-02          0.130175741107528E-03
  |   3          0.178094094581363E-02          0.568342219915479E-03         -0.333425475495279E-02
  |   4         -0.194810257473633E-03          0.134859552884840E-03         -0.725834645040891E-03
  |   5         -0.120356606035746E-03         -0.120819416420760E-02          0.530726335122819E-03
  |   6          0.217933560089158E-03          0.940328267593565E-03          0.105074479554952E-02
  |   7          0.350251133345125E-02          0.333184526613705E-02          0.134221861424581E-02
  |   8         -0.169251124871351E-02         -0.140735053341153E-02          0.674043993447708E-03
  |   9         -0.200345225192768E-02         -0.195897075396967E-02         -0.335783767863240E-03
  |  10         -0.850252760920061E-03          0.151530070978032E-02          0.299755049218758E-02
  |  11         -0.801876805295326E-03         -0.166769122152077E-02          0.995142225195620E-03
  |  12          0.634271438204615E-03          0.292383606243723E-03         -0.154831645940574E-02
  |  13          0.386741798641643E-03         -0.109017572099362E-02         -0.607433158414812E-03
  |  14          0.533397583330905E-03          0.615376623400205E-04         -0.366567618778313E-03
  |  15         -0.663386531302629E-03          0.119366643625324E-02          0.113091909732205E-04
  |  16         -0.384047581592181E-03         -0.617971811472504E-03         -0.389816064596167E-03
  |  17         -0.423192702379800E-03          0.143985700714216E-02          0.252598174869057E-03
  |  18          0.169155642849786E-02         -0.132174035406338E-02         -0.745794197208770E-03
  |  19         -0.174466727323804E-02         -0.397700043787429E-02          0.105523245121202E-02
  |  20          0.137506977746820E-02          0.465966214882096E-02          0.404978202296298E-04
  |  21          0.183724057853256E-02          0.244144672550143E-03         -0.171787776443958E-02
  |  22         -0.989248880188801E-03          0.448344126734800E-03         -0.107275485494714E-02
  |  23          0.871593260362762E-03          0.497447217455183E-03         -0.979857337573928E-03
  |  24         -0.237071325160577E-03          0.290345866325718E-03         -0.244825349331614E-04
  |  25         -0.165117412929805E-03          0.434959785281512E-04          0.119090487434299E-02
  |  26          0.334270311272498E-03         -0.608695500572111E-03          0.133127058166433E-03
  |  27          0.536497190473259E-03         -0.134945645099980E-02          0.173384659854056E-02
  |  28          0.136187857040794E-03          0.146589625554669E-02         -0.458307331554347E-03
  |  29         -0.121204959257784E-02          0.203428168866404E-02         -0.714266156128600E-03
  |  30         -0.518685933030426E-03         -0.209764803554221E-03          0.263204347929876E-03
  |  31          0.546836870329545E-03         -0.110877529754609E-02         -0.876851316121092E-03
  |  32          0.496955997629369E-03         -0.133128913841230E-02          0.142803732887748E-02

  ------------------------------------ 
  Start decomposition of the XC Energy 
  ------------------------------------ 
  Hartree-Fock part   :          0.000000000 Ha              0.000000000 eV
  ------------------------------------ 
  X Energy            :        -96.986240027 Ha          -2639.129868587 eV
  C Energy GGA        :         -3.870786176 Ha           -105.329450955 eV
  Total XC Energy     :       -100.857026203 Ha          -2744.459319541 eV
  LDA X and C from self-consistent density 
  X Energy LDA        :        -88.006729800 Ha          -2394.784963173 eV
  C Energy LDA        :         -7.532579459 Ha           -204.971915948 eV
  ------------------------------------ 
  End decomposition of the XC Energy 
  ------------------------------------ 
   
  ESP charge fitting starts.
  | Calculation :  00000001  of  00000001
  | Full density
  Computing multipole expansion for total density.
  Generating points for esp charges.
  Partitioning the integration grid into batches with parallel hashing+maxmin method.
  | Number of batches:     3852
  | Maximal batch size:     196
  | Minimal batch size:      52
  | Average batch size:     126.165
  | Standard deviation of batch sizes:      17.040

  Integration load balanced across    32 MPI tasks.
  Work distribution over tasks is as follows:
  Initializing partition tables, free-atom densities, potentials, etc. across the integration grid (initialize_grid_storage).
  | Original list of interatomic distances with          32 x         32 entries is created.
  | Net number of integration points:   485986
  | of which are non-zero points    :   485986
  Summing up potential from multipole expanded  density.
  Summing up the Hartree potential.
  Time summed over all CPUs for potential: real work        6.434 s, elapsed        6.685 s
  Fitting esp charges to potential.
  |
  | ESP charges fitted to the electrostatic potential :
  |
  | Atom         1: C, ESP charge:      0.85534626
  |
  | Atom         2: C, ESP charge:     -0.44978952
  |
  | Atom         3: O, ESP charge:      0.45324019
  |
  | Atom         4: H, ESP charge:     -0.24259426
  |
  | Atom         5: H, ESP charge:     -0.27471346
  |
  | Atom         6: H, ESP charge:     -0.21915583
  |
  | Atom         7: N, ESP charge:      0.26312696
  |
  | Atom         8: C, ESP charge:     -0.35892298
  |
  | Atom         9: C, ESP charge:     -0.05448136
  |
  | Atom        10: O, ESP charge:      0.38159126
  |
  | Atom        11: H, ESP charge:     -0.24177072
  |
  | Atom        12: H, ESP charge:     -0.01763858
  |
  | Atom        13: C, ESP charge:      0.44398252
  |
  | Atom        14: H, ESP charge:     -0.14405846
  |
  | Atom        15: H, ESP charge:     -0.12164339
  |
  | Atom        16: H, ESP charge:     -0.09516595
  |
  | Atom        17: N, ESP charge:      0.06092207
  |
  | Atom        18: C, ESP charge:     -0.43847540
  |
  | Atom        19: C, ESP charge:     -0.21273681
  |
  | Atom        20: O, ESP charge:      0.45831831
  |
  | Atom        21: H, ESP charge:     -0.07590159
  |
  | Atom        22: H, ESP charge:     -0.02315906
  |
  | Atom        23: C, ESP charge:      0.55269843
  |
  | Atom        24: H, ESP charge:     -0.15244760
  |
  | Atom        25: H, ESP charge:     -0.18273223
  |
  | Atom        26: H, ESP charge:     -0.09507922
  |
  | Atom        27: N, ESP charge:      0.41034407
  |
  | Atom        28: C, ESP charge:      0.04857939
  |
  | Atom        29: H, ESP charge:     -0.32859194
  |
  | Atom        30: H, ESP charge:     -0.06451856
  |
  | Atom        31: H, ESP charge:     -0.05841089
  |
  | Atom        32: H, ESP charge:     -0.07616165

  RRMS:       0.00342580

  Done.

------------------------------------------------------------------------------
  Final output of selected total energy values:

  The following output summarizes some interesting total energy values
  at the end of a run (AFTER all relaxation, molecular dynamics, etc.).

  | Total energy of the DFT / Hartree-Fock s.c.f. calculation      :         -20208.769503696 eV
  | Final zero-broadening corrected energy (caution - metals only) :         -20208.769503696 eV
  | For reference only, the value of 1 Hartree used in FHI-aims is :             27.211384500 eV

  Before relying on these values, please be sure to understand exactly which
  total energy value is referred to by a given number. Different objects may
  all carry the same name 'total energy'. Definitions:

  Total energy of the DFT / Hartree-Fock s.c.f. calculation:
  | Note that this energy does not include ANY quantities calculated after the
  | s.c.f. cycle, in particular not ANY RPA, MP2, etc. many-body perturbation terms.

  Final zero-broadening corrected energy:
  | For metallic systems only, a broadening of the occupation numbers at the Fermi
  | level can be extrapolated back to zero broadening by an electron-gas inspired
  | formula. For all systems that are not real metals, this value can be
  | meaningless and should be avoided.

------------------------------------------------------------------------------
  Methods described in the following list of references were used in this FHI-aims run.
  If you publish the results, please make sure to cite these reference if they apply.
  FHI-aims is an academic code, and for our developers (often, Ph.D. students
  and postdocs), scientific credit in the community is essential.
  Thank you for helping us!

  For any use of FHI-aims, please cite:

    Volker Blum, Ralf Gehrke, Felix Hanke, Paula Havu, Ville Havu,
    Xinguo Ren, Karsten Reuter, and Matthias Scheffler
    'Ab initio molecular simulations with numeric atom-centered orbitals'
    Computer Physics Communications 180, 2175-2196 (2009)
    http://dx.doi.org/10.1016/j.cpc.2009.06.022


  The scalable eigensolver library ELPA was used in your run.
  ELPA is essential especially for large systems on hundreds or thousands of CPUs.
  For ELPA, please cite:

    Andreas Marek, Volker Blum, Rainer Johanni, Ville Havu, Bruno Lang,
    Thomas Auckenthaler, Alexander Heinecke, Hans-Joachim Bungartz, and Hermann Lederer,
    'The ELPA Library - Scalable Parallel Eigenvalue Solutions
    for Electronic Structure Theory and Computational Science'
    The Journal of Physics: Condensed Matter 26, 213201 (2014).
    http://dx.doi.org/10.1088/0953-8984/26/21/213201


  For ELPA's efficient two-stage tridiagonalization used in your run, please cite:

    T. Auckenthaler, V. Blum, H.-J. Bungartz, T. Huckle, R. Johanni, L. Kraemer,
    B. Lang, H. Lederer, and P. R. Willems,
    'Parallel solution of partial symmetric eigenvalue problems'
    'from  electronic structure calculations'
    Parallel Computing 37, 783-794 (2011).
    http://dx.doi.org/10.1016/j.parco.2011.05.002


  For the real-space grid partitioning and parallelization used in this calculation, please cite:

    Ville Havu, Volker Blum, Paula Havu, and Matthias Scheffler,
    'Efficient O(N) integration for all-electron electronic structure calculation'
    'using numerically tabulated basis functions'
    Journal of Computational Physics 228, 8367-8379 (2009).
    http://dx.doi.org/10.1016/j.jcp.2009.08.008

  Of course, there are many other important community references, e.g., those cited in the
  above references. Our list is limited to references that describe implementations in the
  FHI-aims code. The reason is purely practical (length of this list) - please credit others as well.

------------------------------------------------------------
          Leaving FHI-aims.
          Date     :  20170309, Time     :  180426.594

          Computational steps:
          | Number of self-consistency cycles          :           14

          Detailed time accounting                     :  max(cpu_time)    wall_clock(cpu1)
          | Total time                                 :       31.118 s          31.282 s
          | Preparation time                           :        0.236 s           0.232 s
          | Grid partitioning                          :        0.320 s           0.312 s
          | Preloading free-atom quantities on grid    :        0.028 s           0.028 s
          | Free-atom superposition energy             :        0.040 s           0.039 s
          | Total time for integrations                :       11.557 s          11.534 s
          | Total time for solution of K.-S. equations :        0.528 s           0.495 s
          | Total time for density & force components  :        9.861 s           9.844 s
          | Total time for mixing                      :        0.132 s           0.104 s
          | Total time for Hartree multipole update    :        0.056 s           0.058 s
          | Total time for Hartree multipole sum       :        6.304 s           6.272 s
          | Total time for total energy evaluation     :        0.032 s           0.017 s
          | Total time for vdW correction              :        0.128 s           0.126 s

          Have a nice day.
------------------------------------------------------------
