  MPI-parallelism will be employed.
------------------------------------------------------------
          Invoking FHI-aims ...
          Version 150427
          Git rev.: 9dd23e0 BL: Update Version stamp
          Compiled on 2015/11/03 at 22:05:20 on host eos03.

          When using FHI-aims, please cite the following reference:

          Volker Blum, Ralf Gehrke, Felix Hanke, Paula Havu,
          Ville Havu, Xinguo Ren, Karsten Reuter, and Matthias Scheffler,
          'Ab Initio Molecular Simulations with Numeric Atom-Centered Orbitals: FHI-aims',
          Computer Physics Communications 180, 2175-2196 (2009)

          For any questions about FHI-aims, please visit the aimsclub website
          with its forums and wiki. Contributions to both the forums and the
          wiki are warmly encouraged - they are for you, and everyone is welcome there.

------------------------------------------------------------

  Date     :  20170309, Time     :  160740.933
  Time zero on CPU 1             :   0.380023000000000E+00  s.
  Internal wall clock time zero  :           258307660.933  s.

  Using       32 parallel tasks.
  Task        0 on host eos232 reporting.
  Task        1 on host eos232 reporting.
  Task        2 on host eos232 reporting.
  Task        3 on host eos232 reporting.
  Task        4 on host eos232 reporting.
  Task        5 on host eos232 reporting.
  Task        6 on host eos232 reporting.
  Task        7 on host eos232 reporting.
  Task        8 on host eos232 reporting.
  Task        9 on host eos232 reporting.
  Task       10 on host eos232 reporting.
  Task       11 on host eos232 reporting.
  Task       12 on host eos232 reporting.
  Task       13 on host eos232 reporting.
  Task       14 on host eos232 reporting.
  Task       15 on host eos232 reporting.
  Task       16 on host eos232 reporting.
  Task       17 on host eos232 reporting.
  Task       18 on host eos232 reporting.
  Task       19 on host eos232 reporting.
  Task       20 on host eos232 reporting.
  Task       21 on host eos232 reporting.
  Task       22 on host eos232 reporting.
  Task       23 on host eos232 reporting.
  Task       24 on host eos232 reporting.
  Task       25 on host eos232 reporting.
  Task       26 on host eos232 reporting.
  Task       27 on host eos232 reporting.
  Task       28 on host eos232 reporting.
  Task       29 on host eos232 reporting.
  Task       30 on host eos232 reporting.
  Task       31 on host eos232 reporting.

  Performing system and environment tests:
  | Environment variable OMP_NUM_THREADS correctly set to 1.
  | Stacksize not measured: no C compiler
  | Checking for scalapack...
  | Testing pdtran()...
  | All pdtran() tests passed.

  Obtaining array dimensions for all initial allocations:
  
  -----------------------------------------------------------------------
  Parsing control.in (first pass over file, find array dimensions only).
  The contents of control.in will be repeated verbatim below
  unless switched off by setting 'verbatim_writeout .false.' .
  in the first line of control.in .
  -----------------------------------------------------------------------
  
  #########################################################################################
  #
  # Input for System
  #
  #########################################################################################
  #
  #
  #  Physical model
  #
    xc                 pbe
    vdw_correction_hirshfeld
    spin               none
    charge             0.
  #
  #  SCF convergence
  #
    occupation_type    gaussian 0.05
    mixer              pulay
      n_max_pulay        10
      charge_mix_param   0.5
    sc_accuracy_rho    1E-4
    sc_accuracy_eev    1E-2
    sc_accuracy_etot   1E-5
    sc_accuracy_forces 1E-4
    sc_iter_limit      1000
  #
  #  ESP charge
  #
    output esp
    esp equal_grid_n 80 80 80
  #
  #
  ################################################################################
  #
  #  FHI-aims code project
  # Volker Blum, Fritz Haber Institute Berlin, 2009
  #
  #  Suggested "tight" defaults for H atom (to be pasted into control.in file)
  #
  ################################################################################
    species        H
  #     global species definitions
      nucleus             1
      mass                1.00794
  #
      l_hartree           6
  #
      cut_pot             4.0  2.0  1.0
      basis_dep_cutoff    1e-4
  #
      radial_base         24 7.0
      radial_multiplier   2
      angular_grids       specified
        division   0.1930   50
        division   0.3175  110
        division   0.4293  194
        division   0.5066  302
        division   0.5626  434
  #      division   0.5922  590
  #      division   0.6227  974
  #      division   0.6868 1202
  #      outer_grid  770
        outer_grid  434
  ################################################################################
  #
  #  Definition of "minimal" basis
  #
  ################################################################################
  #     valence basis states
      valence      1  s   1.
  #     ion occupancy
      ion_occ      1  s   0.5
  ################################################################################
  #
  #  Suggested additional basis functions. For production calculations,
  #  uncomment them one after another (the most important basis functions are
  #  listed first).
  #
  #  Basis constructed for dimers: 0.5 A, 0.7 A, 1.0 A, 1.5 A, 2.5 A
  #
  ################################################################################
  #  "First tier" - improvements: -1014.90 meV to -62.69 meV
       hydro 2 s 2.1
       hydro 2 p 3.5
  #  "Second tier" - improvements: -12.89 meV to -1.83 meV
       hydro 1 s 0.85
       hydro 2 p 3.7
       hydro 2 s 1.2
       hydro 3 d 7
  #  "Third tier" - improvements: -0.25 meV to -0.12 meV
  #     hydro 4 f 11.2
  #     hydro 3 p 4.8
  #     hydro 4 d 9
  #     hydro 3 s 3.2
  ################################################################################
  #
  # For methods that use the localized form of the "resolution of identity" for
  # the two-electron Coulomb operator (RI_method LVL), particularly Hartree-Fock and
  # hybrid density functional calculations, the highest accuracy can be obtained by
  # uncommenting the line beginning with "for_aux"  below, thus adding an extra g radial
  # function to the construction of the product basis set for the expansion.
  # See Ref. New J. Phys. 17, 093020 (2015) for more information, particularly Figs. 1 and 6.
  #
  ################################################################################
  #
  # for_aux hydro 5 g 6.0
  ################################################################################
  #
  #  FHI-aims code project
  # Volker Blum, Fritz Haber Institute Berlin, 2009
  #
  #  Suggested "tight" defaults for C atom (to be pasted into control.in file)
  #
  ################################################################################
    species        C
  #     global species definitions
      nucleus             6
      mass                12.0107
  #
      l_hartree           6
  #
      cut_pot             4.0  2.0  1.0
      basis_dep_cutoff    1e-4
  #
      radial_base         34 7.0
      radial_multiplier   2
      angular_grids specified
        division   0.2187   50
        division   0.4416  110
        division   0.6335  194
        division   0.7727  302
        division   0.8772  434
  #      division   0.9334  590
  #      division   0.9924  770
  #      division   1.0230  974
  #      division   1.5020 1202
  #     outer_grid  974
        outer_grid  434
  ################################################################################
  #
  #  Definition of "minimal" basis
  #
  ################################################################################
  #     valence basis states
      valence      2  s   2.
      valence      2  p   2.
  #     ion occupancy
      ion_occ      2  s   1.
      ion_occ      2  p   1.
  ################################################################################
  #
  #  Suggested additional basis functions. For production calculations,
  #  uncomment them one after another (the most important basis functions are
  #  listed first).
  #
  #  Constructed for dimers: 1.0 A, 1.25 A, 1.5 A, 2.0 A, 3.0 A
  #
  ################################################################################
  #  "First tier" - improvements: -1214.57 meV to -155.61 meV
       hydro 2 p 1.7
       hydro 3 d 6
       hydro 2 s 4.9
  #  "Second tier" - improvements: -67.75 meV to -5.23 meV
       hydro 4 f 9.8
       hydro 3 p 5.2
       hydro 3 s 4.3
       hydro 5 g 14.4
       hydro 3 d 6.2
  #  "Third tier" - improvements: -2.43 meV to -0.60 meV
  #     hydro 2 p 5.6
  #     hydro 2 s 1.4
  #     hydro 3 d 4.9
  #     hydro 4 f 11.2
  #  "Fourth tier" - improvements: -0.39 meV to -0.18 meV
  #     hydro 2 p 2.1
  #     hydro 5 g 16.4
  #     hydro 4 d 13.2
  #     hydro 3 s 13.6
  #     hydro 4 f 17.6
  #  Further basis functions - improvements: -0.08 meV and below
  #     hydro 3 s 2
  #     hydro 3 p 6
  #     hydro 4 d 20
  ################################################################################
  #
  # For methods that use the localized form of the "resolution of identity" for
  # the two-electron Coulomb operator (RI_method LVL), particularly Hartree-Fock and
  # hybrid density functional calculations, the highest accuracy can be obtained by
  # uncommenting the line beginning with "for_aux"  below, thus adding an extra g radial
  # function to the construction of the product basis set for the expansion.
  # See Ref. New J. Phys. 17, 093020 (2015) for more information, particularly Figs. 1 and 6.
  #
  ################################################################################
  #
  # for_aux hydro 5 g 6.0
  ################################################################################
  #
  #  FHI-aims code project
  # Volker Blum, Fritz Haber Institute Berlin, 2009
  #
  #  Suggested "tight" defaults for N atom (to be pasted into control.in file)
  #
  ################################################################################
    species        N
  #     global species definitions
      nucleus             7
      mass                14.0067
  #
      l_hartree           6
  #
      cut_pot             4.0  2.0  1.0
      basis_dep_cutoff    1e-4
  #
      radial_base         35 7.0
      radial_multiplier   2
      angular_grids       specified
        division   0.1841   50
        division   0.3514  110
        division   0.5126  194
        division   0.6292  302
        division   0.6939  434
  #      division   0.7396  590
  #      division   0.7632  770
  #      division   0.8122  974
  #      division   1.1604 1202
  #      outer_grid  974
        outer_grid  434
  ################################################################################
  #
  #  Definition of "minimal" basis
  #
  ################################################################################
  #     valence basis states
      valence      2  s   2.
      valence      2  p   3.
  #     ion occupancy
      ion_occ      2  s   1.
      ion_occ      2  p   2.
  ################################################################################
  #
  #  Suggested additional basis functions. For production calculations,
  #  uncomment them one after another (the most important basis functions are
  #  listed first).
  #
  #  Constructed for dimers: 1.0 A, 1.1 A, 1.5 A, 2.0 A, 3.0 A
  #
  ################################################################################
  #  "First tier" - improvements: -1193.42 meV to -220.60 meV
       hydro 2 p 1.8
       hydro 3 d 6.8
       hydro 3 s 5.8
  #  "Second tier" - improvements: -80.21 meV to -6.86 meV
       hydro 4 f 10.8
       hydro 3 p 5.8
       hydro 1 s 0.8
       hydro 5 g 16
       hydro 3 d 4.9
  #  "Third tier" - improvements: -4.29 meV to -0.53 meV
  #     hydro 3 s 16
  #     ionic 2 p auto
  #     hydro 3 d 6.6
  #     hydro 4 f 11.6
  #  "Fourth tier" - improvements: -0.75 meV to -0.25 meV
  #     hydro 2 p 4.5
  #     hydro 2 s 2.4
  #     hydro 5 g 14.4
  #     hydro 4 d 14.4
  #     hydro 4 f 16.8
  # Further basis functions - -0.21 meV and below
  #     hydro 3 p 14.8
  #     hydro 3 s 4.4
  #     hydro 3 d 19.6
  #     hydro 5 g 12.8
  ################################################################################
  #
  # For methods that use the localized form of the "resolution of identity" for
  # the two-electron Coulomb operator (RI_method LVL), particularly Hartree-Fock and
  # hybrid density functional calculations, the highest accuracy can be obtained by
  # uncommenting the line beginning with "for_aux"  below, thus adding an extra g radial
  # function to the construction of the product basis set for the expansion.
  # See Ref. New J. Phys. 17, 093020 (2015) for more information, particularly Figs. 1 and 6.
  #
  ################################################################################
  #
  # for_aux hydro 5 g 6.0
  ################################################################################
  #
  #  FHI-aims code project
  # Volker Blum, Fritz Haber Institute Berlin, 2009
  #
  #  Suggested "tight" defaults for O atom (to be pasted into control.in file)
  #
  ################################################################################
    species        O
  #     global species definitions
      nucleus             8
      mass                15.9994
  #
      l_hartree           6
  #
      cut_pot             4.0  2.0  1.0
      basis_dep_cutoff    1e-4
  #
      radial_base         36 7.0
      radial_multiplier   2
       angular_grids specified
        division   0.1817   50
        division   0.3417  110
        division   0.4949  194
        division   0.6251  302
        division   0.8014  434
  #      division   0.8507  590
  #      division   0.8762  770
  #      division   0.9023  974
  #      division   1.2339 1202
  #      outer_grid 974
        outer_grid  434
  ################################################################################
  #
  #  Definition of "minimal" basis
  #
  ################################################################################
  #     valence basis states
      valence      2  s   2.
      valence      2  p   4.
  #     ion occupancy
      ion_occ      2  s   1.
      ion_occ      2  p   3.
  ################################################################################
  #
  #  Suggested additional basis functions. For production calculations,
  #  uncomment them one after another (the most important basis functions are
  #  listed first).
  #
  #  Constructed for dimers: 1.0 A, 1.208 A, 1.5 A, 2.0 A, 3.0 A
  #
  ################################################################################
  #  "First tier" - improvements: -699.05 meV to -159.38 meV
       hydro 2 p 1.8
       hydro 3 d 7.6
       hydro 3 s 6.4
  #  "Second tier" - improvements: -49.91 meV to -5.39 meV
       hydro 4 f 11.6
       hydro 3 p 6.2
       hydro 3 d 5.6
       hydro 5 g 17.6
       hydro 1 s 0.75
  #  "Third tier" - improvements: -2.83 meV to -0.50 meV
  #     ionic 2 p auto
  #     hydro 4 f 10.8
  #     hydro 4 d 4.7
  #     hydro 2 s 6.8
  #  "Fourth tier" - improvements: -0.40 meV to -0.12 meV
  #     hydro 3 p 5
  #     hydro 3 s 3.3
  #     hydro 5 g 15.6
  #     hydro 4 f 17.6
  #     hydro 4 d 14
  # Further basis functions - -0.08 meV and below
  #     hydro 3 s 2.1
  #     hydro 4 d 11.6
  #     hydro 3 p 16
  #     hydro 2 s 17.2
  ################################################################################
  #
  # For methods that use the localized form of the "resolution of identity" for
  # the two-electron Coulomb operator (RI_method LVL), particularly Hartree-Fock and
  # hybrid density functional calculations, the highest accuracy can be obtained by
  # uncommenting the line beginning with "for_aux"  below, thus adding an extra g radial
  # function to the construction of the product basis set for the expansion.
  # See Ref. New J. Phys. 17, 093020 (2015) for more information, particularly Figs. 1 and 6.
  #
  ################################################################################
  #
  # for_aux hydro 5 g 6.0
  
  -----------------------------------------------------------------------
  Completed first pass over input file control.in .
  -----------------------------------------------------------------------
  
  
  -----------------------------------------------------------------------
  Parsing geometry.in (first pass over file, find array dimensions only).
  The contents of geometry.in will be repeated verbatim below
  unless switched off by setting 'verbatim_writeout .false.' .
  in the first line of geometry.in .
  -----------------------------------------------------------------------
  
  #
  # This is the geometry file that corresponds to the current relaxation step.
  # If you do not want this file to be written, set the "write_restart_geometry" flag to .false.
  #
  atom      -0.80260922      0.90600605      0.34833040 C
  atom      -0.94557295      0.24406248      1.70616023 C
  atom      -1.81362121     -0.59737685      1.94018078 O
  atom       0.00714420      1.64444697      0.30035929 H
  atom      -1.75097775      1.39562976      0.09454637 H
  atom      -0.62377793      0.12883917     -0.40530990 H
  atom      -0.04483775      0.64442445      2.65083034 N
  atom      -0.06717307      0.12066817      4.00341213 C
  atom       0.47644752      1.21865382      4.92078991 C
  atom       1.37724742      1.96352208      4.53286085 O
  atom       0.65651777      1.35467553      2.46103776 H
  atom      -1.11379630     -0.12458690      4.23073776 H
  atom       0.79573973     -1.14937218      4.13905823 C
  atom       0.79683285     -1.52978567      5.16829710 H
  atom       1.83156692     -0.92839448      3.85158262 H
  atom       0.39767562     -1.92755779      3.47712850 H
  atom      -0.01362949      1.31706187      6.19827122 N
  atom      -1.29924406      0.82924306      6.73177378 C
  atom      -1.65652037      1.60807814      8.01361800 C
  atom      -2.79867359      2.00208957      8.21642545 O
  atom       0.36988099      2.13637224      6.66645668 H
  atom      -2.11377209      1.06776213      6.03274929 H
  atom      -1.32531648     -0.67524494      7.04472547 C
  atom      -2.26027552     -0.92089200      7.56438808 H
  atom      -0.48063956     -0.96198088      7.68545677 H
  atom      -1.28550565     -1.27997232      6.13219875 H
  atom      -0.62467649      1.79012020      8.89381231 N
  atom      -0.81077677      2.42893828     10.18519246 C
  atom       0.25400828      1.31660694      8.71276013 H
  atom       0.00306611      3.13755418     10.38386191 H
  atom      -0.85215093      1.69243409     11.00131335 H
  atom      -1.76336923      2.96769182     10.15645499 H
  
  -----------------------------------------------------------------------
  Completed first pass over input file geometry.in .
  -----------------------------------------------------------------------
  

  Basic array size parameters:
  | Number of species                 :        4
  | Number of atoms                   :       32
  | Max. basis fn. angular momentum   :        4
  | Max. atomic/ionic basis occupied n:        2
  | Max. number of basis fn. types    :        2
  | Max. radial fns per species/type  :        8
  | Max. logarithmic grid size        :     1301
  | Max. radial integration grid size :       73
  | Max. angular integration grid size:      434
  | Max. angular grid division number :        8
  | Radial grid for Hartree potential :     1301
  | Number of spin channels           :        1

------------------------------------------------------------
          Reading file control.in.
------------------------------------------------------------
  XC: Using PBE gradient-corrected functionals.
  Spin treatment: No spin polarisation.
  Charge =   0.000000E+00: Neutral system requested explicitly.
  Occupation type: Gaussian broadening, width =   0.500000E-01 eV.
  Using pulay charge density mixing.
  Pulay mixing - number of memorized iterations:   10
  Charge density mixing - mixing parameter:     0.5000
  Convergence accuracy of self-consistent charge density:  0.1000E-03
  Convergence accuracy of sum of eigenvalues:  0.1000E-01
  Convergence accuracy of total energy:  0.1000E-04
  Convergence accuracy of forces:  0.1000E-03
  Maximum number of s.-c. iterations  :  1000
  Fitting ESP-charges to Potential. 
  | Esp charge output options: 
  | ESP Grid method: 3, cubic grid
  | Number of points in x, ,y, z:  0080 0080 0080
  |
 
  Reading configuration options for species H                   .
  | Found nuclear charge :   1.0000
  | Found atomic mass :    1.00794000000000      amu
  | Found l_max for Hartree potential  :   6
  | Found cutoff potl. onset [A], width [A], scale factor :    4.00000    2.00000    1.00000
  | Threshold for basis-dependent cutoff potential is   0.100000E-03
  | Found data for basic radial integration grid :    24 points, outermost radius =    7.000 A
  | Found multiplier for basic radial grid :   2
  | Found angular grid specification: user-specified.
  | Specified grid contains     6 separate shells.
  | Check grid settings after all constraints further below.
  | Found free-atom valence shell :  1 s   1.000
  | No ionic wave fns used. Skipping ion_occ.
  | Found hydrogenic basis function :  2 s   2.100
  | Found hydrogenic basis function :  2 p   3.500
  | Found hydrogenic basis function :  1 s   0.850
  | Found hydrogenic basis function :  2 p   3.700
  | Found hydrogenic basis function :  2 s   1.200
  | Found hydrogenic basis function :  3 d   7.000
  Species H                   : Missing cutoff potential type.
  Defaulting to exp(1/x)/(1-x)^2 type cutoff potential.
  Species H : No 'logarithmic' tag. Using default grid for free atom:
  | Default logarithmic grid data [bohr] : 0.1000E-03 0.1000E+03 0.1012E+01
  Species H : On-site basis accuracy parameter (for Gram-Schmidt orthonormalisation) not specified.
  Using default value basis_acc =  0.1000000E-03.
  Species H                   : Using default innermost maximum threshold i_radial=  2 for radial functions.
  Species H                   : Default cutoff onset for free atom density etc. : 0.40000000E+01 AA.
  Species H                   : Basic radial grid will be enhanced according to radial_multiplier =   2, to contain    49 grid points.
 
  Reading configuration options for species C                   .
  | Found nuclear charge :   6.0000
  | Found atomic mass :    12.0107000000000      amu
  | Found l_max for Hartree potential  :   6
  | Found cutoff potl. onset [A], width [A], scale factor :    4.00000    2.00000    1.00000
  | Threshold for basis-dependent cutoff potential is   0.100000E-03
  | Found data for basic radial integration grid :    34 points, outermost radius =    7.000 A
  | Found multiplier for basic radial grid :   2
  | Found angular grid specification: user-specified.
  | Specified grid contains     6 separate shells.
  | Check grid settings after all constraints further below.
  | Found free-atom valence shell :  2 s   2.000
  | Found free-atom valence shell :  2 p   2.000
  | No ionic wave fns used. Skipping ion_occ.
  | No ionic wave fns used. Skipping ion_occ.
  | Found hydrogenic basis function :  2 p   1.700
  | Found hydrogenic basis function :  3 d   6.000
  | Found hydrogenic basis function :  2 s   4.900
  | Found hydrogenic basis function :  4 f   9.800
  | Found hydrogenic basis function :  3 p   5.200
  | Found hydrogenic basis function :  3 s   4.300
  | Found hydrogenic basis function :  5 g  14.400
  | Found hydrogenic basis function :  3 d   6.200
  Species C                   : Missing cutoff potential type.
  Defaulting to exp(1/x)/(1-x)^2 type cutoff potential.
  Species C : No 'logarithmic' tag. Using default grid for free atom:
  | Default logarithmic grid data [bohr] : 0.1000E-03 0.1000E+03 0.1012E+01
  Species C : On-site basis accuracy parameter (for Gram-Schmidt orthonormalisation) not specified.
  Using default value basis_acc =  0.1000000E-03.
  Species C                   : Using default innermost maximum threshold i_radial=  2 for radial functions.
  Species C                   : Default cutoff onset for free atom density etc. : 0.40000000E+01 AA.
  Species C                   : Basic radial grid will be enhanced according to radial_multiplier =   2, to contain    69 grid points.
 
  Reading configuration options for species N                   .
  | Found nuclear charge :   7.0000
  | Found atomic mass :    14.0067000000000      amu
  | Found l_max for Hartree potential  :   6
  | Found cutoff potl. onset [A], width [A], scale factor :    4.00000    2.00000    1.00000
  | Threshold for basis-dependent cutoff potential is   0.100000E-03
  | Found data for basic radial integration grid :    35 points, outermost radius =    7.000 A
  | Found multiplier for basic radial grid :   2
  | Found angular grid specification: user-specified.
  | Specified grid contains     6 separate shells.
  | Check grid settings after all constraints further below.
  | Found free-atom valence shell :  2 s   2.000
  | Found free-atom valence shell :  2 p   3.000
  | No ionic wave fns used. Skipping ion_occ.
  | No ionic wave fns used. Skipping ion_occ.
  | Found hydrogenic basis function :  2 p   1.800
  | Found hydrogenic basis function :  3 d   6.800
  | Found hydrogenic basis function :  3 s   5.800
  | Found hydrogenic basis function :  4 f  10.800
  | Found hydrogenic basis function :  3 p   5.800
  | Found hydrogenic basis function :  1 s   0.800
  | Found hydrogenic basis function :  5 g  16.000
  | Found hydrogenic basis function :  3 d   4.900
  Species N                   : Missing cutoff potential type.
  Defaulting to exp(1/x)/(1-x)^2 type cutoff potential.
  Species N : No 'logarithmic' tag. Using default grid for free atom:
  | Default logarithmic grid data [bohr] : 0.1000E-03 0.1000E+03 0.1012E+01
  Species N : On-site basis accuracy parameter (for Gram-Schmidt orthonormalisation) not specified.
  Using default value basis_acc =  0.1000000E-03.
  Species N                   : Using default innermost maximum threshold i_radial=  2 for radial functions.
  Species N                   : Default cutoff onset for free atom density etc. : 0.40000000E+01 AA.
  Species N                   : Basic radial grid will be enhanced according to radial_multiplier =   2, to contain    71 grid points.
 
  Reading configuration options for species O                   .
  | Found nuclear charge :   8.0000
  | Found atomic mass :    15.9994000000000      amu
  | Found l_max for Hartree potential  :   6
  | Found cutoff potl. onset [A], width [A], scale factor :    4.00000    2.00000    1.00000
  | Threshold for basis-dependent cutoff potential is   0.100000E-03
  | Found data for basic radial integration grid :    36 points, outermost radius =    7.000 A
  | Found multiplier for basic radial grid :   2
  | Found angular grid specification: user-specified.
  | Specified grid contains     6 separate shells.
  | Check grid settings after all constraints further below.
  | Found free-atom valence shell :  2 s   2.000
  | Found free-atom valence shell :  2 p   4.000
  | No ionic wave fns used. Skipping ion_occ.
  | No ionic wave fns used. Skipping ion_occ.
  | Found hydrogenic basis function :  2 p   1.800
  | Found hydrogenic basis function :  3 d   7.600
  | Found hydrogenic basis function :  3 s   6.400
  | Found hydrogenic basis function :  4 f  11.600
  | Found hydrogenic basis function :  3 p   6.200
  | Found hydrogenic basis function :  3 d   5.600
  | Found hydrogenic basis function :  5 g  17.600
  | Found hydrogenic basis function :  1 s   0.750
  Species O                   : Missing cutoff potential type.
  Defaulting to exp(1/x)/(1-x)^2 type cutoff potential.
  Species O : No 'logarithmic' tag. Using default grid for free atom:
  | Default logarithmic grid data [bohr] : 0.1000E-03 0.1000E+03 0.1012E+01
  Species O : On-site basis accuracy parameter (for Gram-Schmidt orthonormalisation) not specified.
  Using default value basis_acc =  0.1000000E-03.
  Species O                   : Using default innermost maximum threshold i_radial=  2 for radial functions.
  Species O                   : Default cutoff onset for free atom density etc. : 0.40000000E+01 AA.
  Species O                   : Basic radial grid will be enhanced according to radial_multiplier =   2, to contain    73 grid points.
 
  Finished reading input file 'control.in'. Consistency checks are next.
 
  Target number of points in a grid batch is not set. Defaulting to  100
  Method for grid partitioning is not set. Defaulting to parallel hash+maxmin partitioning.
  Batch size limit is not set. Defaulting to    200
  By default, will store active basis functions for each batch.
  If in need of memory, prune_basis_once .false. can be used to disable this option.
  communication_type for Hartree potential was not specified.
  Defaulting to calc_hartree .
  Pulay mixer: Number of initial linear mixing iterations not set.
  Defaulting to    0 iterations.
  Work space size for distributed Hartree potential not set.
  Defaulting to   0.200000E+03 MB.
  Algorithm-dependent basis array size parameters:
  | n_max_pulay                         :       10
  Geometry relaxation not requested: no relaxation will be performed.
  Handling of forces: Unphysical translation and rotation will be removed from forces.
  No accuracy limit for integral partition fn. given. Defaulting to  0.1000E-14.
  No threshold value for u(r) in integrations given. Defaulting to  0.1000E-05.
  No accuracy for occupation numbers given. Defaulting to  0.1000E-07.
  No threshold value for occupation numbers given. Defaulting to  0.0000E+00.
  No accuracy for fermi level given. Defaulting to  0.1000E-19.
  Maximum # of iterations to find E_F not set. Defaulting to  200.
  Preferred method for the eigenvalue solver ('KS_method') not specified in 'control.in'.
  Calling blacs routine to test compilation state
  Since scalapack support is enabled, defaulting to 'elpa'.
  Preferred method for the MBD eigenvalue solver ('mbd_eigensolver') not specified in 'control.in'.
  Calling blacs routine to test compilation state
  Since scalapack support is enabled, defaulting to 'scaLAPACK'.
  Will not use alltoall communication since running on < 1024 CPUs.
  Threshold for basis singularities not set.
  Default threshold for basis singularities:  0.1000E-04
  partition_type (choice of integration weights) for integrals was not specified.
  | Using a version of the partition function of Stratmann and coworkers ('stratmann_smoother').
  | At each grid point, the set of atoms used to build the partition table is smoothly restricted to
  | only those atoms whose free-atom density would be non-zero at that grid point.
  Partitioning for Hartree potential was not defined. Using partition_type for integrals.
  | Adjusted default value of keyword multip_moments_threshold to:       0.10000000E-11
  | This value may affect high angular momentum components of the Hartree potential in periodic systems.
  No q(lm)/r^(l+1) cutoff set for long-range Hartree potential.
  | Using default value of  0.100000E-09 .
  | Verify using the multipole_threshold keyword.
  Defaulting to new monopole extrapolation.
  Density update method: automatic selection selected.
------------------------------------------------------------


------------------------------------------------------------
          Reading geometry description geometry.in.
------------------------------------------------------------
 * Warning! You did not set the 'relativistic' flag in input file 'control.in'.
 * Since you are not attempting to treat any elements beyond Ca(Z=20), FHI-aims
 * will default to 'relativistic none'.
 * You must ensure that this is really what you want!!
 * For example, DO NOT compute total-energy differences between results from
 * different settings of the 'relativistic' flag.
  Input structure read successfully.
  The structure contains       32 atoms,  and a total of        116.000 electrons.

  Input geometry:
  | No unit cell requested.
  | Atomic structure:
  |       Atom                x [A]            y [A]            z [A]
  |    1: Species C             -0.802609         0.906006         0.348330
  |    2: Species C             -0.945573         0.244062         1.706160
  |    3: Species O             -1.813621        -0.597377         1.940181
  |    4: Species H              0.007144         1.644447         0.300359
  |    5: Species H             -1.750978         1.395630         0.094546
  |    6: Species H             -0.623778         0.128839        -0.405310
  |    7: Species N             -0.044838         0.644424         2.650830
  |    8: Species C             -0.067173         0.120668         4.003412
  |    9: Species C              0.476448         1.218654         4.920790
  |   10: Species O              1.377247         1.963522         4.532861
  |   11: Species H              0.656518         1.354676         2.461038
  |   12: Species H             -1.113796        -0.124587         4.230738
  |   13: Species C              0.795740        -1.149372         4.139058
  |   14: Species H              0.796833        -1.529786         5.168297
  |   15: Species H              1.831567        -0.928394         3.851583
  |   16: Species H              0.397676        -1.927558         3.477129
  |   17: Species N             -0.013629         1.317062         6.198271
  |   18: Species C             -1.299244         0.829243         6.731774
  |   19: Species C             -1.656520         1.608078         8.013618
  |   20: Species O             -2.798674         2.002090         8.216425
  |   21: Species H              0.369881         2.136372         6.666457
  |   22: Species H             -2.113772         1.067762         6.032749
  |   23: Species C             -1.325316        -0.675245         7.044725
  |   24: Species H             -2.260276        -0.920892         7.564388
  |   25: Species H             -0.480640        -0.961981         7.685457
  |   26: Species H             -1.285506        -1.279972         6.132199
  |   27: Species N             -0.624676         1.790120         8.893812
  |   28: Species C             -0.810777         2.428938        10.185192
  |   29: Species H              0.254008         1.316607         8.712760
  |   30: Species H              0.003066         3.137554        10.383862
  |   31: Species H             -0.852151         1.692434        11.001313
  |   32: Species H             -1.763369         2.967692        10.156455
  |

  | The smallest distance between any two atoms is         1.01443660 AA.
  |
  | The first atom of this pair is atom number                     27 .
  | The second atom of this pair is atom number                    29 .

  Number of empty states per atom not set in control.in - providing a guess from actual geometry.
  | Total number of empty states used during s.c.f. cycle:       71
  If you use a very high smearing, use empty_states (per atom!) in control.in to increase this value.

  Structure-dependent array size parameters: 
  | Maximum number of distinct radial functions  :       40
  | Maximum number of basis functions            :      840
  | Number of Kohn-Sham states (occupied + empty):      129
------------------------------------------------------------

------------------------------------------------------------
          Preparing all fixed parts of the calculation.
------------------------------------------------------------
  Determining machine precision:
    2.225073858507201E-308
  Setting up grids for atomic and cluster calculations.

  Creating wave function, potential, and density for free atoms.

  Species: H

  List of occupied orbitals and eigenvalues:
    n    l              occ      energy [Ha]    energy [eV]
    1    0           1.0000        -0.238382        -6.4867


  Species: C

  List of occupied orbitals and eigenvalues:
    n    l              occ      energy [Ha]    energy [eV]
    1    0           2.0000       -10.041232      -273.2358
    2    0           2.0000        -0.504327       -13.7234
    2    1           2.0000        -0.193750        -5.2722


  Species: N

  List of occupied orbitals and eigenvalues:
    n    l              occ      energy [Ha]    energy [eV]
    1    0           2.0000       -14.129007      -384.4699
    2    0           2.0000        -0.681802       -18.5528
    2    1           3.0000        -0.260543        -7.0897


  Species: O

  List of occupied orbitals and eigenvalues:
    n    l              occ      energy [Ha]    energy [eV]
    1    0           2.0000       -18.898576      -514.2564
    2    0           2.0000        -0.878795       -23.9132
    2    1           4.0000        -0.332075        -9.0362

  Creating fixed part of basis set: Ionic, confined, hydrogenic.
 
  H                    hydrogenic:
 
  List of hydrogenic basis orbitals: 
    n    l      effective z      eigenvalue [eV]  inner max. [A]     outer max. [A]     outer radius [A]   
    2    0         2.100000       -14.9965           0.193243           1.317208           5.373006
    2    1         3.500000       -41.6672           0.602369           0.602369           4.056063
    1    0         0.850000        -9.8292           0.624871           0.624871           5.373006
    2    1         3.700000       -46.5653           0.573622           0.573622           3.910002
    2    0         1.200000        -4.5995           0.334980           2.228188           5.505995
    3    2         7.000000       -74.0753           0.680699           0.680699           3.769201
 
 
  C                    hydrogenic:
 
  List of hydrogenic basis orbitals: 
    n    l      effective z      eigenvalue [eV]  inner max. [A]     outer max. [A]     outer radius [A]   
    2    1         1.700000        -9.8152           1.245706           1.245706           5.401630
    3    2         6.000000       -54.4226           0.792453           0.792453           4.178599
    2    0         4.900000       -81.6681           0.082559           0.562749           3.353238
    4    3         9.800000       -81.6681           0.863254           0.863254           4.028125
    3    1         5.200000       -40.8774           0.305389           1.215618           4.898362
    3    0         4.300000       -27.9508           0.091041           1.610311           5.401630
    5    4        14.400000      -112.8510           0.917666           0.917666           3.883070
    3    2         6.200000       -58.1113           0.763917           0.763917           4.077671
 
 
  N                    hydrogenic:
 
  List of hydrogenic basis orbitals: 
    n    l      effective z      eigenvalue [eV]  inner max. [A]     outer max. [A]     outer radius [A]   
    2    1         1.800000       -11.0118           1.177451           1.177451           5.427479
    3    2         6.800000       -69.9029           0.704619           0.704619           3.854246
    3    0         5.800000       -50.8549           0.067388           1.191934           4.629968
    4    3        10.800000       -99.1854           0.786571           0.786571           3.761152
    3    1         5.800000       -50.8549           0.274880           1.094176           4.518138
    1    0         0.800000        -8.7059           0.662839           0.662839           5.361532
    5    4        16.000000      -139.3222           0.825990           0.825990           3.625711
    3    2         4.900000       -36.2967           0.968267           0.968267           4.862000
 
 
  O                    hydrogenic:
 
  List of hydrogenic basis orbitals: 
    n    l      effective z      eigenvalue [eV]  inner max. [A]     outer max. [A]     outer radius [A]   
    2    1         1.800000       -11.0118           1.178562           1.178562           5.432602
    3    2         7.600000       -87.3182           0.624125           0.624125           3.541477
    3    0         6.400000       -61.9209           0.061167           1.081902           4.306578
    4    3        11.600000      -114.4238           0.731631           0.731631           3.585037
    3    1         6.200000       -58.1113           0.255680           1.030270           4.306578
    3    2         5.600000       -47.4081           0.847233           0.847233           4.413171
    5    4        17.600000      -168.5799           0.749740           0.749740           3.372465
    1    0         0.750000        -7.6499           0.705284           0.705284           5.366593
 

  Adding cutoff potential to free-atom effective potential.
  Creating atomic-like basis functions for current effective potential.

  Species H                   :

  List of atomic basis orbitals and eigenvalues:
    n    l      energy [Ha]    energy [eV]    outer radius [A]
    1    0        -0.238382        -6.4867       5.373006


  Species C                   :

  List of atomic basis orbitals and eigenvalues:
    n    l      energy [Ha]    energy [eV]    outer radius [A]
    1    0       -10.041232      -273.2358       1.934409
    2    0        -0.504327       -13.7234       5.271162
    2    1        -0.193750        -5.2722       5.401630


  Species N                   :

  List of atomic basis orbitals and eigenvalues:
    n    l      energy [Ha]    energy [eV]    outer radius [A]
    1    0       -14.129007      -384.4699       1.637919
    2    0        -0.681802       -18.5528       5.168461
    2    1        -0.260543        -7.0897       5.361532


  Species O                   :

  List of atomic basis orbitals and eigenvalues:
    n    l      energy [Ha]    energy [eV]    outer radius [A]
    1    0       -18.898576      -514.2564       1.415765
    2    0        -0.878795       -23.9132       5.048385
    2    1        -0.332075        -9.0362       5.301386

  Assembling full basis from fixed parts.
  | Species H :   atomic orbital   1 s accepted.
  | Species H :    hydro orbital   2 s accepted.
  | Species H :    hydro orbital   1 s accepted.
  | Species H :    hydro orbital   2 s accepted.
  | Species H :    hydro orbital   2 p accepted.
  | Species H :    hydro orbital   2 p accepted.
  | Species H :    hydro orbital   3 d accepted.
  | Species C :   atomic orbital   1 s accepted.
  | Species C :    hydro orbital   2 s accepted.
  | Species C :   atomic orbital   2 s accepted.
  | Species C :    hydro orbital   3 s accepted.
  | Species C :    hydro orbital   3 p accepted.
  | Species C :   atomic orbital   2 p accepted.
  | Species C :    hydro orbital   2 p accepted.
  | Species C :    hydro orbital   3 d accepted.
  | Species C :    hydro orbital   3 d accepted.
  | Species C :    hydro orbital   4 f accepted.
  | Species C :    hydro orbital   5 g accepted.
  | Species N :   atomic orbital   1 s accepted.
  | Species N :    hydro orbital   3 s accepted.
  | Species N :   atomic orbital   2 s accepted.
  | Species N :    hydro orbital   1 s accepted.
  | Species N :    hydro orbital   3 p accepted.
  | Species N :   atomic orbital   2 p accepted.
  | Species N :    hydro orbital   2 p accepted.
  | Species N :    hydro orbital   3 d accepted.
  | Species N :    hydro orbital   3 d accepted.
  | Species N :    hydro orbital   4 f accepted.
  | Species N :    hydro orbital   5 g accepted.
  | Species O :   atomic orbital   1 s accepted.
  | Species O :    hydro orbital   3 s accepted.
  | Species O :   atomic orbital   2 s accepted.
  | Species O :    hydro orbital   1 s accepted.
  | Species O :    hydro orbital   3 p accepted.
  | Species O :   atomic orbital   2 p accepted.
  | Species O :    hydro orbital   2 p accepted.
  | Species O :    hydro orbital   3 d accepted.
  | Species O :    hydro orbital   3 d accepted.
  | Species O :    hydro orbital   4 f accepted.
  | Species O :    hydro orbital   5 g accepted.
 
  Basis size parameters after reduction:
  | Total number of radial functions:       40
  | Total number of basis functions :      840
 
  Testing on-site integration grid accuracy.
  |  Species  Function  <phi|h_atom|phi> (log., in eV)  <phi|h_atom|phi> (rad., in eV)
           1        1                 -6.4869821809                 -6.4870742227
           1        2                 13.5044133542                 13.5041049177
           1        3                 32.7854418792                 32.7779770519
           1        4                 33.7995553101                 33.7152624900 ***
           1        5                 28.8558651799                 28.8558652046
           1        6                 59.6361831893                 59.6362535845
           1        7                 60.2733718049                 60.2733715484
           2        8               -273.2358277112               -273.2358261765
           2        9                -10.7624923123                -10.7625144012
           2       10                 17.4634079027                 17.4634252127
           2       11                 53.0363661832                 53.0366180446
           2       12                 15.0981351967                 15.0981317714
           2       13                  3.8522181899                  3.8522770949
           2       14                 12.1181835661                 12.1206868578
           2       15                 29.4320778347                 29.4320780959
           2       16                 54.8753777694                 54.8752901936
           2       17                 59.3533975461                 59.3533974833
           2       18                 93.4537491195                 93.4537492066
           3       19               -384.4698526889               -384.4698499465
           3       20                 12.5691022037                 12.5690910168
           3       21                -15.7489097511                -15.7489165588
           3       22                 27.0978334940                 27.0985589490
           3       23                 18.5949116966                 18.5949125562
           3       24                  1.2212828291                  1.2212855301
           3       25                 13.4428926797                 13.4434051125
           3       26                 35.9380614500                 35.9380613666
           3       27                 39.9231532098                 39.9231654735
           3       28                 72.9957335806                 72.9957336833
           3       29                116.4231321147                116.4231321431
           4       30               -514.2564144315               -514.2564099626
           4       31                 15.1726678541                 15.1726530877
           4       32                -21.5447785304                -21.5447874973
           4       33                 14.4944558459                 14.4944698284
           4       34                 20.8882174564                 20.8882178906
           4       35                 -2.4850315908                 -2.4850322289
           4       36                 13.8600193195                 13.8599826966
           4       37                 45.8243383616                 45.8243383675
           4       38                 52.1840606465                 52.1840622440
           4       39                 85.4074185510                 85.4074185819
           4       40                142.0983717302                142.0983717339
 * Note: Onsite integrals marked "***" above are less accurate than
 * onsite_accuracy_threshold =    0.03000 eV. Usually, this is harmless.
 * When in doubt, tighten the "radial" and/or "radial_multiplier" flags to check.

  Preparing densities etc. for the partition functions (integrals / Hartree potential).

  Preparations completed.
  max(cpu_time)          :      0.240 s.
  Wall clock time (cpu1) :      0.238 s.
------------------------------------------------------------

------------------------------------------------------------
          Begin self-consistency loop: Initialization.

          Date     :  20170309, Time     :  160742.016
------------------------------------------------------------

  Initializing index lists of integration centers etc. from given atomic structure:
  | Number of centers in hartree potential         :        32
  | Number of centers in hartree multipole         :        32
  | Number of centers in electron density summation:        32
  | Number of centers in basis integrals           :        32
  | Number of centers in integrals                 :        32
  | Number of centers in hamiltonian               :        32
  Using modified Scalapack Eigenvalue solver (ELPA)
  * Using 32 tasks for Scalapack Eigenvalue solver.
  Detailed listing of tasks and assigned k-points:
  (for non-periodic systems, the "k-point" denotes an internal label only)
   Task     0 k-point     1 on eos232
   Task     1 k-point     1 on eos232
   Task     2 k-point     1 on eos232
   Task     3 k-point     1 on eos232
   Task     4 k-point     1 on eos232
   Task     5 k-point     1 on eos232
   Task     6 k-point     1 on eos232
   Task     7 k-point     1 on eos232
   Task     8 k-point     1 on eos232
   Task     9 k-point     1 on eos232
   Task    10 k-point     1 on eos232
   Task    11 k-point     1 on eos232
   Task    12 k-point     1 on eos232
   Task    13 k-point     1 on eos232
   Task    14 k-point     1 on eos232
   Task    15 k-point     1 on eos232
   Task    16 k-point     1 on eos232
   Task    17 k-point     1 on eos232
   Task    18 k-point     1 on eos232
   Task    19 k-point     1 on eos232
   Task    20 k-point     1 on eos232
   Task    21 k-point     1 on eos232
   Task    22 k-point     1 on eos232
   Task    23 k-point     1 on eos232
   Task    24 k-point     1 on eos232
   Task    25 k-point     1 on eos232
   Task    26 k-point     1 on eos232
   Task    27 k-point     1 on eos232
   Task    28 k-point     1 on eos232
   Task    29 k-point     1 on eos232
   Task    30 k-point     1 on eos232
   Task    31 k-point     1 on eos232
  Tasks:    32 split into      8 X      4 BLACS grid
  Calculating blocksize based on n_basis =          840 max_nprow =            8 max_npcol =            4
  Scalapack blocksize set to:           16
  Required Scalapack workspace - INTEGER:            1 REAL:             1
  Partitioning the integration grid into batches with parallel hashing+maxmin method.
  | Number of batches:     5176
  | Maximal batch size:     200
  | Minimal batch size:      40
  | Average batch size:     101.957
  | Standard deviation of batch sizes:      31.785

  Integration load balanced across    32 MPI tasks.
  Work distribution over tasks is as follows:
  Task     0 has      16445 integration points.
  Task     1 has      16501 integration points.
  Task     2 has      16498 integration points.
  Task     3 has      16514 integration points.
  Task     4 has      16504 integration points.
  Task     5 has      16478 integration points.
  Task     6 has      16474 integration points.
  Task     7 has      16480 integration points.
  Task     8 has      16466 integration points.
  Task     9 has      16474 integration points.
  Task    10 has      16485 integration points.
  Task    11 has      16506 integration points.
  Task    12 has      16479 integration points.
  Task    13 has      16516 integration points.
  Task    14 has      16439 integration points.
  Task    15 has      16429 integration points.
  Task    16 has      16536 integration points.
  Task    17 has      16438 integration points.
  Task    18 has      16519 integration points.
  Task    19 has      16474 integration points.
  Task    20 has      16511 integration points.
  Task    21 has      16472 integration points.
  Task    22 has      16473 integration points.
  Task    23 has      16513 integration points.
  Task    24 has      16532 integration points.
  Task    25 has      16471 integration points.
  Task    26 has      16482 integration points.
  Task    27 has      16560 integration points.
  Task    28 has      16556 integration points.
  Task    29 has      16522 integration points.
  Task    30 has      16471 integration points.
  Task    31 has      16510 integration points.
  Initializing partition tables, free-atom densities, potentials, etc. across the integration grid (initialize_grid_storage).
  | initialize_grid_storage: Actual outermost partition radius vs. multipole_radius_free
  | (-- VB: in principle, multipole_radius_free should be larger, hence this output)
  | Species        1: Confinement radius =              6.000000000000000 AA, multipole_radius_free =              6.071692442739658 AA.
  | Species        1: outer_partition_radius set to              6.071692442739658 AA .
  | Species        2: Confinement radius =              6.000000000000000 AA, multipole_radius_free =              6.029870734432609 AA.
  | Species        2: outer_partition_radius set to              6.029870734432609 AA .
  | Species        3: Confinement radius =              6.000000000000000 AA, multipole_radius_free =              6.058726835495003 AA.
  | Species        3: outer_partition_radius set to              6.058726835495003 AA .
  | Species        4: Confinement radius =              6.000000000000000 AA, multipole_radius_free =              6.064445521808699 AA.
  | Species        4: outer_partition_radius set to              6.064445521808699 AA .
  | Original list of interatomic distances with          32 x         32 entries is created.
  | Net number of integration points:   527728
  | of which are non-zero points    :   417001
  Obtaining max. number of non-zero basis functions in each batch (get_n_compute_maxes).
  | Maximal number of non-zero basis functions:      680 in task     0
  | Maximal number of non-zero basis functions:      696 in task     1
  | Maximal number of non-zero basis functions:      696 in task     2
  | Maximal number of non-zero basis functions:      691 in task     3
  | Maximal number of non-zero basis functions:      687 in task     4
  | Maximal number of non-zero basis functions:      691 in task     5
  | Maximal number of non-zero basis functions:      670 in task     6
  | Maximal number of non-zero basis functions:      696 in task     7
  | Maximal number of non-zero basis functions:      682 in task     8
  | Maximal number of non-zero basis functions:      703 in task     9
  | Maximal number of non-zero basis functions:      679 in task    10
  | Maximal number of non-zero basis functions:      690 in task    11
  | Maximal number of non-zero basis functions:      696 in task    12
  | Maximal number of non-zero basis functions:      679 in task    13
  | Maximal number of non-zero basis functions:      687 in task    14
  | Maximal number of non-zero basis functions:      705 in task    15
  | Maximal number of non-zero basis functions:      703 in task    16
  | Maximal number of non-zero basis functions:      705 in task    17
  | Maximal number of non-zero basis functions:      683 in task    18
  | Maximal number of non-zero basis functions:      687 in task    19
  | Maximal number of non-zero basis functions:      710 in task    20
  | Maximal number of non-zero basis functions:      680 in task    21
  | Maximal number of non-zero basis functions:      701 in task    22
  | Maximal number of non-zero basis functions:      691 in task    23
  | Maximal number of non-zero basis functions:      684 in task    24
  | Maximal number of non-zero basis functions:      683 in task    25
  | Maximal number of non-zero basis functions:      672 in task    26
  | Maximal number of non-zero basis functions:      671 in task    27
  | Maximal number of non-zero basis functions:      691 in task    28
  | Maximal number of non-zero basis functions:      674 in task    29
  | Maximal number of non-zero basis functions:      688 in task    30
  | Maximal number of non-zero basis functions:      690 in task    31
  Selecting the method for density update.
  Loop over occupied states selected for charge density update.
  Integrating Hamiltonian matrix: batch-based integration.
  Time summed over all CPUs for integration: real work       19.550 s, elapsed       20.234 s
  Integrating overlap matrix.
  Time summed over all CPUs for integration: real work       11.742 s, elapsed       12.110 s
  Deallocating overlap matrix.

  Updating Kohn-Sham eigenvalues, eigenvectors, occupation numbers, and Fermi level.
  Solving generalized eigenproblem
  Solving real symmetric generalised eigenvalue problem by standard ScaLAPACK.
  Transforming overlap matrix with ScaLAPACK and checking for singularities.
  : Overlap matrix is nonsingular, using Cholesky decomposition
  | Lowest eigenvalue:  0.893763E-04
  Factoring overlap matrix with Cholesky decomposition
  Using Cholesky factor for transformation
  Using 1-stage real ELPA solver
  Determining occupation numbers for Kohn-Sham eigenstates.
  | Chemical potential (Fermi level) in eV                 : -.95450301E+01
  | Error in electron count due to remaining E_F inaccuracy: 0.00000000E+00
  | Maximum occupation number of highest empty state:  0.00E+00

  Writing Kohn-Sham eigenvalues.

  State    Occupation    Eigenvalue [Ha]    Eigenvalue [eV]
      1       2.00000         -18.975238         -516.34249
      2       2.00000         -18.973827         -516.30409
      3       2.00000         -18.973447         -516.29377
      4       2.00000         -14.255962         -387.92446
      5       2.00000         -14.255214         -387.90411
      6       2.00000         -14.251147         -387.79343
      7       2.00000         -10.170869         -276.76342
      8       2.00000         -10.170642         -276.75726
      9       2.00000         -10.170186         -276.74485
     10       2.00000         -10.166776         -276.65204
     11       2.00000         -10.149946         -276.19407
     12       2.00000         -10.147156         -276.11817
     13       2.00000         -10.136357         -275.82431
     14       2.00000         -10.135198         -275.79277
     15       2.00000         -10.134522         -275.77438
     16       2.00000          -1.134572          -30.87326
     17       2.00000          -1.132815          -30.82545
     18       2.00000          -1.128338          -30.70364
     19       2.00000          -1.019726          -27.74816
     20       2.00000          -1.016092          -27.64928
     21       2.00000          -1.001813          -27.26073
     22       2.00000          -0.885890          -24.10631
     23       2.00000          -0.879091          -23.92129
     24       2.00000          -0.841591          -22.90085
     25       2.00000          -0.818701          -22.27798
     26       2.00000          -0.773196          -21.03974
     27       2.00000          -0.759657          -20.67131
     28       2.00000          -0.697159          -18.97066
     29       2.00000          -0.687552          -18.70925
     30       2.00000          -0.681380          -18.54130
     31       2.00000          -0.647672          -17.62406
     32       2.00000          -0.628747          -17.10909
     33       2.00000          -0.605286          -16.47066
     34       2.00000          -0.597127          -16.24864
     35       2.00000          -0.586203          -15.95139
     36       2.00000          -0.576759          -15.69442
     37       2.00000          -0.573250          -15.59893
     38       2.00000          -0.565899          -15.39890
     39       2.00000          -0.556761          -15.15023
     40       2.00000          -0.555563          -15.11765
     41       2.00000          -0.549125          -14.94244
     42       2.00000          -0.547203          -14.89015
     43       2.00000          -0.536884          -14.60937
     44       2.00000          -0.531192          -14.45446
     45       2.00000          -0.523106          -14.23444
     46       2.00000          -0.513295          -13.96746
     47       2.00000          -0.507082          -13.79841
     48       2.00000          -0.502357          -13.66984
     49       2.00000          -0.491220          -13.36677
     50       2.00000          -0.489024          -13.30701
     51       2.00000          -0.480208          -13.06713
     52       2.00000          -0.474072          -12.90016
     53       2.00000          -0.411309          -11.19230
     54       2.00000          -0.403314          -10.97472
     55       2.00000          -0.397799          -10.82466
     56       2.00000          -0.390706          -10.63166
     57       2.00000          -0.385719          -10.49596
     58       2.00000          -0.383171          -10.42662
     59       0.00000          -0.174185           -4.73980
     60       0.00000          -0.158680           -4.31791
     61       0.00000          -0.150387           -4.09225
     62       0.00000          -0.080350           -2.18643
     63       0.00000          -0.065919           -1.79375
     64       0.00000          -0.059099           -1.60815
     65       0.00000          -0.053132           -1.44580
     66       0.00000          -0.043705           -1.18928
     67       0.00000          -0.039470           -1.07404
     68       0.00000          -0.033539           -0.91263
     69       0.00000          -0.029461           -0.80169
     70       0.00000          -0.027594           -0.75087
     71       0.00000          -0.022411           -0.60983
     72       0.00000          -0.014332           -0.38999
     73       0.00000          -0.013735           -0.37375
     74       0.00000          -0.006723           -0.18295
     75       0.00000          -0.003981           -0.10833
     76       0.00000           0.002044            0.05561
     77       0.00000           0.005437            0.14795
     78       0.00000           0.006041            0.16440
     79       0.00000           0.007616            0.20723
     80       0.00000           0.009078            0.24701
     81       0.00000           0.014758            0.40159
     82       0.00000           0.021086            0.57377
     83       0.00000           0.031214            0.84939
     84       0.00000           0.036671            0.99786
     85       0.00000           0.044196            1.20265
     86       0.00000           0.052495            1.42847
     87       0.00000           0.056559            1.53905
     88       0.00000           0.057861            1.57449
     89       0.00000           0.062751            1.70754
     90       0.00000           0.065003            1.76883
     91       0.00000           0.075835            2.06356
     92       0.00000           0.079306            2.15803
     93       0.00000           0.086098            2.34284
     94       0.00000           0.090343            2.45835
     95       0.00000           0.097004            2.63962
     96       0.00000           0.098188            2.67183
     97       0.00000           0.109484            2.97922
     98       0.00000           0.113288            3.08272
     99       0.00000           0.121678            3.31102
    100       0.00000           0.124305            3.38251
    101       0.00000           0.127306            3.46418
    102       0.00000           0.133937            3.64460
    103       0.00000           0.136813            3.72288
    104       0.00000           0.139236            3.78881
    105       0.00000           0.148393            4.03798
    106       0.00000           0.151445            4.12103
    107       0.00000           0.156173            4.24969
    108       0.00000           0.160109            4.35679
    109       0.00000           0.163856            4.45875
    110       0.00000           0.168490            4.58483
    111       0.00000           0.175367            4.77198
    112       0.00000           0.177695            4.83534
    113       0.00000           0.180261            4.90516
    114       0.00000           0.186137            5.06505
    115       0.00000           0.193191            5.25700
    116       0.00000           0.196946            5.35918
    117       0.00000           0.205100            5.58105
    118       0.00000           0.207919            5.65777
    119       0.00000           0.212998            5.79597
    120       0.00000           0.214117            5.82643
    121       0.00000           0.220856            6.00980
    122       0.00000           0.226509            6.16361
    123       0.00000           0.230097            6.26125
    124       0.00000           0.231430            6.29752
    125       0.00000           0.236970            6.44829
    126       0.00000           0.240193            6.53599
    127       0.00000           0.249839            6.79847
    128       0.00000           0.259548            7.06266
    129       0.00000           0.268093            7.29517

  Highest occupied state (VBM) at    -10.42661853 eV
  | Occupation number:      2.00000000

  Lowest unoccupied state (CBM) at    -4.73980340 eV
  | Occupation number:      0.00000000

  Overall HOMO-LUMO gap:      5.68681513 eV.
  Calculating total energy contributions from superposition of free atom densities.

  Total energy components:
  | Sum of eigenvalues            :        -437.86822728 Ha      -11915.00069288 eV
  | XC energy correction          :         -98.81521198 Ha       -2688.89872763 eV
  | XC potential correction       :         127.01404381 Ha        3456.22798294 eV
  | Free-atom electrostatic energy:        -333.61714005 Ha       -9078.18427382 eV
  | Hartree energy correction     :           0.00000000 Ha           0.00000000 eV
  | vdW energy correction         :           0.00000000 Ha           0.00000000 eV
  | Entropy correction            :          -0.00000000 Ha          -0.00000000 eV
  | ---------------------------
  | Total energy                  :        -743.28653551 Ha      -20225.85571138 eV
  | Total energy, T -> 0          :        -743.28653551 Ha      -20225.85571138 eV  <-- do not rely on this value for anything but (periodic) metals
  | Electronic free energy        :        -743.28653551 Ha      -20225.85571138 eV

  Derived energy quantities:
  | Kinetic energy                :         735.15240031 Ha       20004.51463081 eV
  | Electrostatic energy          :       -1379.62372383 Ha      -37541.47161456 eV
  | Energy correction for multipole
  | error in Hartree potential    :           0.00000000 Ha           0.00000000 eV
  | Sum of eigenvalues per atom                           :        -372.34377165 eV
  | Total energy (T->0) per atom                          :        -632.05799098 eV  <-- do not rely on this value for anything but (periodic) metals
  | Electronic free energy per atom                       :        -632.05799098 eV
  Initialize hartree_potential_storage
  Max. number of atoms included in rho_multipole:           32

  End scf initialization - timings             :  max(cpu_time)    wall_clock(cpu1)
  | Time for scf. initialization               :        1.728 s           1.724 s
  | Boundary condition initialization          :        0.004 s           0.000 s
  | Integration                                :        1.036 s           1.035 s
  | Solution of K.-S. eqns.                    :        0.076 s           0.075 s
  | Grid partitioning                          :        0.308 s           0.301 s
  | Preloading free-atom quantities on grid    :        0.028 s           0.028 s
  | Free-atom superposition energy             :        0.040 s           0.036 s
  | Total energy evaluation                    :        0.000 s           0.001 s
------------------------------------------------------------

------------------------------------------------------------
          Begin self-consistency iteration #    1

  Date     :  20170309, Time     :  160743.741
------------------------------------------------------------
  Evaluating new KS density.
  Integration grid: deviation in total charge (<rho> - N_e) =   9.947598E-14
  Pulay mixing of updated and previous charge densities.

  Evaluating partitioned Hartree potential by multipole expansion.
  | Analytical far-field extrapolation by fixed multipoles:
  | Hartree multipole sum: apparent total charge =   0.159573E-04
  Summing up the Hartree potential.
  Time summed over all CPUs for potential: real work        9.444 s, elapsed        9.651 s
  | RMS charge density error from multipole expansion :   0.105826E-01

  Integrating Hamiltonian matrix: batch-based integration.
  Time summed over all CPUs for integration: real work       19.426 s, elapsed       20.215 s

  Updating Kohn-Sham eigenvalues, eigenvectors, occupation numbers, and Fermi level.
  Solving generalized eigenproblem
  Solving real symmetric generalised eigenvalue problem by standard ScaLAPACK.
  Using Cholesky factor for transformation
  Using 2-stage real ELPA solver
  K-Point:    1, Trafo times: 1-stage=     0.021 s, 2-stage=     0.019 s ==> Using 2-stage solver
  Determining occupation numbers for Kohn-Sham eigenstates.
  | Chemical potential (Fermi level) in eV                 : -.41107142E+01
  | Error in electron count due to remaining E_F inaccuracy: 0.00000000E+00
  | Maximum occupation number of highest empty state:  0.00E+00

  Writing Kohn-Sham eigenvalues.

  State    Occupation    Eigenvalue [Ha]    Eigenvalue [eV]
      1       2.00000         -18.636623         -507.12831
      2       2.00000         -18.620753         -506.69646
      3       2.00000         -18.602433         -506.19795
      4       2.00000         -14.008421         -381.18853
      5       2.00000         -13.998326         -380.91383
      6       2.00000         -13.979871         -380.41165
      7       2.00000         -10.069483         -274.00457
      8       2.00000         -10.060462         -273.75911
      9       2.00000         -10.042133         -273.26035
     10       2.00000          -9.978076         -271.51727
     11       2.00000          -9.957072         -270.94572
     12       2.00000          -9.887668         -269.05715
     13       2.00000          -9.847265         -267.95772
     14       2.00000          -9.842833         -267.83710
     15       2.00000          -9.833198         -267.57493
     16       2.00000          -0.980001          -26.66719
     17       2.00000          -0.966322          -26.29495
     18       2.00000          -0.947134          -25.77283
     19       2.00000          -0.883415          -24.03894
     20       2.00000          -0.863703          -23.50256
     21       2.00000          -0.856462          -23.30551
     22       2.00000          -0.743408          -20.22917
     23       2.00000          -0.733249          -19.95273
     24       2.00000          -0.683078          -18.58750
     25       2.00000          -0.676729          -18.41474
     26       2.00000          -0.634409          -17.26316
     27       2.00000          -0.623399          -16.96354
     28       2.00000          -0.569970          -15.50968
     29       2.00000          -0.565128          -15.37790
     30       2.00000          -0.552094          -15.02324
     31       2.00000          -0.522574          -14.21997
     32       2.00000          -0.499635          -13.59577
     33       2.00000          -0.470189          -12.79449
     34       2.00000          -0.457146          -12.43959
     35       2.00000          -0.441476          -12.01318
     36       2.00000          -0.435805          -11.85885
     37       2.00000          -0.432104          -11.75814
     38       2.00000          -0.426474          -11.60496
     39       2.00000          -0.418615          -11.39108
     40       2.00000          -0.406830          -11.07040
     41       2.00000          -0.400234          -10.89091
     42       2.00000          -0.393788          -10.71551
     43       2.00000          -0.391276          -10.64716
     44       2.00000          -0.379773          -10.33416
     45       2.00000          -0.371356          -10.10510
     46       2.00000          -0.365416           -9.94348
     47       2.00000          -0.361843           -9.84625
     48       2.00000          -0.356867           -9.71085
     49       2.00000          -0.355260           -9.66711
     50       2.00000          -0.346850           -9.43828
     51       2.00000          -0.342265           -9.31351
     52       2.00000          -0.322812           -8.78417
     53       2.00000          -0.253192           -6.88970
     54       2.00000          -0.241095           -6.56053
     55       2.00000          -0.236094           -6.42445
     56       2.00000          -0.221401           -6.02462
     57       2.00000          -0.216221           -5.88366
     58       2.00000          -0.200464           -5.45491
     59       0.00000          -0.066813           -1.81806
     60       0.00000          -0.046648           -1.26936
     61       0.00000          -0.040270           -1.09581
     62       0.00000          -0.030635           -0.83363
     63       0.00000          -0.020319           -0.55291
     64       0.00000          -0.011635           -0.31660
     65       0.00000          -0.004491           -0.12220
     66       0.00000          -0.003810           -0.10368
     67       0.00000           0.006998            0.19042
     68       0.00000           0.016798            0.45709
     69       0.00000           0.018116            0.49297
     70       0.00000           0.027730            0.75458
     71       0.00000           0.030850            0.83947
     72       0.00000           0.042657            1.16075
     73       0.00000           0.045458            1.23697
     74       0.00000           0.048372            1.31627
     75       0.00000           0.053984            1.46897
     76       0.00000           0.056904            1.54845
     77       0.00000           0.063990            1.74124
     78       0.00000           0.071438            1.94393
     79       0.00000           0.073418            1.99781
     80       0.00000           0.080592            2.19303
     81       0.00000           0.086225            2.34630
     82       0.00000           0.089323            2.43060
     83       0.00000           0.095556            2.60021
     84       0.00000           0.100359            2.73090
     85       0.00000           0.101609            2.76492
     86       0.00000           0.107396            2.92240
     87       0.00000           0.112374            3.05785
     88       0.00000           0.118062            3.21262
     89       0.00000           0.127940            3.48142
     90       0.00000           0.134607            3.66285
     91       0.00000           0.140468            3.82232
     92       0.00000           0.144457            3.93087
     93       0.00000           0.149570            4.07000
     94       0.00000           0.153410            4.17449
     95       0.00000           0.156099            4.24767
     96       0.00000           0.172613            4.69705
     97       0.00000           0.174894            4.75912
     98       0.00000           0.179390            4.88144
     99       0.00000           0.184390            5.01750
    100       0.00000           0.187574            5.10414
    101       0.00000           0.191349            5.20688
    102       0.00000           0.197050            5.36202
    103       0.00000           0.200606            5.45877
    104       0.00000           0.205319            5.58702
    105       0.00000           0.209166            5.69169
    106       0.00000           0.210066            5.71618
    107       0.00000           0.216848            5.90073
    108       0.00000           0.220011            5.98680
    109       0.00000           0.224038            6.09640
    110       0.00000           0.228277            6.21174
    111       0.00000           0.231187            6.29092
    112       0.00000           0.234996            6.39458
    113       0.00000           0.242393            6.59585
    114       0.00000           0.248691            6.76724
    115       0.00000           0.251770            6.85102
    116       0.00000           0.258242            7.02713
    117       0.00000           0.262897            7.15380
    118       0.00000           0.264931            7.20913
    119       0.00000           0.273776            7.44984
    120       0.00000           0.276213            7.51614
    121       0.00000           0.285284            7.76297
    122       0.00000           0.286933            7.80784
    123       0.00000           0.289471            7.87692
    124       0.00000           0.303551            8.26004
    125       0.00000           0.305885            8.32355
    126       0.00000           0.314083            8.54664
    127       0.00000           0.319612            8.69708
    128       0.00000           0.323464            8.80192
    129       0.00000           0.330733            8.99971

  Highest occupied state (VBM) at     -5.45491405 eV
  | Occupation number:      2.00000000

  Lowest unoccupied state (CBM) at    -1.81806148 eV
  | Occupation number:      0.00000000

  Overall HOMO-LUMO gap:      3.63685258 eV.

  Total energy components:
  | Sum of eigenvalues            :        -417.82034894 Ha      -11369.47016680 eV
  | XC energy correction          :        -100.75100865 Ha       -2741.57443518 eV
  | XC potential correction       :         129.52495166 Ha        3524.55326201 eV
  | Free-atom electrostatic energy:        -333.61714005 Ha       -9078.18427382 eV
  | Hartree energy correction     :         -20.05440869 Ha        -545.70822569 eV
  | vdW energy correction         :           0.00000000 Ha           0.00000000 eV
  | Entropy correction            :          -0.00000000 Ha          -0.00000000 eV
  | ---------------------------
  | Total energy                  :        -742.71795467 Ha      -20210.38383948 eV
  | Total energy, T -> 0          :        -742.71795467 Ha      -20210.38383948 eV  <-- do not rely on this value for anything but (periodic) metals
  | Electronic free energy        :        -742.71795467 Ha      -20210.38383948 eV

  Derived energy quantities:
  | Kinetic energy                :         744.03891517 Ha       20246.32900376 eV
  | Electrostatic energy          :       -1386.00586119 Ha      -37715.13840806 eV
  | Energy correction for multipole
  | error in Hartree potential    :          -0.04066842 Ha          -1.10664408 eV
  | Sum of eigenvalues per atom                           :        -355.29594271 eV
  | Total energy (T->0) per atom                          :        -631.57449498 eV  <-- do not rely on this value for anything but (periodic) metals
  | Electronic free energy per atom                       :        -631.57449498 eV

  Self-consistency convergence accuracy:
  | Change of charge density      :  0.9030E+00
  | Change of sum of eigenvalues  :  0.5455E+03 eV
  | Change of total energy        :  0.1547E+02 eV

  End self-consistency iteration #     1       :  max(cpu_time)    wall_clock(cpu1)
  | Time for this iteration                    :        1.440 s           1.436 s
  | Charge density update                      :        0.448 s           0.448 s
[...]
   ----------------------------------------------------------------
   Total forces(  20)            : -0.124816E-02  0.144350E-02 -0.874617E-03
  atom #   21
   Hellmann-Feynman              : -0.144877E-02 -0.757582E-02 -0.811432E-01
   Ionic forces                  :  0.000000E+00  0.000000E+00  0.000000E+00
   Multipole                     : -0.128528E-01 -0.197080E-01  0.374178E-01
   Pulay + GGA                   :  0.197682E-01  0.349053E-01  0.466743E-01
   Van der Waals                 : -0.359696E-02 -0.871692E-02 -0.411342E-02
   ----------------------------------------------------------------
   Total forces(  21)            :  0.186968E-02 -0.109544E-02 -0.116462E-02
  atom #   22
   Hellmann-Feynman              :  0.191306E-01  0.627636E-02  0.602934E-01
   Ionic forces                  :  0.000000E+00  0.000000E+00  0.000000E+00
   Multipole                     :  0.228566E-01 -0.187276E-01 -0.990882E-02
   Pulay + GGA                   : -0.375313E-01  0.436227E-02 -0.547599E-01
   Van der Waals                 : -0.532256E-02  0.770866E-02  0.339601E-02
   ----------------------------------------------------------------
   Total forces(  22)            : -0.866635E-03 -0.380289E-03 -0.979253E-03
  atom #   23
   Hellmann-Feynman              : -0.762073E-01 -0.105982E+01  0.205681E+00
   Ionic forces                  :  0.000000E+00  0.000000E+00  0.000000E+00
   Multipole                     : -0.279995E-01  0.328603E+00 -0.103544E+00
   Pulay + GGA                   :  0.107738E+00  0.742986E+00 -0.104705E+00
   Van der Waals                 : -0.315233E-02 -0.140850E-01  0.345993E-02
   ----------------------------------------------------------------
   Total forces(  23)            :  0.378837E-03 -0.231374E-02  0.892118E-03
  atom #   24
   Hellmann-Feynman              :  0.151723E-01  0.519742E-01 -0.220621E-01
   Ionic forces                  :  0.000000E+00  0.000000E+00  0.000000E+00
   Multipole                     :  0.216070E-01 -0.282276E-01 -0.710966E-02
   Pulay + GGA                   : -0.434670E-01 -0.234130E-01  0.294244E-01
   Van der Waals                 :  0.605349E-02 -0.307960E-03 -0.294354E-03
   ----------------------------------------------------------------
   Total forces(  24)            : -0.634158E-03  0.256553E-04 -0.417021E-04
  atom #   25
   Hellmann-Feynman              : -0.315267E-01  0.238631E-01 -0.105503E-01
   Ionic forces                  :  0.000000E+00  0.000000E+00  0.000000E+00
   Multipole                     : -0.208693E-01 -0.725424E-02 -0.163497E-01
   Pulay + GGA                   :  0.502856E-01 -0.917908E-02  0.385098E-01
   Van der Waals                 :  0.239169E-02 -0.770590E-02 -0.111936E-01
   ----------------------------------------------------------------
   Total forces(  25)            :  0.281221E-03 -0.276095E-03  0.416127E-03
  atom #   26
   Hellmann-Feynman              : -0.159998E-01  0.358874E-01  0.109461E-01
   Ionic forces                  :  0.000000E+00  0.000000E+00  0.000000E+00
   Multipole                     :  0.915211E-02 -0.727690E-02  0.291999E-01
   Pulay + GGA                   :  0.143999E-01 -0.244050E-01 -0.511113E-01
   Van der Waals                 : -0.756127E-02 -0.458971E-02  0.104630E-01
   ----------------------------------------------------------------
   Total forces(  26)            : -0.898569E-05 -0.384213E-03 -0.502252E-03
  atom #   27
   Hellmann-Feynman              :  0.173809E+00  0.747090E+00 -0.134771E+01
   Ionic forces                  :  0.000000E+00  0.000000E+00  0.000000E+00
   Multipole                     : -0.211690E+00 -0.553900E-01 -0.167300E+00
   Pulay + GGA                   :  0.404204E-01 -0.694569E+00  0.151156E+01
   Van der Waals                 : -0.131830E-02  0.216810E-02  0.384990E-02
   ----------------------------------------------------------------
   Total forces(  27)            :  0.122164E-02 -0.701680E-03  0.400922E-03
  atom #   28
   Hellmann-Feynman              : -0.585955E+00  0.123482E+01  0.203667E+01
   Ionic forces                  :  0.000000E+00  0.000000E+00  0.000000E+00
   Multipole                     :  0.416148E-01 -0.794673E-01 -0.163044E+00
   Pulay + GGA                   :  0.539337E+00 -0.114868E+01 -0.186234E+01
   Van der Waals                 :  0.568333E-02 -0.613980E-02 -0.103346E-01
   ----------------------------------------------------------------
   Total forces(  28)            :  0.679827E-03  0.538883E-03  0.947356E-03
  atom #   29
   Hellmann-Feynman              : -0.365937E-01  0.267120E-02 -0.489173E-02
   Ionic forces                  :  0.000000E+00  0.000000E+00  0.000000E+00
   Multipole                     : -0.126629E-01  0.208913E-01  0.237808E-01
   Pulay + GGA                   :  0.483192E-01 -0.240411E-01 -0.180664E-01
   Van der Waals                 :  0.164401E-02  0.813063E-03 -0.112794E-02
   ----------------------------------------------------------------
   Total forces(  29)            :  0.706625E-03  0.334474E-03 -0.305260E-03
  atom #   30
   Hellmann-Feynman              : -0.218484E-01 -0.263841E-01 -0.348408E-01
   Ionic forces                  :  0.000000E+00  0.000000E+00  0.000000E+00
   Multipole                     : -0.259981E-01 -0.124452E-01  0.193496E-01
   Pulay + GGA                   :  0.518293E-01  0.381440E-01  0.176273E-01
   Van der Waals                 : -0.341338E-02  0.111840E-02 -0.228582E-02
   ----------------------------------------------------------------
   Total forces(  30)            :  0.569429E-03  0.433097E-03 -0.149827E-03
  atom #   31
   Hellmann-Feynman              : -0.965152E-02  0.344944E-02 -0.512617E-01
   Ionic forces                  :  0.000000E+00  0.000000E+00  0.000000E+00
   Multipole                     :  0.783200E-02  0.352320E-01 -0.579127E-02
   Pulay + GGA                   :  0.554301E-02 -0.385996E-01  0.572869E-01
   Van der Waals                 : -0.382034E-02 -0.595860E-03 -0.952974E-04
   ----------------------------------------------------------------
   Total forces(  31)            : -0.968585E-04 -0.513968E-03  0.138659E-03
  atom #   32
   Hellmann-Feynman              :  0.111988E-01 -0.385755E-01 -0.561269E-01
   Ionic forces                  :  0.000000E+00  0.000000E+00  0.000000E+00
   Multipole                     :  0.287565E-01 -0.240881E-02  0.399760E-01
   Pulay + GGA                   : -0.433573E-01  0.423625E-01  0.158323E-01
   Van der Waals                 :  0.284497E-02 -0.345861E-03  0.295771E-03
   ----------------------------------------------------------------
   Total forces(  32)            : -0.556997E-03  0.103230E-02 -0.228505E-04

  Timings for VdW correction (Tkatchenko-Scheffler 2009 or later):
  | CPU time:        0.120 s, Wall clock time:        0.120 s.
  Removing unitary transformations (pure translations, rotations) from forces on atoms.
  Atomic forces before filtering:
  | Net force on center of mass :   0.217784E-03 -0.182089E-03 -0.711803E-03 eV/A
  | Net torque on center of mass:   0.935203E-03  0.328122E-02 -0.321258E-02 eV
  Atomic forces after filtering:
  | Net force on center of mass :  -0.958236E-18 -0.156802E-17  0.726844E-18 eV/A
  | Net torque on center of mass:  -0.958836E-17 -0.340260E-17  0.921958E-18 eV

  Energy and forces in a compact form:
  | Total energy uncorrected      :         -0.202086473393945E+05 eV
  | Total energy corrected        :         -0.202086473393945E+05 eV  <-- do not rely on this value for anything but (periodic) metals
  | Electronic free energy        :         -0.202086473393945E+05 eV
  Total atomic forces (unitary forces cleaned) [eV/Ang]:
  |   1         -0.417806363770598E-03         -0.421991463814812E-03          0.800815371431737E-03
  |   2          0.165080603954437E-02          0.296113053982115E-02         -0.286067756202210E-02
  |   3         -0.401876526106807E-02         -0.242854331111290E-02          0.130448402711028E-02
  |   4          0.229139335518401E-03          0.449461589540859E-03          0.787644514800888E-03
  |   5         -0.582795572860687E-03          0.250001553825132E-03          0.440514665443254E-03
  |   6          0.126756759705879E-04         -0.101361220902920E-03          0.158360884026457E-03
  |   7          0.122539781323126E-02         -0.189167651676967E-02          0.595413030003012E-03
  |   8         -0.207983232132196E-03          0.156231949903471E-02         -0.418476742509566E-03
  |   9         -0.302481360218078E-02         -0.290773244845768E-02          0.457689708806003E-02
  |  10          0.305660686003526E-02          0.358765529541039E-02         -0.172825561334603E-02
  |  11          0.150818898243532E-02          0.185963405932307E-02          0.295042431976488E-03
  |  12         -0.962319038779142E-03         -0.589445638891255E-03         -0.255783048313483E-04
  |  13          0.170803017271752E-02         -0.202474502909027E-02          0.100038739979345E-02
  |  14          0.611199206242481E-03         -0.628776182296798E-03         -0.126755060001451E-03
  |  15          0.510788171603888E-03         -0.199348454124241E-04         -0.989027427503565E-03
  |  16         -0.654765422789382E-03          0.156753628472536E-03         -0.676504191267375E-03
  |  17         -0.271707388868971E-02          0.157758173656698E-02          0.222307146651034E-03
  |  18          0.271457327683247E-02          0.116497486330604E-02         -0.159748480335216E-02
  |  19         -0.248368437855527E-02         -0.722360065577720E-03         -0.748057578397651E-03
  |  20         -0.131036349930668E-02          0.138862617076781E-02         -0.868327919911695E-03
  |  21          0.181029278757004E-02         -0.105494827523161E-02         -0.114431419779506E-02
  |  22         -0.888731994610354E-03         -0.422374892716977E-03         -0.965856028632085E-03
  |  23          0.408152354731825E-03         -0.232618212614756E-02          0.916521907168486E-03
  |  24         -0.599331968877418E-03         -0.146590065078175E-04         -0.205603051216305E-04
  |  25          0.316812324018017E-03         -0.258648977454073E-03          0.445632364194984E-03
  |  26          0.439821356631039E-04         -0.399234313824426E-03         -0.475103766257270E-03
  |  27          0.116313614075464E-02         -0.683751736947658E-03          0.418112997299144E-03
  |  28          0.594835473461625E-03          0.556292274425165E-03          0.960986280632987E-03
  |  29          0.664190732896702E-03          0.379900753631435E-03         -0.282020410058909E-03
  |  30          0.460727890199847E-03          0.477526441795807E-03         -0.135452123154807E-03
  |  31         -0.161914126459918E-03         -0.494434838244997E-03          0.155216819432449E-03
  |  32         -0.659187023347146E-03          0.101894248348047E-02         -0.158848938619783E-04

  ------------------------------------ 
  Start decomposition of the XC Energy 
  ------------------------------------ 
  Hartree-Fock part   :          0.000000000 Ha              0.000000000 eV
  ------------------------------------ 
  X Energy            :        -96.985506253 Ha          -2639.109901584 eV
  C Energy GGA        :         -3.867305349 Ha           -105.234732834 eV
  Total XC Energy     :       -100.852811602 Ha          -2744.344634418 eV
  LDA X and C from self-consistent density 
  X Energy LDA        :        -87.999400500 Ha          -2394.585522781 eV
  C Energy LDA        :         -7.531436693 Ha           -204.940819690 eV
  ------------------------------------ 
  End decomposition of the XC Energy 
  ------------------------------------ 
   
  ESP charge fitting starts.
  | Calculation :  00000001  of  00000001
  | Full density
  Computing multipole expansion for total density.
  Generating points for esp charges.
  Partitioning the integration grid into batches with parallel hashing+maxmin method.
  | Number of batches:     3919
  | Maximal batch size:     198
  | Minimal batch size:      52
  | Average batch size:     124.166
  | Standard deviation of batch sizes:      16.967

  Integration load balanced across    32 MPI tasks.
  Work distribution over tasks is as follows:
  Initializing partition tables, free-atom densities, potentials, etc. across the integration grid (initialize_grid_storage).
  | Original list of interatomic distances with          32 x         32 entries is created.
  | Net number of integration points:   486608
  | of which are non-zero points    :   486608
  Summing up potential from multipole expanded  density.
  Summing up the Hartree potential.
  Time summed over all CPUs for potential: real work        6.334 s, elapsed        6.557 s
  Fitting esp charges to potential.
  |
  | ESP charges fitted to the electrostatic potential :
  |
  | Atom         1: C, ESP charge:      0.82388506
  |
  | Atom         2: C, ESP charge:     -0.72323333
  |
  | Atom         3: O, ESP charge:      0.57584353
  |
  | Atom         4: H, ESP charge:     -0.21080996
  |
  | Atom         5: H, ESP charge:     -0.22874168
  |
  | Atom         6: H, ESP charge:     -0.23576662
  |
  | Atom         7: N, ESP charge:      0.54355083
  |
  | Atom         8: C, ESP charge:     -0.43095994
  |
  | Atom         9: C, ESP charge:     -0.33063191
  |
  | Atom        10: O, ESP charge:      0.47715955
  |
  | Atom        11: H, ESP charge:     -0.29066240
  |
  | Atom        12: H, ESP charge:     -0.09350061
  |
  | Atom        13: C, ESP charge:      0.72149978
  |
  | Atom        14: H, ESP charge:     -0.18586138
  |
  | Atom        15: H, ESP charge:     -0.19632491
  |
  | Atom        16: H, ESP charge:     -0.20423492
  |
  | Atom        17: N, ESP charge:      0.38560286
  |
  | Atom        18: C, ESP charge:     -0.14918193
  |
  | Atom        19: C, ESP charge:     -0.46620838
  |
  | Atom        20: O, ESP charge:      0.50089172
  |
  | Atom        21: H, ESP charge:     -0.21617086
  |
  | Atom        22: H, ESP charge:     -0.01187527
  |
  | Atom        23: C, ESP charge:      0.35401009
  |
  | Atom        24: H, ESP charge:     -0.12981081
  |
  | Atom        25: H, ESP charge:     -0.06994177
  |
  | Atom        26: H, ESP charge:     -0.09369645
  |
  | Atom        27: N, ESP charge:      0.20362843
  |
  | Atom        28: C, ESP charge:      0.38680961
  |
  | Atom        29: H, ESP charge:     -0.25695042
  |
  | Atom        30: H, ESP charge:     -0.13766869
  |
  | Atom        31: H, ESP charge:     -0.13427410
  |
  | Atom        32: H, ESP charge:     -0.17637509

  RRMS:       0.00282808

  Done.

------------------------------------------------------------------------------
  Final output of selected total energy values:

  The following output summarizes some interesting total energy values
  at the end of a run (AFTER all relaxation, molecular dynamics, etc.).

  | Total energy of the DFT / Hartree-Fock s.c.f. calculation      :         -20208.647339395 eV
  | Final zero-broadening corrected energy (caution - metals only) :         -20208.647339395 eV
  | For reference only, the value of 1 Hartree used in FHI-aims is :             27.211384500 eV

  Before relying on these values, please be sure to understand exactly which
  total energy value is referred to by a given number. Different objects may
  all carry the same name 'total energy'. Definitions:

  Total energy of the DFT / Hartree-Fock s.c.f. calculation:
  | Note that this energy does not include ANY quantities calculated after the
  | s.c.f. cycle, in particular not ANY RPA, MP2, etc. many-body perturbation terms.

  Final zero-broadening corrected energy:
  | For metallic systems only, a broadening of the occupation numbers at the Fermi
  | level can be extrapolated back to zero broadening by an electron-gas inspired
  | formula. For all systems that are not real metals, this value can be
  | meaningless and should be avoided.

------------------------------------------------------------------------------
  Methods described in the following list of references were used in this FHI-aims run.
  If you publish the results, please make sure to cite these reference if they apply.
  FHI-aims is an academic code, and for our developers (often, Ph.D. students
  and postdocs), scientific credit in the community is essential.
  Thank you for helping us!

  For any use of FHI-aims, please cite:

    Volker Blum, Ralf Gehrke, Felix Hanke, Paula Havu, Ville Havu,
    Xinguo Ren, Karsten Reuter, and Matthias Scheffler
    'Ab initio molecular simulations with numeric atom-centered orbitals'
    Computer Physics Communications 180, 2175-2196 (2009)
    http://dx.doi.org/10.1016/j.cpc.2009.06.022


  The scalable eigensolver library ELPA was used in your run.
  ELPA is essential especially for large systems on hundreds or thousands of CPUs.
  For ELPA, please cite:

    Andreas Marek, Volker Blum, Rainer Johanni, Ville Havu, Bruno Lang,
    Thomas Auckenthaler, Alexander Heinecke, Hans-Joachim Bungartz, and Hermann Lederer,
    'The ELPA Library - Scalable Parallel Eigenvalue Solutions
    for Electronic Structure Theory and Computational Science'
    The Journal of Physics: Condensed Matter 26, 213201 (2014).
    http://dx.doi.org/10.1088/0953-8984/26/21/213201


  For ELPA's efficient two-stage tridiagonalization used in your run, please cite:

    T. Auckenthaler, V. Blum, H.-J. Bungartz, T. Huckle, R. Johanni, L. Kraemer,
    B. Lang, H. Lederer, and P. R. Willems,
    'Parallel solution of partial symmetric eigenvalue problems'
    'from  electronic structure calculations'
    Parallel Computing 37, 783-794 (2011).
    http://dx.doi.org/10.1016/j.parco.2011.05.002


  For the real-space grid partitioning and parallelization used in this calculation, please cite:

    Ville Havu, Volker Blum, Paula Havu, and Matthias Scheffler,
    'Efficient O(N) integration for all-electron electronic structure calculation'
    'using numerically tabulated basis functions'
    Journal of Computational Physics 228, 8367-8379 (2009).
    http://dx.doi.org/10.1016/j.jcp.2009.08.008

  Of course, there are many other important community references, e.g., those cited in the
  above references. Our list is limited to references that describe implementations in the
  FHI-aims code. The reason is purely practical (length of this list) - please credit others as well.

------------------------------------------------------------
          Leaving FHI-aims.
          Date     :  20170309, Time     :  160810.209

          Computational steps:
          | Number of self-consistency cycles          :           14

          Detailed time accounting                     :  max(cpu_time)    wall_clock(cpu1)
          | Total time                                 :       29.102 s          29.276 s
          | Preparation time                           :        0.240 s           0.238 s
          | Grid partitioning                          :        0.308 s           0.301 s
          | Preloading free-atom quantities on grid    :        0.028 s           0.028 s
          | Free-atom superposition energy             :        0.040 s           0.036 s
          | Total time for integrations                :       10.089 s          10.068 s
          | Total time for solution of K.-S. equations :        0.528 s           0.495 s
          | Total time for density & force components  :        9.197 s           9.171 s
          | Total time for mixing                      :        0.128 s           0.108 s
          | Total time for Hartree multipole update    :        0.060 s           0.059 s
          | Total time for Hartree multipole sum       :        6.408 s           6.398 s
          | Total time for total energy evaluation     :        0.036 s           0.024 s
          | Total time for vdW correction              :        0.120 s           0.120 s

          Have a nice day.
------------------------------------------------------------
