  MPI-parallelism will be employed.
------------------------------------------------------------
          Invoking FHI-aims ...
          Version 150427
          Git rev.: 9dd23e0 BL: Update Version stamp
          Compiled on 2015/11/03 at 22:05:20 on host eos03.

          When using FHI-aims, please cite the following reference:

          Volker Blum, Ralf Gehrke, Felix Hanke, Paula Havu,
          Ville Havu, Xinguo Ren, Karsten Reuter, and Matthias Scheffler,
          'Ab Initio Molecular Simulations with Numeric Atom-Centered Orbitals: FHI-aims',
          Computer Physics Communications 180, 2175-2196 (2009)

          For any questions about FHI-aims, please visit the aimsclub website
          with its forums and wiki. Contributions to both the forums and the
          wiki are warmly encouraged - they are for you, and everyone is welcome there.

------------------------------------------------------------

  Date     :  20170309, Time     :  162455.471
  Time zero on CPU 1             :   0.368022000000000E+00  s.
  Internal wall clock time zero  :           258308695.471  s.

  Using       32 parallel tasks.
  Task        0 on host eos341 reporting.
  Task        1 on host eos341 reporting.
  Task        2 on host eos341 reporting.
  Task        3 on host eos341 reporting.
  Task        4 on host eos341 reporting.
  Task        5 on host eos341 reporting.
  Task        6 on host eos341 reporting.
  Task        7 on host eos341 reporting.
  Task        8 on host eos341 reporting.
  Task        9 on host eos341 reporting.
  Task       10 on host eos341 reporting.
  Task       11 on host eos341 reporting.
  Task       12 on host eos341 reporting.
  Task       13 on host eos341 reporting.
  Task       14 on host eos341 reporting.
  Task       15 on host eos341 reporting.
  Task       16 on host eos341 reporting.
  Task       17 on host eos341 reporting.
  Task       18 on host eos341 reporting.
  Task       19 on host eos341 reporting.
  Task       20 on host eos341 reporting.
  Task       21 on host eos341 reporting.
  Task       22 on host eos341 reporting.
  Task       23 on host eos341 reporting.
  Task       24 on host eos341 reporting.
  Task       25 on host eos341 reporting.
  Task       26 on host eos341 reporting.
  Task       27 on host eos341 reporting.
  Task       28 on host eos341 reporting.
  Task       29 on host eos341 reporting.
  Task       30 on host eos341 reporting.
  Task       31 on host eos341 reporting.

  Performing system and environment tests:
  | Environment variable OMP_NUM_THREADS correctly set to 1.
  | Stacksize not measured: no C compiler
  | Checking for scalapack...
  | Testing pdtran()...
  | All pdtran() tests passed.

  Obtaining array dimensions for all initial allocations:
  
  -----------------------------------------------------------------------
  Parsing control.in (first pass over file, find array dimensions only).
  The contents of control.in will be repeated verbatim below
  unless switched off by setting 'verbatim_writeout .false.' .
  in the first line of control.in .
  -----------------------------------------------------------------------
  
  #########################################################################################
  #
  # Input for System
  #
  #########################################################################################
  #
  #
  #  Physical model
  #
    xc                 pbe
    vdw_correction_hirshfeld
    spin               none
    charge             0.
  #
  #  SCF convergence
  #
    occupation_type    gaussian 0.05
    mixer              pulay
      n_max_pulay        10
      charge_mix_param   0.5
    sc_accuracy_rho    1E-4
    sc_accuracy_eev    1E-2
    sc_accuracy_etot   1E-5
    sc_accuracy_forces 1E-4
    sc_iter_limit      1000
  #
  #  ESP charge
  #
    output esp
    esp equal_grid_n 80 80 80
  #
  #
  ################################################################################
  #
  #  FHI-aims code project
  # Volker Blum, Fritz Haber Institute Berlin, 2009
  #
  #  Suggested "tight" defaults for H atom (to be pasted into control.in file)
  #
  ################################################################################
    species        H
  #     global species definitions
      nucleus             1
      mass                1.00794
  #
      l_hartree           6
  #
      cut_pot             4.0  2.0  1.0
      basis_dep_cutoff    1e-4
  #
      radial_base         24 7.0
      radial_multiplier   2
      angular_grids       specified
        division   0.1930   50
        division   0.3175  110
        division   0.4293  194
        division   0.5066  302
        division   0.5626  434
  #      division   0.5922  590
  #      division   0.6227  974
  #      division   0.6868 1202
  #      outer_grid  770
        outer_grid  434
  ################################################################################
  #
  #  Definition of "minimal" basis
  #
  ################################################################################
  #     valence basis states
      valence      1  s   1.
  #     ion occupancy
      ion_occ      1  s   0.5
  ################################################################################
  #
  #  Suggested additional basis functions. For production calculations,
  #  uncomment them one after another (the most important basis functions are
  #  listed first).
  #
  #  Basis constructed for dimers: 0.5 A, 0.7 A, 1.0 A, 1.5 A, 2.5 A
  #
  ################################################################################
  #  "First tier" - improvements: -1014.90 meV to -62.69 meV
       hydro 2 s 2.1
       hydro 2 p 3.5
  #  "Second tier" - improvements: -12.89 meV to -1.83 meV
       hydro 1 s 0.85
       hydro 2 p 3.7
       hydro 2 s 1.2
       hydro 3 d 7
  #  "Third tier" - improvements: -0.25 meV to -0.12 meV
  #     hydro 4 f 11.2
  #     hydro 3 p 4.8
  #     hydro 4 d 9
  #     hydro 3 s 3.2
  ################################################################################
  #
  # For methods that use the localized form of the "resolution of identity" for
  # the two-electron Coulomb operator (RI_method LVL), particularly Hartree-Fock and
  # hybrid density functional calculations, the highest accuracy can be obtained by
  # uncommenting the line beginning with "for_aux"  below, thus adding an extra g radial
  # function to the construction of the product basis set for the expansion.
  # See Ref. New J. Phys. 17, 093020 (2015) for more information, particularly Figs. 1 and 6.
  #
  ################################################################################
  #
  # for_aux hydro 5 g 6.0
  ################################################################################
  #
  #  FHI-aims code project
  # Volker Blum, Fritz Haber Institute Berlin, 2009
  #
  #  Suggested "tight" defaults for C atom (to be pasted into control.in file)
  #
  ################################################################################
    species        C
  #     global species definitions
      nucleus             6
      mass                12.0107
  #
      l_hartree           6
  #
      cut_pot             4.0  2.0  1.0
      basis_dep_cutoff    1e-4
  #
      radial_base         34 7.0
      radial_multiplier   2
      angular_grids specified
        division   0.2187   50
        division   0.4416  110
        division   0.6335  194
        division   0.7727  302
        division   0.8772  434
  #      division   0.9334  590
  #      division   0.9924  770
  #      division   1.0230  974
  #      division   1.5020 1202
  #     outer_grid  974
        outer_grid  434
  ################################################################################
  #
  #  Definition of "minimal" basis
  #
  ################################################################################
  #     valence basis states
      valence      2  s   2.
      valence      2  p   2.
  #     ion occupancy
      ion_occ      2  s   1.
      ion_occ      2  p   1.
  ################################################################################
  #
  #  Suggested additional basis functions. For production calculations,
  #  uncomment them one after another (the most important basis functions are
  #  listed first).
  #
  #  Constructed for dimers: 1.0 A, 1.25 A, 1.5 A, 2.0 A, 3.0 A
  #
  ################################################################################
  #  "First tier" - improvements: -1214.57 meV to -155.61 meV
       hydro 2 p 1.7
       hydro 3 d 6
       hydro 2 s 4.9
  #  "Second tier" - improvements: -67.75 meV to -5.23 meV
       hydro 4 f 9.8
       hydro 3 p 5.2
       hydro 3 s 4.3
       hydro 5 g 14.4
       hydro 3 d 6.2
  #  "Third tier" - improvements: -2.43 meV to -0.60 meV
  #     hydro 2 p 5.6
  #     hydro 2 s 1.4
  #     hydro 3 d 4.9
  #     hydro 4 f 11.2
  #  "Fourth tier" - improvements: -0.39 meV to -0.18 meV
  #     hydro 2 p 2.1
  #     hydro 5 g 16.4
  #     hydro 4 d 13.2
  #     hydro 3 s 13.6
  #     hydro 4 f 17.6
  #  Further basis functions - improvements: -0.08 meV and below
  #     hydro 3 s 2
  #     hydro 3 p 6
  #     hydro 4 d 20
  ################################################################################
  #
  # For methods that use the localized form of the "resolution of identity" for
  # the two-electron Coulomb operator (RI_method LVL), particularly Hartree-Fock and
  # hybrid density functional calculations, the highest accuracy can be obtained by
  # uncommenting the line beginning with "for_aux"  below, thus adding an extra g radial
  # function to the construction of the product basis set for the expansion.
  # See Ref. New J. Phys. 17, 093020 (2015) for more information, particularly Figs. 1 and 6.
  #
  ################################################################################
  #
  # for_aux hydro 5 g 6.0
  ################################################################################
  #
  #  FHI-aims code project
  # Volker Blum, Fritz Haber Institute Berlin, 2009
  #
  #  Suggested "tight" defaults for N atom (to be pasted into control.in file)
  #
  ################################################################################
    species        N
  #     global species definitions
      nucleus             7
      mass                14.0067
  #
      l_hartree           6
  #
      cut_pot             4.0  2.0  1.0
      basis_dep_cutoff    1e-4
  #
      radial_base         35 7.0
      radial_multiplier   2
      angular_grids       specified
        division   0.1841   50
        division   0.3514  110
        division   0.5126  194
        division   0.6292  302
        division   0.6939  434
  #      division   0.7396  590
  #      division   0.7632  770
  #      division   0.8122  974
  #      division   1.1604 1202
  #      outer_grid  974
        outer_grid  434
  ################################################################################
  #
  #  Definition of "minimal" basis
  #
  ################################################################################
  #     valence basis states
      valence      2  s   2.
      valence      2  p   3.
  #     ion occupancy
      ion_occ      2  s   1.
      ion_occ      2  p   2.
  ################################################################################
  #
  #  Suggested additional basis functions. For production calculations,
  #  uncomment them one after another (the most important basis functions are
  #  listed first).
  #
  #  Constructed for dimers: 1.0 A, 1.1 A, 1.5 A, 2.0 A, 3.0 A
  #
  ################################################################################
  #  "First tier" - improvements: -1193.42 meV to -220.60 meV
       hydro 2 p 1.8
       hydro 3 d 6.8
       hydro 3 s 5.8
  #  "Second tier" - improvements: -80.21 meV to -6.86 meV
       hydro 4 f 10.8
       hydro 3 p 5.8
       hydro 1 s 0.8
       hydro 5 g 16
       hydro 3 d 4.9
  #  "Third tier" - improvements: -4.29 meV to -0.53 meV
  #     hydro 3 s 16
  #     ionic 2 p auto
  #     hydro 3 d 6.6
  #     hydro 4 f 11.6
  #  "Fourth tier" - improvements: -0.75 meV to -0.25 meV
  #     hydro 2 p 4.5
  #     hydro 2 s 2.4
  #     hydro 5 g 14.4
  #     hydro 4 d 14.4
  #     hydro 4 f 16.8
  # Further basis functions - -0.21 meV and below
  #     hydro 3 p 14.8
  #     hydro 3 s 4.4
  #     hydro 3 d 19.6
  #     hydro 5 g 12.8
  ################################################################################
  #
  # For methods that use the localized form of the "resolution of identity" for
  # the two-electron Coulomb operator (RI_method LVL), particularly Hartree-Fock and
  # hybrid density functional calculations, the highest accuracy can be obtained by
  # uncommenting the line beginning with "for_aux"  below, thus adding an extra g radial
  # function to the construction of the product basis set for the expansion.
  # See Ref. New J. Phys. 17, 093020 (2015) for more information, particularly Figs. 1 and 6.
  #
  ################################################################################
  #
  # for_aux hydro 5 g 6.0
  ################################################################################
  #
  #  FHI-aims code project
  # Volker Blum, Fritz Haber Institute Berlin, 2009
  #
  #  Suggested "tight" defaults for O atom (to be pasted into control.in file)
  #
  ################################################################################
    species        O
  #     global species definitions
      nucleus             8
      mass                15.9994
  #
      l_hartree           6
  #
      cut_pot             4.0  2.0  1.0
      basis_dep_cutoff    1e-4
  #
      radial_base         36 7.0
      radial_multiplier   2
       angular_grids specified
        division   0.1817   50
        division   0.3417  110
        division   0.4949  194
        division   0.6251  302
        division   0.8014  434
  #      division   0.8507  590
  #      division   0.8762  770
  #      division   0.9023  974
  #      division   1.2339 1202
  #      outer_grid 974
        outer_grid  434
  ################################################################################
  #
  #  Definition of "minimal" basis
  #
  ################################################################################
  #     valence basis states
      valence      2  s   2.
      valence      2  p   4.
  #     ion occupancy
      ion_occ      2  s   1.
      ion_occ      2  p   3.
  ################################################################################
  #
  #  Suggested additional basis functions. For production calculations,
  #  uncomment them one after another (the most important basis functions are
  #  listed first).
  #
  #  Constructed for dimers: 1.0 A, 1.208 A, 1.5 A, 2.0 A, 3.0 A
  #
  ################################################################################
  #  "First tier" - improvements: -699.05 meV to -159.38 meV
       hydro 2 p 1.8
       hydro 3 d 7.6
       hydro 3 s 6.4
  #  "Second tier" - improvements: -49.91 meV to -5.39 meV
       hydro 4 f 11.6
       hydro 3 p 6.2
       hydro 3 d 5.6
       hydro 5 g 17.6
       hydro 1 s 0.75
  #  "Third tier" - improvements: -2.83 meV to -0.50 meV
  #     ionic 2 p auto
  #     hydro 4 f 10.8
  #     hydro 4 d 4.7
  #     hydro 2 s 6.8
  #  "Fourth tier" - improvements: -0.40 meV to -0.12 meV
  #     hydro 3 p 5
  #     hydro 3 s 3.3
  #     hydro 5 g 15.6
  #     hydro 4 f 17.6
  #     hydro 4 d 14
  # Further basis functions - -0.08 meV and below
  #     hydro 3 s 2.1
  #     hydro 4 d 11.6
  #     hydro 3 p 16
  #     hydro 2 s 17.2
  ################################################################################
  #
  # For methods that use the localized form of the "resolution of identity" for
  # the two-electron Coulomb operator (RI_method LVL), particularly Hartree-Fock and
  # hybrid density functional calculations, the highest accuracy can be obtained by
  # uncommenting the line beginning with "for_aux"  below, thus adding an extra g radial
  # function to the construction of the product basis set for the expansion.
  # See Ref. New J. Phys. 17, 093020 (2015) for more information, particularly Figs. 1 and 6.
  #
  ################################################################################
  #
  # for_aux hydro 5 g 6.0
  
  -----------------------------------------------------------------------
  Completed first pass over input file control.in .
  -----------------------------------------------------------------------
  
  
  -----------------------------------------------------------------------
  Parsing geometry.in (first pass over file, find array dimensions only).
  The contents of geometry.in will be repeated verbatim below
  unless switched off by setting 'verbatim_writeout .false.' .
  in the first line of geometry.in .
  -----------------------------------------------------------------------
  
  #
  # This is the geometry file that corresponds to the current relaxation step.
  # If you do not want this file to be written, set the "write_restart_geometry" flag to .false.
  #
  atom      -0.23774113     -0.33034868      1.19410588 C
  atom      -1.16119134      0.36823497      2.17159438 C
  atom      -0.78995395      0.65885124      3.30775939 O
  atom      -0.73933518     -0.99126626      0.47841714 H
  atom       0.49972464     -0.89261049      1.77520464 H
  atom       0.30501098      0.43203971      0.61685277 H
  atom      -2.43375683      0.70282161      1.76523397 N
  atom      -3.12828513      0.44063578      0.50007508 C
  atom      -3.23044708     -1.07404083      0.18246222 C
  atom      -2.72271958     -1.56363295     -0.82262946 O
  atom      -2.95657686      1.17571392      2.49783177 H
  atom      -4.15739387      0.79062003      0.67611095 H
  atom      -2.57350304      1.21904414     -0.69230470 C
  atom      -1.57641938      0.86866961     -0.97845010 H
  atom      -2.52002530      2.28471555     -0.43869108 H
  atom      -3.22467020      1.09340520     -1.56590165 H
  atom      -3.90069848     -1.86588933      1.08549748 N
  atom      -4.76175001     -1.46700699      2.19571541 C
  atom      -4.06591505     -1.34891780      3.57315198 C
  atom      -4.61143052     -0.70203433      4.46554775 O
  atom      -3.98038736     -2.82833172      0.76332525 H
  atom      -5.16296928     -0.46265832      2.00067819 H
  atom      -5.94144538     -2.43876221      2.31160316 C
  atom      -6.57351682     -2.15077605      3.15879836 H
  atom      -5.58506648     -3.46446445      2.48643306 H
  atom      -6.54730247     -2.42717600      1.39637607 H
  atom      -2.90659244     -2.03652384      3.71391860 N
  atom      -2.11115993     -1.98614097      4.93033750 C
  atom      -2.49050272     -2.40819607      2.86653427 H
  atom      -1.70213100     -2.97983803      5.15229013 H
  atom      -2.76847880     -1.67350525      5.74825642 H
  atom      -1.29332199     -1.25773615      4.83935519 H
  
  -----------------------------------------------------------------------
  Completed first pass over input file geometry.in .
  -----------------------------------------------------------------------
  

  Basic array size parameters:
  | Number of species                 :        4
  | Number of atoms                   :       32
  | Max. basis fn. angular momentum   :        4
  | Max. atomic/ionic basis occupied n:        2
  | Max. number of basis fn. types    :        2
  | Max. radial fns per species/type  :        8
  | Max. logarithmic grid size        :     1301
  | Max. radial integration grid size :       73
  | Max. angular integration grid size:      434
  | Max. angular grid division number :        8
  | Radial grid for Hartree potential :     1301
  | Number of spin channels           :        1

------------------------------------------------------------
          Reading file control.in.
------------------------------------------------------------
  XC: Using PBE gradient-corrected functionals.
  Spin treatment: No spin polarisation.
  Charge =   0.000000E+00: Neutral system requested explicitly.
  Occupation type: Gaussian broadening, width =   0.500000E-01 eV.
  Using pulay charge density mixing.
  Pulay mixing - number of memorized iterations:   10
  Charge density mixing - mixing parameter:     0.5000
  Convergence accuracy of self-consistent charge density:  0.1000E-03
  Convergence accuracy of sum of eigenvalues:  0.1000E-01
  Convergence accuracy of total energy:  0.1000E-04
  Convergence accuracy of forces:  0.1000E-03
  Maximum number of s.-c. iterations  :  1000
  Fitting ESP-charges to Potential. 
  | Esp charge output options: 
  | ESP Grid method: 3, cubic grid
  | Number of points in x, ,y, z:  0080 0080 0080
  |
 
  Reading configuration options for species H                   .
  | Found nuclear charge :   1.0000
  | Found atomic mass :    1.00794000000000      amu
  | Found l_max for Hartree potential  :   6
  | Found cutoff potl. onset [A], width [A], scale factor :    4.00000    2.00000    1.00000
  | Threshold for basis-dependent cutoff potential is   0.100000E-03
  | Found data for basic radial integration grid :    24 points, outermost radius =    7.000 A
  | Found multiplier for basic radial grid :   2
  | Found angular grid specification: user-specified.
  | Specified grid contains     6 separate shells.
  | Check grid settings after all constraints further below.
  | Found free-atom valence shell :  1 s   1.000
  | No ionic wave fns used. Skipping ion_occ.
  | Found hydrogenic basis function :  2 s   2.100
  | Found hydrogenic basis function :  2 p   3.500
  | Found hydrogenic basis function :  1 s   0.850
  | Found hydrogenic basis function :  2 p   3.700
  | Found hydrogenic basis function :  2 s   1.200
  | Found hydrogenic basis function :  3 d   7.000
  Species H                   : Missing cutoff potential type.
  Defaulting to exp(1/x)/(1-x)^2 type cutoff potential.
  Species H : No 'logarithmic' tag. Using default grid for free atom:
  | Default logarithmic grid data [bohr] : 0.1000E-03 0.1000E+03 0.1012E+01
  Species H : On-site basis accuracy parameter (for Gram-Schmidt orthonormalisation) not specified.
  Using default value basis_acc =  0.1000000E-03.
  Species H                   : Using default innermost maximum threshold i_radial=  2 for radial functions.
  Species H                   : Default cutoff onset for free atom density etc. : 0.40000000E+01 AA.
  Species H                   : Basic radial grid will be enhanced according to radial_multiplier =   2, to contain    49 grid points.
 
  Reading configuration options for species C                   .
  | Found nuclear charge :   6.0000
  | Found atomic mass :    12.0107000000000      amu
  | Found l_max for Hartree potential  :   6
  | Found cutoff potl. onset [A], width [A], scale factor :    4.00000    2.00000    1.00000
  | Threshold for basis-dependent cutoff potential is   0.100000E-03
  | Found data for basic radial integration grid :    34 points, outermost radius =    7.000 A
  | Found multiplier for basic radial grid :   2
  | Found angular grid specification: user-specified.
  | Specified grid contains     6 separate shells.
  | Check grid settings after all constraints further below.
  | Found free-atom valence shell :  2 s   2.000
  | Found free-atom valence shell :  2 p   2.000
  | No ionic wave fns used. Skipping ion_occ.
  | No ionic wave fns used. Skipping ion_occ.
  | Found hydrogenic basis function :  2 p   1.700
  | Found hydrogenic basis function :  3 d   6.000
  | Found hydrogenic basis function :  2 s   4.900
  | Found hydrogenic basis function :  4 f   9.800
  | Found hydrogenic basis function :  3 p   5.200
  | Found hydrogenic basis function :  3 s   4.300
  | Found hydrogenic basis function :  5 g  14.400
  | Found hydrogenic basis function :  3 d   6.200
  Species C                   : Missing cutoff potential type.
  Defaulting to exp(1/x)/(1-x)^2 type cutoff potential.
  Species C : No 'logarithmic' tag. Using default grid for free atom:
  | Default logarithmic grid data [bohr] : 0.1000E-03 0.1000E+03 0.1012E+01
  Species C : On-site basis accuracy parameter (for Gram-Schmidt orthonormalisation) not specified.
  Using default value basis_acc =  0.1000000E-03.
  Species C                   : Using default innermost maximum threshold i_radial=  2 for radial functions.
  Species C                   : Default cutoff onset for free atom density etc. : 0.40000000E+01 AA.
  Species C                   : Basic radial grid will be enhanced according to radial_multiplier =   2, to contain    69 grid points.
 
  Reading configuration options for species N                   .
  | Found nuclear charge :   7.0000
  | Found atomic mass :    14.0067000000000      amu
  | Found l_max for Hartree potential  :   6
  | Found cutoff potl. onset [A], width [A], scale factor :    4.00000    2.00000    1.00000
  | Threshold for basis-dependent cutoff potential is   0.100000E-03
  | Found data for basic radial integration grid :    35 points, outermost radius =    7.000 A
  | Found multiplier for basic radial grid :   2
  | Found angular grid specification: user-specified.
  | Specified grid contains     6 separate shells.
  | Check grid settings after all constraints further below.
  | Found free-atom valence shell :  2 s   2.000
  | Found free-atom valence shell :  2 p   3.000
  | No ionic wave fns used. Skipping ion_occ.
  | No ionic wave fns used. Skipping ion_occ.
  | Found hydrogenic basis function :  2 p   1.800
  | Found hydrogenic basis function :  3 d   6.800
  | Found hydrogenic basis function :  3 s   5.800
  | Found hydrogenic basis function :  4 f  10.800
  | Found hydrogenic basis function :  3 p   5.800
  | Found hydrogenic basis function :  1 s   0.800
  | Found hydrogenic basis function :  5 g  16.000
  | Found hydrogenic basis function :  3 d   4.900
  Species N                   : Missing cutoff potential type.
  Defaulting to exp(1/x)/(1-x)^2 type cutoff potential.
  Species N : No 'logarithmic' tag. Using default grid for free atom:
  | Default logarithmic grid data [bohr] : 0.1000E-03 0.1000E+03 0.1012E+01
  Species N : On-site basis accuracy parameter (for Gram-Schmidt orthonormalisation) not specified.
  Using default value basis_acc =  0.1000000E-03.
  Species N                   : Using default innermost maximum threshold i_radial=  2 for radial functions.
  Species N                   : Default cutoff onset for free atom density etc. : 0.40000000E+01 AA.
  Species N                   : Basic radial grid will be enhanced according to radial_multiplier =   2, to contain    71 grid points.
 
  Reading configuration options for species O                   .
  | Found nuclear charge :   8.0000
  | Found atomic mass :    15.9994000000000      amu
  | Found l_max for Hartree potential  :   6
  | Found cutoff potl. onset [A], width [A], scale factor :    4.00000    2.00000    1.00000
  | Threshold for basis-dependent cutoff potential is   0.100000E-03
  | Found data for basic radial integration grid :    36 points, outermost radius =    7.000 A
  | Found multiplier for basic radial grid :   2
  | Found angular grid specification: user-specified.
  | Specified grid contains     6 separate shells.
  | Check grid settings after all constraints further below.
  | Found free-atom valence shell :  2 s   2.000
  | Found free-atom valence shell :  2 p   4.000
  | No ionic wave fns used. Skipping ion_occ.
  | No ionic wave fns used. Skipping ion_occ.
  | Found hydrogenic basis function :  2 p   1.800
  | Found hydrogenic basis function :  3 d   7.600
  | Found hydrogenic basis function :  3 s   6.400
  | Found hydrogenic basis function :  4 f  11.600
  | Found hydrogenic basis function :  3 p   6.200
  | Found hydrogenic basis function :  3 d   5.600
  | Found hydrogenic basis function :  5 g  17.600
  | Found hydrogenic basis function :  1 s   0.750
  Species O                   : Missing cutoff potential type.
  Defaulting to exp(1/x)/(1-x)^2 type cutoff potential.
  Species O : No 'logarithmic' tag. Using default grid for free atom:
  | Default logarithmic grid data [bohr] : 0.1000E-03 0.1000E+03 0.1012E+01
  Species O : On-site basis accuracy parameter (for Gram-Schmidt orthonormalisation) not specified.
  Using default value basis_acc =  0.1000000E-03.
  Species O                   : Using default innermost maximum threshold i_radial=  2 for radial functions.
  Species O                   : Default cutoff onset for free atom density etc. : 0.40000000E+01 AA.
  Species O                   : Basic radial grid will be enhanced according to radial_multiplier =   2, to contain    73 grid points.
 
  Finished reading input file 'control.in'. Consistency checks are next.
 
  Target number of points in a grid batch is not set. Defaulting to  100
  Method for grid partitioning is not set. Defaulting to parallel hash+maxmin partitioning.
  Batch size limit is not set. Defaulting to    200
  By default, will store active basis functions for each batch.
  If in need of memory, prune_basis_once .false. can be used to disable this option.
  communication_type for Hartree potential was not specified.
  Defaulting to calc_hartree .
  Pulay mixer: Number of initial linear mixing iterations not set.
  Defaulting to    0 iterations.
  Work space size for distributed Hartree potential not set.
  Defaulting to   0.200000E+03 MB.
  Algorithm-dependent basis array size parameters:
  | n_max_pulay                         :       10
  Geometry relaxation not requested: no relaxation will be performed.
  Handling of forces: Unphysical translation and rotation will be removed from forces.
  No accuracy limit for integral partition fn. given. Defaulting to  0.1000E-14.
  No threshold value for u(r) in integrations given. Defaulting to  0.1000E-05.
  No accuracy for occupation numbers given. Defaulting to  0.1000E-07.
  No threshold value for occupation numbers given. Defaulting to  0.0000E+00.
  No accuracy for fermi level given. Defaulting to  0.1000E-19.
  Maximum # of iterations to find E_F not set. Defaulting to  200.
  Preferred method for the eigenvalue solver ('KS_method') not specified in 'control.in'.
  Calling blacs routine to test compilation state
  Since scalapack support is enabled, defaulting to 'elpa'.
  Preferred method for the MBD eigenvalue solver ('mbd_eigensolver') not specified in 'control.in'.
  Calling blacs routine to test compilation state
  Since scalapack support is enabled, defaulting to 'scaLAPACK'.
  Will not use alltoall communication since running on < 1024 CPUs.
  Threshold for basis singularities not set.
  Default threshold for basis singularities:  0.1000E-04
  partition_type (choice of integration weights) for integrals was not specified.
  | Using a version of the partition function of Stratmann and coworkers ('stratmann_smoother').
  | At each grid point, the set of atoms used to build the partition table is smoothly restricted to
  | only those atoms whose free-atom density would be non-zero at that grid point.
  Partitioning for Hartree potential was not defined. Using partition_type for integrals.
  | Adjusted default value of keyword multip_moments_threshold to:       0.10000000E-11
  | This value may affect high angular momentum components of the Hartree potential in periodic systems.
  No q(lm)/r^(l+1) cutoff set for long-range Hartree potential.
  | Using default value of  0.100000E-09 .
  | Verify using the multipole_threshold keyword.
  Defaulting to new monopole extrapolation.
  Density update method: automatic selection selected.
------------------------------------------------------------


------------------------------------------------------------
          Reading geometry description geometry.in.
------------------------------------------------------------
 * Warning! You did not set the 'relativistic' flag in input file 'control.in'.
 * Since you are not attempting to treat any elements beyond Ca(Z=20), FHI-aims
 * will default to 'relativistic none'.
 * You must ensure that this is really what you want!!
 * For example, DO NOT compute total-energy differences between results from
 * different settings of the 'relativistic' flag.
  Input structure read successfully.
  The structure contains       32 atoms,  and a total of        116.000 electrons.

  Input geometry:
  | No unit cell requested.
  | Atomic structure:
  |       Atom                x [A]            y [A]            z [A]
  |    1: Species C             -0.237741        -0.330349         1.194106
  |    2: Species C             -1.161191         0.368235         2.171594
  |    3: Species O             -0.789954         0.658851         3.307759
  |    4: Species H             -0.739335        -0.991266         0.478417
  |    5: Species H              0.499725        -0.892610         1.775205
  |    6: Species H              0.305011         0.432040         0.616853
  |    7: Species N             -2.433757         0.702822         1.765234
  |    8: Species C             -3.128285         0.440636         0.500075
  |    9: Species C             -3.230447        -1.074041         0.182462
  |   10: Species O             -2.722720        -1.563633        -0.822629
  |   11: Species H             -2.956577         1.175714         2.497832
  |   12: Species H             -4.157394         0.790620         0.676111
  |   13: Species C             -2.573503         1.219044        -0.692305
  |   14: Species H             -1.576419         0.868670        -0.978450
  |   15: Species H             -2.520025         2.284716        -0.438691
  |   16: Species H             -3.224670         1.093405        -1.565902
  |   17: Species N             -3.900698        -1.865889         1.085497
  |   18: Species C             -4.761750        -1.467007         2.195715
  |   19: Species C             -4.065915        -1.348918         3.573152
  |   20: Species O             -4.611431        -0.702034         4.465548
  |   21: Species H             -3.980387        -2.828332         0.763325
  |   22: Species H             -5.162969        -0.462658         2.000678
  |   23: Species C             -5.941445        -2.438762         2.311603
  |   24: Species H             -6.573517        -2.150776         3.158798
  |   25: Species H             -5.585066        -3.464464         2.486433
  |   26: Species H             -6.547302        -2.427176         1.396376
  |   27: Species N             -2.906592        -2.036524         3.713919
  |   28: Species C             -2.111160        -1.986141         4.930337
  |   29: Species H             -2.490503        -2.408196         2.866534
  |   30: Species H             -1.702131        -2.979838         5.152290
  |   31: Species H             -2.768479        -1.673505         5.748256
  |   32: Species H             -1.293322        -1.257736         4.839355
  |

  | The smallest distance between any two atoms is         1.01455956 AA.
  |
  | The first atom of this pair is atom number                     27 .
  | The second atom of this pair is atom number                    29 .

  Number of empty states per atom not set in control.in - providing a guess from actual geometry.
  | Total number of empty states used during s.c.f. cycle:       71
  If you use a very high smearing, use empty_states (per atom!) in control.in to increase this value.

  Structure-dependent array size parameters: 
  | Maximum number of distinct radial functions  :       40
  | Maximum number of basis functions            :      840
  | Number of Kohn-Sham states (occupied + empty):      129
------------------------------------------------------------

------------------------------------------------------------
          Preparing all fixed parts of the calculation.
------------------------------------------------------------
  Determining machine precision:
    2.225073858507201E-308
  Setting up grids for atomic and cluster calculations.

  Creating wave function, potential, and density for free atoms.

  Species: H

  List of occupied orbitals and eigenvalues:
    n    l              occ      energy [Ha]    energy [eV]
    1    0           1.0000        -0.238382        -6.4867


  Species: C

  List of occupied orbitals and eigenvalues:
    n    l              occ      energy [Ha]    energy [eV]
    1    0           2.0000       -10.041232      -273.2358
    2    0           2.0000        -0.504327       -13.7234
    2    1           2.0000        -0.193750        -5.2722


  Species: N

  List of occupied orbitals and eigenvalues:
    n    l              occ      energy [Ha]    energy [eV]
    1    0           2.0000       -14.129007      -384.4699
    2    0           2.0000        -0.681802       -18.5528
    2    1           3.0000        -0.260543        -7.0897


  Species: O

  List of occupied orbitals and eigenvalues:
    n    l              occ      energy [Ha]    energy [eV]
    1    0           2.0000       -18.898576      -514.2564
    2    0           2.0000        -0.878795       -23.9132
    2    1           4.0000        -0.332075        -9.0362

  Creating fixed part of basis set: Ionic, confined, hydrogenic.
 
  H                    hydrogenic:
 
  List of hydrogenic basis orbitals: 
    n    l      effective z      eigenvalue [eV]  inner max. [A]     outer max. [A]     outer radius [A]   
    2    0         2.100000       -14.9965           0.193243           1.317208           5.373006
    2    1         3.500000       -41.6672           0.602369           0.602369           4.056063
    1    0         0.850000        -9.8292           0.624871           0.624871           5.373006
    2    1         3.700000       -46.5653           0.573622           0.573622           3.910002
    2    0         1.200000        -4.5995           0.334980           2.228188           5.505995
    3    2         7.000000       -74.0753           0.680699           0.680699           3.769201
 
 
  C                    hydrogenic:
 
  List of hydrogenic basis orbitals: 
    n    l      effective z      eigenvalue [eV]  inner max. [A]     outer max. [A]     outer radius [A]   
    2    1         1.700000        -9.8152           1.245706           1.245706           5.401630
    3    2         6.000000       -54.4226           0.792453           0.792453           4.178599
    2    0         4.900000       -81.6681           0.082559           0.562749           3.353238
    4    3         9.800000       -81.6681           0.863254           0.863254           4.028125
    3    1         5.200000       -40.8774           0.305389           1.215618           4.898362
    3    0         4.300000       -27.9508           0.091041           1.610311           5.401630
    5    4        14.400000      -112.8510           0.917666           0.917666           3.883070
    3    2         6.200000       -58.1113           0.763917           0.763917           4.077671
 
 
  N                    hydrogenic:
 
  List of hydrogenic basis orbitals: 
    n    l      effective z      eigenvalue [eV]  inner max. [A]     outer max. [A]     outer radius [A]   
    2    1         1.800000       -11.0118           1.177451           1.177451           5.427479
    3    2         6.800000       -69.9029           0.704619           0.704619           3.854246
    3    0         5.800000       -50.8549           0.067388           1.191934           4.629968
    4    3        10.800000       -99.1854           0.786571           0.786571           3.761152
    3    1         5.800000       -50.8549           0.274880           1.094176           4.518138
    1    0         0.800000        -8.7059           0.662839           0.662839           5.361532
    5    4        16.000000      -139.3222           0.825990           0.825990           3.625711
    3    2         4.900000       -36.2967           0.968267           0.968267           4.862000
 
 
  O                    hydrogenic:
 
  List of hydrogenic basis orbitals: 
    n    l      effective z      eigenvalue [eV]  inner max. [A]     outer max. [A]     outer radius [A]   
    2    1         1.800000       -11.0118           1.178562           1.178562           5.432602
    3    2         7.600000       -87.3182           0.624125           0.624125           3.541477
    3    0         6.400000       -61.9209           0.061167           1.081902           4.306578
    4    3        11.600000      -114.4238           0.731631           0.731631           3.585037
    3    1         6.200000       -58.1113           0.255680           1.030270           4.306578
    3    2         5.600000       -47.4081           0.847233           0.847233           4.413171
    5    4        17.600000      -168.5799           0.749740           0.749740           3.372465
    1    0         0.750000        -7.6499           0.705284           0.705284           5.366593
 

  Adding cutoff potential to free-atom effective potential.
  Creating atomic-like basis functions for current effective potential.

  Species H                   :

  List of atomic basis orbitals and eigenvalues:
    n    l      energy [Ha]    energy [eV]    outer radius [A]
    1    0        -0.238382        -6.4867       5.373006


  Species C                   :

  List of atomic basis orbitals and eigenvalues:
    n    l      energy [Ha]    energy [eV]    outer radius [A]
    1    0       -10.041232      -273.2358       1.934409
    2    0        -0.504327       -13.7234       5.271162
    2    1        -0.193750        -5.2722       5.401630


  Species N                   :

  List of atomic basis orbitals and eigenvalues:
    n    l      energy [Ha]    energy [eV]    outer radius [A]
    1    0       -14.129007      -384.4699       1.637919
    2    0        -0.681802       -18.5528       5.168461
    2    1        -0.260543        -7.0897       5.361532


  Species O                   :

  List of atomic basis orbitals and eigenvalues:
    n    l      energy [Ha]    energy [eV]    outer radius [A]
    1    0       -18.898576      -514.2564       1.415765
    2    0        -0.878795       -23.9132       5.048385
    2    1        -0.332075        -9.0362       5.301386

  Assembling full basis from fixed parts.
  | Species H :   atomic orbital   1 s accepted.
  | Species H :    hydro orbital   2 s accepted.
  | Species H :    hydro orbital   1 s accepted.
  | Species H :    hydro orbital   2 s accepted.
  | Species H :    hydro orbital   2 p accepted.
  | Species H :    hydro orbital   2 p accepted.
  | Species H :    hydro orbital   3 d accepted.
  | Species C :   atomic orbital   1 s accepted.
  | Species C :    hydro orbital   2 s accepted.
  | Species C :   atomic orbital   2 s accepted.
  | Species C :    hydro orbital   3 s accepted.
  | Species C :    hydro orbital   3 p accepted.
  | Species C :   atomic orbital   2 p accepted.
  | Species C :    hydro orbital   2 p accepted.
  | Species C :    hydro orbital   3 d accepted.
  | Species C :    hydro orbital   3 d accepted.
  | Species C :    hydro orbital   4 f accepted.
  | Species C :    hydro orbital   5 g accepted.
  | Species N :   atomic orbital   1 s accepted.
  | Species N :    hydro orbital   3 s accepted.
  | Species N :   atomic orbital   2 s accepted.
  | Species N :    hydro orbital   1 s accepted.
  | Species N :    hydro orbital   3 p accepted.
  | Species N :   atomic orbital   2 p accepted.
  | Species N :    hydro orbital   2 p accepted.
  | Species N :    hydro orbital   3 d accepted.
  | Species N :    hydro orbital   3 d accepted.
  | Species N :    hydro orbital   4 f accepted.
  | Species N :    hydro orbital   5 g accepted.
  | Species O :   atomic orbital   1 s accepted.
  | Species O :    hydro orbital   3 s accepted.
  | Species O :   atomic orbital   2 s accepted.
  | Species O :    hydro orbital   1 s accepted.
  | Species O :    hydro orbital   3 p accepted.
  | Species O :   atomic orbital   2 p accepted.
  | Species O :    hydro orbital   2 p accepted.
  | Species O :    hydro orbital   3 d accepted.
  | Species O :    hydro orbital   3 d accepted.
  | Species O :    hydro orbital   4 f accepted.
  | Species O :    hydro orbital   5 g accepted.
 
  Basis size parameters after reduction:
  | Total number of radial functions:       40
  | Total number of basis functions :      840
 
  Testing on-site integration grid accuracy.
  |  Species  Function  <phi|h_atom|phi> (log., in eV)  <phi|h_atom|phi> (rad., in eV)
           1        1                 -6.4869821809                 -6.4870742227
           1        2                 13.5044133542                 13.5041049177
           1        3                 32.7854418792                 32.7779770519
           1        4                 33.7995553101                 33.7152624900 ***
           1        5                 28.8558651799                 28.8558652046
           1        6                 59.6361831893                 59.6362535845
           1        7                 60.2733718049                 60.2733715484
           2        8               -273.2358277112               -273.2358261765
           2        9                -10.7624923123                -10.7625144012
           2       10                 17.4634079027                 17.4634252127
           2       11                 53.0363661832                 53.0366180446
           2       12                 15.0981351967                 15.0981317714
           2       13                  3.8522181899                  3.8522770949
           2       14                 12.1181835661                 12.1206868578
           2       15                 29.4320778347                 29.4320780959
           2       16                 54.8753777694                 54.8752901936
           2       17                 59.3533975461                 59.3533974833
           2       18                 93.4537491195                 93.4537492066
           3       19               -384.4698526889               -384.4698499465
           3       20                 12.5691022037                 12.5690910168
           3       21                -15.7489097511                -15.7489165588
           3       22                 27.0978334940                 27.0985589490
           3       23                 18.5949116966                 18.5949125562
           3       24                  1.2212828291                  1.2212855301
           3       25                 13.4428926797                 13.4434051125
           3       26                 35.9380614500                 35.9380613666
           3       27                 39.9231532098                 39.9231654735
           3       28                 72.9957335806                 72.9957336833
           3       29                116.4231321147                116.4231321431
           4       30               -514.2564144315               -514.2564099626
           4       31                 15.1726678541                 15.1726530877
           4       32                -21.5447785304                -21.5447874973
           4       33                 14.4944558459                 14.4944698284
           4       34                 20.8882174564                 20.8882178906
           4       35                 -2.4850315908                 -2.4850322289
           4       36                 13.8600193195                 13.8599826966
           4       37                 45.8243383616                 45.8243383675
           4       38                 52.1840606465                 52.1840622440
           4       39                 85.4074185510                 85.4074185819
           4       40                142.0983717302                142.0983717339
 * Note: Onsite integrals marked "***" above are less accurate than
 * onsite_accuracy_threshold =    0.03000 eV. Usually, this is harmless.
 * When in doubt, tighten the "radial" and/or "radial_multiplier" flags to check.

  Preparing densities etc. for the partition functions (integrals / Hartree potential).

  Preparations completed.
  max(cpu_time)          :      0.236 s.
  Wall clock time (cpu1) :      0.239 s.
------------------------------------------------------------

------------------------------------------------------------
          Begin self-consistency loop: Initialization.

          Date     :  20170309, Time     :  162456.511
------------------------------------------------------------

  Initializing index lists of integration centers etc. from given atomic structure:
  | Number of centers in hartree potential         :        32
  | Number of centers in hartree multipole         :        32
  | Number of centers in electron density summation:        32
  | Number of centers in basis integrals           :        32
  | Number of centers in integrals                 :        32
  | Number of centers in hamiltonian               :        32
  Using modified Scalapack Eigenvalue solver (ELPA)
  * Using 32 tasks for Scalapack Eigenvalue solver.
  Detailed listing of tasks and assigned k-points:
  (for non-periodic systems, the "k-point" denotes an internal label only)
   Task     0 k-point     1 on eos341
   Task     1 k-point     1 on eos341
   Task     2 k-point     1 on eos341
   Task     3 k-point     1 on eos341
   Task     4 k-point     1 on eos341
   Task     5 k-point     1 on eos341
   Task     6 k-point     1 on eos341
   Task     7 k-point     1 on eos341
   Task     8 k-point     1 on eos341
   Task     9 k-point     1 on eos341
   Task    10 k-point     1 on eos341
   Task    11 k-point     1 on eos341
   Task    12 k-point     1 on eos341
   Task    13 k-point     1 on eos341
   Task    14 k-point     1 on eos341
   Task    15 k-point     1 on eos341
   Task    16 k-point     1 on eos341
   Task    17 k-point     1 on eos341
   Task    18 k-point     1 on eos341
   Task    19 k-point     1 on eos341
   Task    20 k-point     1 on eos341
   Task    21 k-point     1 on eos341
   Task    22 k-point     1 on eos341
   Task    23 k-point     1 on eos341
   Task    24 k-point     1 on eos341
   Task    25 k-point     1 on eos341
   Task    26 k-point     1 on eos341
   Task    27 k-point     1 on eos341
   Task    28 k-point     1 on eos341
   Task    29 k-point     1 on eos341
   Task    30 k-point     1 on eos341
   Task    31 k-point     1 on eos341
  Tasks:    32 split into      8 X      4 BLACS grid
  Calculating blocksize based on n_basis =          840 max_nprow =            8 max_npcol =            4
  Scalapack blocksize set to:           16
  Required Scalapack workspace - INTEGER:            1 REAL:             1
  Partitioning the integration grid into batches with parallel hashing+maxmin method.
  | Number of batches:     4929
  | Maximal batch size:     200
  | Minimal batch size:      41
  | Average batch size:     107.066
  | Standard deviation of batch sizes:      33.018

  Integration load balanced across    32 MPI tasks.
  Work distribution over tasks is as follows:
  Task     0 has      16505 integration points.
  Task     1 has      16492 integration points.
  Task     2 has      16450 integration points.
  Task     3 has      16454 integration points.
  Task     4 has      16459 integration points.
  Task     5 has      16496 integration points.
  Task     6 has      16462 integration points.
  Task     7 has      16485 integration points.
  Task     8 has      16459 integration points.
  Task     9 has      16475 integration points.
  Task    10 has      16530 integration points.
  Task    11 has      16522 integration points.
  Task    12 has      16514 integration points.
  Task    13 has      16478 integration points.
  Task    14 has      16466 integration points.
  Task    15 has      16471 integration points.
  Task    16 has      16482 integration points.
  Task    17 has      16525 integration points.
  Task    18 has      16487 integration points.
  Task    19 has      16553 integration points.
  Task    20 has      16450 integration points.
  Task    21 has      16487 integration points.
  Task    22 has      16559 integration points.
  Task    23 has      16562 integration points.
  Task    24 has      16479 integration points.
  Task    25 has      16510 integration points.
  Task    26 has      16519 integration points.
  Task    27 has      16511 integration points.
  Task    28 has      16484 integration points.
  Task    29 has      16458 integration points.
  Task    30 has      16481 integration points.
  Task    31 has      16463 integration points.
  Initializing partition tables, free-atom densities, potentials, etc. across the integration grid (initialize_grid_storage).
  | initialize_grid_storage: Actual outermost partition radius vs. multipole_radius_free
  | (-- VB: in principle, multipole_radius_free should be larger, hence this output)
  | Species        1: Confinement radius =              6.000000000000000 AA, multipole_radius_free =              6.071692442739658 AA.
  | Species        1: outer_partition_radius set to              6.071692442739658 AA .
  | Species        2: Confinement radius =              6.000000000000000 AA, multipole_radius_free =              6.029870734432609 AA.
  | Species        2: outer_partition_radius set to              6.029870734432609 AA .
  | Species        3: Confinement radius =              6.000000000000000 AA, multipole_radius_free =              6.058726835495003 AA.
  | Species        3: outer_partition_radius set to              6.058726835495003 AA .
  | Species        4: Confinement radius =              6.000000000000000 AA, multipole_radius_free =              6.064445521808699 AA.
  | Species        4: outer_partition_radius set to              6.064445521808699 AA .
  | Original list of interatomic distances with          32 x         32 entries is created.
  | Net number of integration points:   527728
  | of which are non-zero points    :   411971
  Obtaining max. number of non-zero basis functions in each batch (get_n_compute_maxes).
  | Maximal number of non-zero basis functions:      810 in task     0
  | Maximal number of non-zero basis functions:      820 in task     1
  | Maximal number of non-zero basis functions:      816 in task     2
  | Maximal number of non-zero basis functions:      827 in task     3
  | Maximal number of non-zero basis functions:      824 in task     4
  | Maximal number of non-zero basis functions:      824 in task     5
  | Maximal number of non-zero basis functions:      803 in task     6
  | Maximal number of non-zero basis functions:      828 in task     7
  | Maximal number of non-zero basis functions:      799 in task     8
  | Maximal number of non-zero basis functions:      804 in task     9
  | Maximal number of non-zero basis functions:      790 in task    10
  | Maximal number of non-zero basis functions:      811 in task    11
  | Maximal number of non-zero basis functions:      800 in task    12
  | Maximal number of non-zero basis functions:      812 in task    13
  | Maximal number of non-zero basis functions:      820 in task    14
  | Maximal number of non-zero basis functions:      828 in task    15
  | Maximal number of non-zero basis functions:      833 in task    16
  | Maximal number of non-zero basis functions:      810 in task    17
  | Maximal number of non-zero basis functions:      814 in task    18
  | Maximal number of non-zero basis functions:      814 in task    19
  | Maximal number of non-zero basis functions:      833 in task    20
  | Maximal number of non-zero basis functions:      809 in task    21
  | Maximal number of non-zero basis functions:      826 in task    22
  | Maximal number of non-zero basis functions:      824 in task    23
  | Maximal number of non-zero basis functions:      815 in task    24
  | Maximal number of non-zero basis functions:      821 in task    25
  | Maximal number of non-zero basis functions:      807 in task    26
  | Maximal number of non-zero basis functions:      828 in task    27
  | Maximal number of non-zero basis functions:      817 in task    28
  | Maximal number of non-zero basis functions:      798 in task    29
  | Maximal number of non-zero basis functions:      814 in task    30
  | Maximal number of non-zero basis functions:      812 in task    31
  Selecting the method for density update.
  Loop over occupied states selected for charge density update.
  Integrating Hamiltonian matrix: batch-based integration.
  Time summed over all CPUs for integration: real work       24.114 s, elapsed       24.822 s
  Integrating overlap matrix.
  Time summed over all CPUs for integration: real work       14.764 s, elapsed       15.249 s
  Deallocating overlap matrix.

  Updating Kohn-Sham eigenvalues, eigenvectors, occupation numbers, and Fermi level.
  Solving generalized eigenproblem
  Solving real symmetric generalised eigenvalue problem by standard ScaLAPACK.
  Transforming overlap matrix with ScaLAPACK and checking for singularities.
  : Overlap matrix is nonsingular, using Cholesky decomposition
  | Lowest eigenvalue:  0.900777E-04
  Factoring overlap matrix with Cholesky decomposition
  Using Cholesky factor for transformation
  Using 1-stage real ELPA solver
  Determining occupation numbers for Kohn-Sham eigenstates.
  | Chemical potential (Fermi level) in eV                 : -.94677663E+01
  | Error in electron count due to remaining E_F inaccuracy: 0.00000000E+00
  | Maximum occupation number of highest empty state:  0.00E+00

  Writing Kohn-Sham eigenvalues.

  State    Occupation    Eigenvalue [Ha]    Eigenvalue [eV]
      1       2.00000         -18.974744         -516.32906
      2       2.00000         -18.974002         -516.30886
      3       2.00000         -18.974002         -516.30885
      4       2.00000         -14.256898         -387.94993
      5       2.00000         -14.252655         -387.83447
      6       2.00000         -14.251645         -387.80699
      7       2.00000         -10.171642         -276.78447
      8       2.00000         -10.171331         -276.77600
      9       2.00000         -10.170917         -276.76472
     10       2.00000         -10.166767         -276.65180
     11       2.00000         -10.148316         -276.14972
     12       2.00000         -10.147542         -276.12867
     13       2.00000         -10.135419         -275.79879
     14       2.00000         -10.135392         -275.79805
     15       2.00000         -10.132902         -275.73029
     16       2.00000          -1.133820          -30.85280
     17       2.00000          -1.130854          -30.77211
     18       2.00000          -1.130505          -30.76260
     19       2.00000          -1.022762          -27.83078
     20       2.00000          -1.010666          -27.50161
     21       2.00000          -1.001822          -27.26097
     22       2.00000          -0.881944          -23.99891
     23       2.00000          -0.876230          -23.84343
     24       2.00000          -0.848971          -23.10169
     25       2.00000          -0.821290          -22.34844
     26       2.00000          -0.773130          -21.03793
     27       2.00000          -0.758068          -20.62807
     28       2.00000          -0.702760          -19.12306
     29       2.00000          -0.687321          -18.70296
     30       2.00000          -0.670735          -18.25163
     31       2.00000          -0.644116          -17.52728
     32       2.00000          -0.624362          -16.98976
     33       2.00000          -0.617888          -16.81359
     34       2.00000          -0.607549          -16.53225
     35       2.00000          -0.584547          -15.90633
     36       2.00000          -0.578129          -15.73169
     37       2.00000          -0.570144          -15.51439
     38       2.00000          -0.561369          -15.27563
     39       2.00000          -0.557558          -15.17192
     40       2.00000          -0.553340          -15.05715
     41       2.00000          -0.550869          -14.98990
     42       2.00000          -0.538661          -14.65771
     43       2.00000          -0.533737          -14.52371
     44       2.00000          -0.525780          -14.30721
     45       2.00000          -0.523086          -14.23390
     46       2.00000          -0.513472          -13.97228
     47       2.00000          -0.512667          -13.95038
     48       2.00000          -0.507653          -13.81394
     49       2.00000          -0.492356          -13.39770
     50       2.00000          -0.483513          -13.15707
     51       2.00000          -0.481064          -13.09042
     52       2.00000          -0.475128          -12.92889
     53       2.00000          -0.417800          -11.36891
     54       2.00000          -0.410093          -11.15920
     55       2.00000          -0.402312          -10.94748
     56       2.00000          -0.389301          -10.59342
     57       2.00000          -0.381656          -10.38538
     58       2.00000          -0.374727          -10.19685
     59       0.00000          -0.168589           -4.58754
     60       0.00000          -0.164757           -4.48325
     61       0.00000          -0.151942           -4.13455
     62       0.00000          -0.083459           -2.27104
     63       0.00000          -0.067753           -1.84365
     64       0.00000          -0.059402           -1.61640
     65       0.00000          -0.052337           -1.42418
     66       0.00000          -0.042605           -1.15934
     67       0.00000          -0.035011           -0.95270
     68       0.00000          -0.027635           -0.75200
     69       0.00000          -0.026802           -0.72933
     70       0.00000          -0.021708           -0.59070
     71       0.00000          -0.018911           -0.51458
     72       0.00000          -0.014437           -0.39284
     73       0.00000          -0.011077           -0.30143
     74       0.00000          -0.008191           -0.22288
     75       0.00000          -0.004999           -0.13603
     76       0.00000          -0.001549           -0.04215
     77       0.00000           0.001067            0.02904
     78       0.00000           0.009550            0.25986
     79       0.00000           0.010937            0.29762
     80       0.00000           0.012157            0.33081
     81       0.00000           0.017846            0.48562
     82       0.00000           0.024548            0.66798
     83       0.00000           0.025109            0.68324
     84       0.00000           0.041312            1.12415
     85       0.00000           0.044813            1.21942
     86       0.00000           0.050746            1.38088
     87       0.00000           0.058896            1.60265
     88       0.00000           0.063534            1.72886
     89       0.00000           0.068407            1.86144
     90       0.00000           0.073276            1.99395
     91       0.00000           0.078184            2.12750
     92       0.00000           0.084058            2.28733
     93       0.00000           0.087327            2.37629
     94       0.00000           0.088766            2.41543
     95       0.00000           0.090623            2.46599
     96       0.00000           0.098154            2.67092
     97       0.00000           0.102810            2.79761
     98       0.00000           0.109833            2.98871
     99       0.00000           0.116344            3.16589
    100       0.00000           0.125066            3.40323
    101       0.00000           0.130217            3.54338
    102       0.00000           0.137205            3.73355
    103       0.00000           0.140376            3.81983
    104       0.00000           0.142778            3.88518
    105       0.00000           0.149466            4.06718
    106       0.00000           0.158770            4.32034
    107       0.00000           0.160863            4.37729
    108       0.00000           0.163003            4.43554
    109       0.00000           0.173960            4.73370
    110       0.00000           0.175843            4.78494
    111       0.00000           0.176903            4.81377
    112       0.00000           0.179898            4.89529
    113       0.00000           0.187028            5.08930
    114       0.00000           0.189621            5.15984
    115       0.00000           0.196528            5.34781
    116       0.00000           0.201682            5.48806
    117       0.00000           0.205807            5.60029
    118       0.00000           0.213320            5.80473
    119       0.00000           0.214879            5.84715
    120       0.00000           0.219143            5.96319
    121       0.00000           0.222948            6.06672
    122       0.00000           0.231223            6.29189
    123       0.00000           0.234334            6.37655
    124       0.00000           0.239150            6.50761
    125       0.00000           0.245558            6.68197
    126       0.00000           0.251200            6.83549
    127       0.00000           0.262262            7.13652
    128       0.00000           0.267762            7.28619
    129       0.00000           0.274011            7.45622

  Highest occupied state (VBM) at    -10.19684783 eV
  | Occupation number:      2.00000000

  Lowest unoccupied state (CBM) at    -4.58753758 eV
  | Occupation number:      0.00000000

  Overall HOMO-LUMO gap:      5.60931025 eV.
  Calculating total energy contributions from superposition of free atom densities.

  Total energy components:
  | Sum of eigenvalues            :        -437.85585488 Ha      -11914.66402268 eV
  | XC energy correction          :         -98.82361192 Ha       -2689.12730174 eV
  | XC potential correction       :         127.02709734 Ha        3456.58318774 eV
  | Free-atom electrostatic energy:        -333.63088280 Ha       -9078.55823298 eV
  | Hartree energy correction     :           0.00000000 Ha           0.00000000 eV
  | vdW energy correction         :           0.00000000 Ha           0.00000000 eV
  | Entropy correction            :          -0.00000000 Ha          -0.00000000 eV
  | ---------------------------
  | Total energy                  :        -743.28325226 Ha      -20225.76636966 eV
  | Total energy, T -> 0          :        -743.28325226 Ha      -20225.76636966 eV  <-- do not rely on this value for anything but (periodic) metals
  | Electronic free energy        :        -743.28325226 Ha      -20225.76636966 eV

  Derived energy quantities:
  | Kinetic energy                :         735.16205156 Ha       20004.77725481 eV
  | Electrostatic energy          :       -1379.62169190 Ha      -37541.41632273 eV
  | Energy correction for multipole
  | error in Hartree potential    :           0.00000000 Ha           0.00000000 eV
  | Sum of eigenvalues per atom                           :        -372.33325071 eV
  | Total energy (T->0) per atom                          :        -632.05519905 eV  <-- do not rely on this value for anything but (periodic) metals
  | Electronic free energy per atom                       :        -632.05519905 eV
  Initialize hartree_potential_storage
  Max. number of atoms included in rho_multipole:           32

  End scf initialization - timings             :  max(cpu_time)    wall_clock(cpu1)
  | Time for scf. initialization               :        2.004 s           2.003 s
  | Boundary condition initialization          :        0.000 s           0.000 s
  | Integration                                :        1.276 s           1.273 s
  | Solution of K.-S. eqns.                    :        0.076 s           0.074 s
  | Grid partitioning                          :        0.284 s           0.276 s
  | Preloading free-atom quantities on grid    :        0.028 s           0.028 s
  | Free-atom superposition energy             :        0.040 s           0.040 s
  | Total energy evaluation                    :        0.004 s           0.001 s
------------------------------------------------------------

------------------------------------------------------------
          Begin self-consistency iteration #    1

  Date     :  20170309, Time     :  162458.515
------------------------------------------------------------
  Evaluating new KS density.
  Integration grid: deviation in total charge (<rho> - N_e) =   5.684342E-14
  Pulay mixing of updated and previous charge densities.

  Evaluating partitioned Hartree potential by multipole expansion.
  | Analytical far-field extrapolation by fixed multipoles:
  | Hartree multipole sum: apparent total charge =   0.116726E-03
  Summing up the Hartree potential.
  Time summed over all CPUs for potential: real work        9.635 s, elapsed        9.948 s
  | RMS charge density error from multipole expansion :   0.107903E-01

  Integrating Hamiltonian matrix: batch-based integration.
  Time summed over all CPUs for integration: real work       24.329 s, elapsed       25.082 s

  Updating Kohn-Sham eigenvalues, eigenvectors, occupation numbers, and Fermi level.
  Solving generalized eigenproblem
  Solving real symmetric generalised eigenvalue problem by standard ScaLAPACK.
  Using Cholesky factor for transformation
  Using 2-stage real ELPA solver
  K-Point:    1, Trafo times: 1-stage=     0.021 s, 2-stage=     0.019 s ==> Using 2-stage solver
  Determining occupation numbers for Kohn-Sham eigenstates.
  | Chemical potential (Fermi level) in eV                 : -.39032779E+01
  | Error in electron count due to remaining E_F inaccuracy: 0.00000000E+00
  | Maximum occupation number of highest empty state:  0.00E+00

  Writing Kohn-Sham eigenvalues.

  State    Occupation    Eigenvalue [Ha]    Eigenvalue [eV]
      1       2.00000         -18.637668         -507.15676
      2       2.00000         -18.611657         -506.44895
      3       2.00000         -18.609695         -506.39556
      4       2.00000         -14.014226         -381.34649
      5       2.00000         -13.995760         -380.84401
      6       2.00000         -13.983579         -380.51255
      7       2.00000         -10.078236         -274.24274
      8       2.00000         -10.052331         -273.53783
      9       2.00000         -10.047006         -273.39296
     10       2.00000          -9.979220         -271.54840
     11       2.00000          -9.978462         -271.52778
     12       2.00000          -9.872384         -268.64124
     13       2.00000          -9.849127         -268.00837
     14       2.00000          -9.845346         -267.90550
     15       2.00000          -9.833302         -267.57777
     16       2.00000          -0.983081          -26.75100
     17       2.00000          -0.956849          -26.03719
     18       2.00000          -0.955449          -25.99909
     19       2.00000          -0.886995          -24.13636
     20       2.00000          -0.865421          -23.54931
     21       2.00000          -0.855010          -23.26599
     22       2.00000          -0.742603          -20.20726
     23       2.00000          -0.731291          -19.89944
     24       2.00000          -0.696539          -18.95380
     25       2.00000          -0.668918          -18.20217
     26       2.00000          -0.640344          -17.42466
     27       2.00000          -0.623511          -16.96660
     28       2.00000          -0.584016          -15.89190
     29       2.00000          -0.554610          -15.09171
     30       2.00000          -0.548374          -14.92202
     31       2.00000          -0.520477          -14.16291
     32       2.00000          -0.497384          -13.53452
     33       2.00000          -0.495051          -13.47101
     34       2.00000          -0.467901          -12.73223
     35       2.00000          -0.440258          -11.98004
     36       2.00000          -0.437826          -11.91385
     37       2.00000          -0.427594          -11.63542
     38       2.00000          -0.417191          -11.35235
     39       2.00000          -0.408050          -11.10361
     40       2.00000          -0.400085          -10.88686
     41       2.00000          -0.397484          -10.81608
     42       2.00000          -0.392433          -10.67865
     43       2.00000          -0.383630          -10.43910
     44       2.00000          -0.380528          -10.35469
     45       2.00000          -0.378608          -10.30246
     46       2.00000          -0.375473          -10.21714
     47       2.00000          -0.365120           -9.93541
     48       2.00000          -0.356981           -9.71394
     49       2.00000          -0.354449           -9.64506
     50       2.00000          -0.348450           -9.48181
     51       2.00000          -0.338589           -9.21348
     52       2.00000          -0.332985           -9.06097
     53       2.00000          -0.262157           -7.13365
     54       2.00000          -0.245522           -6.68098
     55       2.00000          -0.229329           -6.24035
     56       2.00000          -0.221347           -6.02317
     57       2.00000          -0.208167           -5.66452
     58       2.00000          -0.206360           -5.61535
     59       0.00000          -0.071698           -1.95100
     60       0.00000          -0.054172           -1.47410
     61       0.00000          -0.040691           -1.10725
     62       0.00000          -0.035657           -0.97028
     63       0.00000          -0.027351           -0.74427
     64       0.00000          -0.014446           -0.39308
     65       0.00000          -0.002178           -0.05927
     66       0.00000           0.003548            0.09654
     67       0.00000           0.012239            0.33304
     68       0.00000           0.014273            0.38838
     69       0.00000           0.022013            0.59900
     70       0.00000           0.034551            0.94017
     71       0.00000           0.038320            1.04273
     72       0.00000           0.039991            1.08821
     73       0.00000           0.045981            1.25120
     74       0.00000           0.048396            1.31693
     75       0.00000           0.051266            1.39503
     76       0.00000           0.060887            1.65682
     77       0.00000           0.064345            1.75092
     78       0.00000           0.076330            2.07706
     79       0.00000           0.079811            2.17177
     80       0.00000           0.087339            2.37660
     81       0.00000           0.091674            2.49458
     82       0.00000           0.096324            2.62111
     83       0.00000           0.101202            2.75385
     84       0.00000           0.102428            2.78722
     85       0.00000           0.111187            3.02555
     86       0.00000           0.117163            3.18816
     87       0.00000           0.121508            3.30641
     88       0.00000           0.121807            3.31455
     89       0.00000           0.127128            3.45933
     90       0.00000           0.137133            3.73159
     91       0.00000           0.139173            3.78709
     92       0.00000           0.141383            3.84723
     93       0.00000           0.146849            3.99596
     94       0.00000           0.151952            4.13484
     95       0.00000           0.161299            4.38918
     96       0.00000           0.166767            4.53796
     97       0.00000           0.170666            4.64406
     98       0.00000           0.177925            4.84158
     99       0.00000           0.180970            4.92443
    100       0.00000           0.191265            5.20458
    101       0.00000           0.192864            5.24810
    102       0.00000           0.194486            5.29224
    103       0.00000           0.197635            5.37791
    104       0.00000           0.204661            5.56910
    105       0.00000           0.207418            5.64413
    106       0.00000           0.215517            5.86452
    107       0.00000           0.219166            5.96381
    108       0.00000           0.222624            6.05791
    109       0.00000           0.229696            6.25035
    110       0.00000           0.237953            6.47502
    111       0.00000           0.242216            6.59103
    112       0.00000           0.243488            6.62564
    113       0.00000           0.246017            6.69447
    114       0.00000           0.255444            6.95099
    115       0.00000           0.260121            7.07826
    116       0.00000           0.265427            7.22264
    117       0.00000           0.268732            7.31257
    118       0.00000           0.276684            7.52895
    119       0.00000           0.280773            7.64021
    120       0.00000           0.282889            7.69780
    121       0.00000           0.290923            7.91641
    122       0.00000           0.294090            8.00259
    123       0.00000           0.298435            8.12084
    124       0.00000           0.300229            8.16964
    125       0.00000           0.315772            8.59260
    126       0.00000           0.318828            8.67574
    127       0.00000           0.326230            8.87716
    128       0.00000           0.332895            9.05853
    129       0.00000           0.339580            9.24044

  Highest occupied state (VBM) at     -5.61534704 eV
  | Occupation number:      2.00000000

  Lowest unoccupied state (CBM) at    -1.95099700 eV
  | Occupation number:      0.00000000

  Overall HOMO-LUMO gap:      3.66435005 eV.

  Total energy components:
  | Sum of eigenvalues            :        -417.94088123 Ha      -11372.75001755 eV
  | XC energy correction          :        -100.75047939 Ha       -2741.56003324 eV
  | XC potential correction       :         129.52536808 Ha        3524.56459325 eV
  | Free-atom electrostatic energy:        -333.63088280 Ha       -9078.55823298 eV
  | Hartree energy correction     :         -19.91925326 Ha        -542.03045952 eV
  | vdW energy correction         :           0.00000000 Ha           0.00000000 eV
  | Entropy correction            :           0.00000000 Ha           0.00000000 eV
  | ---------------------------
  | Total energy                  :        -742.71612861 Ha      -20210.33415004 eV
  | Total energy, T -> 0          :        -742.71612861 Ha      -20210.33415004 eV  <-- do not rely on this value for anything but (periodic) metals
  | Electronic free energy        :        -742.71612861 Ha      -20210.33415004 eV

  Derived energy quantities:
  | Kinetic energy                :         744.01284120 Ha       20245.61949473 eV
  | Electrostatic energy          :       -1385.97849042 Ha      -37714.39361153 eV
  | Energy correction for multipole
  | error in Hartree potential    :          -0.04197566 Ha          -1.14221594 eV
  | Sum of eigenvalues per atom                           :        -355.39843805 eV
  | Total energy (T->0) per atom                          :        -631.57294219 eV  <-- do not rely on this value for anything but (periodic) metals
  | Electronic free energy per atom                       :        -631.57294219 eV

  Self-consistency convergence accuracy:
  | Change of charge density      :  0.9026E+00
  | Change of sum of eigenvalues  :  0.5419E+03 eV
  | Change of total energy        :  0.1543E+02 eV

  End self-consistency iteration #     1       :  max(cpu_time)    wall_clock(cpu1)
  | Time for this iteration                    :        1.676 s           1.671 s
  | Charge density update                      :        0.524 s           0.518 s
[...]
   ----------------------------------------------------------------
   Total forces(  20)            :  0.234521E-02 -0.223270E-02 -0.129297E-02
  atom #   21
   Hellmann-Feynman              :  0.101497E-01  0.532825E-01 -0.290208E-01
   Ionic forces                  :  0.000000E+00  0.000000E+00  0.000000E+00
   Multipole                     : -0.123784E-01 -0.556978E-02  0.364517E-01
   Pulay + GGA                   : -0.821006E-02 -0.598905E-01 -0.589896E-02
   Van der Waals                 :  0.904571E-02  0.108539E-01 -0.210145E-02
   ----------------------------------------------------------------
   Total forces(  21)            : -0.139309E-02 -0.132392E-02 -0.569508E-03
  atom #   22
   Hellmann-Feynman              : -0.286068E-02 -0.641761E-01  0.292093E-01
   Ionic forces                  :  0.000000E+00  0.000000E+00  0.000000E+00
   Multipole                     :  0.723841E-02 -0.217801E-02  0.366996E-02
   Pulay + GGA                   : -0.776210E-02  0.679079E-01 -0.354661E-01
   Van der Waals                 :  0.253718E-02 -0.950525E-03  0.270464E-02
   ----------------------------------------------------------------
   Total forces(  22)            : -0.847184E-03  0.603237E-03  0.117810E-03
  atom #   23
   Hellmann-Feynman              : -0.996313E+00 -0.529294E+00  0.179495E+00
   Ionic forces                  :  0.000000E+00  0.000000E+00  0.000000E+00
   Multipole                     :  0.179783E+00  0.203853E+00 -0.292970E-01
   Pulay + GGA                   :  0.809106E+00  0.323579E+00 -0.141367E+00
   Van der Waals                 :  0.880183E-02  0.221459E-02 -0.954367E-02
   ----------------------------------------------------------------
   Total forces(  23)            :  0.137745E-02  0.352334E-03 -0.712721E-03
  atom #   24
   Hellmann-Feynman              :  0.607564E-01  0.358991E-01 -0.773628E-02
   Ionic forces                  :  0.000000E+00  0.000000E+00  0.000000E+00
   Multipole                     : -0.984252E-02 -0.319723E-01 -0.234113E-01
   Pulay + GGA                   : -0.473975E-01  0.382783E-02  0.356531E-01
   Van der Waals                 : -0.384732E-02 -0.709592E-02 -0.438676E-02
   ----------------------------------------------------------------
   Total forces(  24)            : -0.330922E-03  0.658707E-03  0.118771E-03
  atom #   25
   Hellmann-Feynman              : -0.794420E-02  0.444015E-01  0.141835E-01
   Ionic forces                  :  0.000000E+00  0.000000E+00  0.000000E+00
   Multipole                     : -0.203618E-01  0.150998E-01 -0.909509E-02
   Pulay + GGA                   :  0.300132E-01 -0.567169E-01 -0.110172E-01
   Van der Waals                 : -0.196996E-02 -0.204018E-02  0.636154E-02
   ----------------------------------------------------------------
   Total forces(  25)            : -0.262753E-03  0.744204E-03  0.432815E-03
  atom #   26
   Hellmann-Feynman              :  0.354749E-01  0.280529E-01  0.211591E-01
   Ionic forces                  :  0.000000E+00  0.000000E+00  0.000000E+00
   Multipole                     : -0.127821E-02 -0.254193E-01  0.275145E-01
   Pulay + GGA                   : -0.301473E-01 -0.190550E-02 -0.506487E-01
   Van der Waals                 : -0.389925E-02 -0.100102E-02  0.214894E-02
   ----------------------------------------------------------------
   Total forces(  26)            :  0.150129E-03 -0.272861E-03  0.173924E-03
  atom #   27
   Hellmann-Feynman              : -0.147801E+01 -0.124982E+01 -0.111271E+00
   Ionic forces                  :  0.000000E+00  0.000000E+00  0.000000E+00
   Multipole                     : -0.232190E+00  0.121302E+00 -0.352975E-01
   Pulay + GGA                   :  0.171099E+01  0.111731E+01  0.171599E+00
   Van der Waals                 : -0.100395E-02  0.137832E-01 -0.208855E-01
   ----------------------------------------------------------------
   Total forces(  27)            : -0.210056E-03  0.257333E-02  0.414474E-02
  atom #   28
   Hellmann-Feynman              :  0.128384E+01  0.288124E+00  0.221216E+01
   Ionic forces                  :  0.000000E+00  0.000000E+00  0.000000E+00
   Multipole                     : -0.923467E-01 -0.224334E-01 -0.175222E+00
   Pulay + GGA                   : -0.119568E+01 -0.275513E+00 -0.201667E+01
   Van der Waals                 :  0.110392E-02  0.854833E-02 -0.243703E-01
   ----------------------------------------------------------------
   Total forces(  28)            : -0.308871E-02 -0.127334E-02 -0.410135E-02
  atom #   29
   Hellmann-Feynman              : -0.377427E-01  0.233355E-01  0.179363E-01
   Ionic forces                  :  0.000000E+00  0.000000E+00  0.000000E+00
   Multipole                     :  0.208242E-01 -0.941380E-02  0.408606E-01
   Pulay + GGA                   :  0.174836E-01 -0.278776E-01 -0.506799E-01
   Van der Waals                 : -0.999570E-03  0.137424E-01 -0.793765E-02
   ----------------------------------------------------------------
   Total forces(  29)            : -0.434533E-03 -0.213452E-03  0.179370E-03
  atom #   30
   Hellmann-Feynman              : -0.362583E-01  0.205315E-01 -0.331153E-01
   Ionic forces                  :  0.000000E+00  0.000000E+00  0.000000E+00
   Multipole                     :  0.992995E-02  0.329163E-01  0.207913E-01
   Pulay + GGA                   :  0.293439E-01 -0.566072E-01  0.123404E-01
   Van der Waals                 : -0.279130E-02  0.341473E-02 -0.206982E-03
   ----------------------------------------------------------------
   Total forces(  30)            :  0.224256E-03  0.255325E-03 -0.190532E-03
  atom #   31
   Hellmann-Feynman              : -0.263421E-01  0.415260E-02 -0.601534E-01
   Ionic forces                  :  0.000000E+00  0.000000E+00  0.000000E+00
   Multipole                     :  0.467135E-01 -0.726978E-02  0.294464E-02
   Pulay + GGA                   : -0.226707E-01  0.263616E-02  0.605652E-01
   Van der Waals                 :  0.331926E-02  0.874947E-04 -0.370712E-02
   ----------------------------------------------------------------
   Total forces(  31)            :  0.102002E-02 -0.393515E-03 -0.350734E-03
  atom #   32
   Hellmann-Feynman              : -0.455182E-01  0.173679E-01 -0.306992E-01
   Ionic forces                  :  0.000000E+00  0.000000E+00  0.000000E+00
   Multipole                     : -0.714678E-02 -0.303826E-01  0.196763E-01
   Pulay + GGA                   :  0.519286E-01  0.106779E-01  0.104125E-01
   Van der Waals                 :  0.132309E-02  0.260391E-02  0.561188E-03
   ----------------------------------------------------------------
   Total forces(  32)            :  0.586756E-03  0.267159E-03 -0.492686E-04

  Timings for VdW correction (Tkatchenko-Scheffler 2009 or later):
  | CPU time:        0.132 s, Wall clock time:        0.130 s.
  Removing unitary transformations (pure translations, rotations) from forces on atoms.
  Atomic forces before filtering:
  | Net force on center of mass :  -0.467442E-03 -0.280928E-03  0.591848E-04 eV/A
  | Net torque on center of mass:   0.397326E-02  0.147168E-02 -0.188218E-02 eV
  Atomic forces after filtering:
  | Net force on center of mass :  -0.609787E-18  0.392006E-18 -0.178580E-17 eV/A
  | Net torque on center of mass:   0.497857E-17 -0.633846E-19  0.636151E-17 eV

  Energy and forces in a compact form:
  | Total energy uncorrected      :         -0.202086943905584E+05 eV
  | Total energy corrected        :         -0.202086943905584E+05 eV  <-- do not rely on this value for anything but (periodic) metals
  | Electronic free energy        :         -0.202086943905584E+05 eV
  Total atomic forces (unitary forces cleaned) [eV/Ang]:
  |   1          0.107801397153793E-02          0.306813496976808E-02          0.141737196945101E-02
  |   2          0.965262353983734E-03          0.806978101823275E-03          0.261280079188811E-02
  |   3         -0.576939541876068E-03         -0.180797452830144E-03         -0.449586749943456E-02
  |   4         -0.558684664132639E-03          0.106780947469854E-03         -0.817116305832738E-04
  |   5         -0.893817940244589E-03          0.693236637066011E-03         -0.622551980120631E-03
  |   6         -0.886825148653701E-03         -0.238986286936574E-02          0.170013457678192E-02
  |   7          0.733744001067164E-03         -0.544927829264093E-03         -0.227867697714591E-03
  |   8          0.136461644965987E-02         -0.161874225530163E-02          0.215865798935271E-02
  |   9         -0.701511520597550E-03          0.246540903091346E-02          0.161698833464515E-02
  |  10          0.445118038072946E-03         -0.973599296242832E-03         -0.101155599805642E-02
  |  11          0.101585740349744E-02         -0.899940475609749E-03         -0.272992120880960E-02
  |  12         -0.737416981016134E-03         -0.608849558831861E-03          0.526546681485379E-03
  |  13         -0.867378068696950E-04         -0.108973940797232E-02         -0.669640641979548E-03
  |  14          0.131997788430025E-03         -0.201200603752439E-03          0.460227079646958E-03
  |  15         -0.545079593029193E-04          0.146329248013037E-02          0.147857971310249E-02
  |  16         -0.372487540474235E-03          0.142048346981938E-03         -0.570297523584942E-03
  |  17          0.213096575402911E-02          0.103748805124625E-02          0.752061838218273E-03
  |  18         -0.805282028918744E-03         -0.184170460058098E-02         -0.228405149308437E-03
  |  19         -0.150872740408268E-02          0.432635518229870E-03         -0.189881981029620E-03
  |  20          0.232417650610973E-02         -0.218511267917343E-02         -0.131960288997529E-02
  |  21         -0.133306111668709E-02         -0.135903060413591E-02         -0.534831029501635E-03
  |  22         -0.839080380851525E-03          0.581187320777958E-03          0.778900497451078E-04
  |  23          0.141107827061217E-02          0.326343785000190E-03         -0.713782765309530E-03
  |  24         -0.312865512543739E-03          0.644323091883808E-03          0.102146526359577E-03
  |  25         -0.216055314653407E-03          0.727913555846233E-03          0.462019794055918E-03
  |  26          0.195735932344094E-03         -0.330727871462188E-03          0.164528086260652E-03
  |  27         -0.201085008562457E-03          0.262779405761018E-02          0.417396285157701E-02
  |  28         -0.309665090257986E-02         -0.117666357484041E-02         -0.406281480386321E-02
  |  29         -0.408732469252183E-03         -0.173843132954886E-03          0.223371790861627E-03
  |  30          0.228282206881013E-03          0.363668238157750E-03         -0.121830523220568E-03
  |  31          0.996524983424951E-03         -0.286337237458809E-03         -0.328714246129388E-03
  |  32          0.569095581649032E-03          0.373845316872192E-03         -0.180105048106533E-04

  ------------------------------------ 
  Start decomposition of the XC Energy 
  ------------------------------------ 
  Hartree-Fock part   :          0.000000000 Ha              0.000000000 eV
  ------------------------------------ 
  X Energy            :        -96.984526907 Ha          -2639.083252217 eV
  C Energy GGA        :         -3.871092114 Ha           -105.337775961 eV
  Total XC Energy     :       -100.855619021 Ha          -2744.421028178 eV
  LDA X and C from self-consistent density 
  X Energy LDA        :        -88.005254885 Ha          -2394.744828683 eV
  C Energy LDA        :         -7.532643081 Ha           -204.973647166 eV
  ------------------------------------ 
  End decomposition of the XC Energy 
  ------------------------------------ 
   
  ESP charge fitting starts.
  | Calculation :  00000001  of  00000001
  | Full density
  Computing multipole expansion for total density.
  Generating points for esp charges.
  Partitioning the integration grid into batches with parallel hashing+maxmin method.
  | Number of batches:     3918
  | Maximal batch size:     196
  | Minimal batch size:      53
  | Average batch size:     124.586
  | Standard deviation of batch sizes:      16.735

  Integration load balanced across    32 MPI tasks.
  Work distribution over tasks is as follows:
  Initializing partition tables, free-atom densities, potentials, etc. across the integration grid (initialize_grid_storage).
  | Original list of interatomic distances with          32 x         32 entries is created.
  | Net number of integration points:   488126
  | of which are non-zero points    :   488126
  Summing up potential from multipole expanded  density.
  Summing up the Hartree potential.
  Time summed over all CPUs for potential: real work        6.344 s, elapsed        6.845 s
  Fitting esp charges to potential.
  |
  | ESP charges fitted to the electrostatic potential :
  |
  | Atom         1: C, ESP charge:      0.56700069
  |
  | Atom         2: C, ESP charge:     -0.62660445
  |
  | Atom         3: O, ESP charge:      0.55990910
  |
  | Atom         4: H, ESP charge:     -0.15576745
  |
  | Atom         5: H, ESP charge:     -0.16576856
  |
  | Atom         6: H, ESP charge:     -0.16888119
  |
  | Atom         7: N, ESP charge:      0.31108918
  |
  | Atom         8: C, ESP charge:      0.13790724
  |
  | Atom         9: C, ESP charge:     -0.89913743
  |
  | Atom        10: O, ESP charge:      0.58051384
  |
  | Atom        11: H, ESP charge:     -0.23318527
  |
  | Atom        12: H, ESP charge:     -0.19331722
  |
  | Atom        13: C, ESP charge:      0.50040879
  |
  | Atom        14: H, ESP charge:     -0.16785162
  |
  | Atom        15: H, ESP charge:     -0.14661801
  |
  | Atom        16: H, ESP charge:     -0.13989440
  |
  | Atom        17: N, ESP charge:      0.96161045
  |
  | Atom        18: C, ESP charge:     -0.36904764
  |
  | Atom        19: C, ESP charge:     -0.57113267
  |
  | Atom        20: O, ESP charge:      0.55690237
  |
  | Atom        21: H, ESP charge:     -0.37944158
  |
  | Atom        22: H, ESP charge:      0.04285075
  |
  | Atom        23: C, ESP charge:      0.43523296
  |
  | Atom        24: H, ESP charge:     -0.12706564
  |
  | Atom        25: H, ESP charge:     -0.11137649
  |
  | Atom        26: H, ESP charge:     -0.14685209
  |
  | Atom        27: N, ESP charge:      0.31233070
  |
  | Atom        28: C, ESP charge:      0.57814037
  |
  | Atom        29: H, ESP charge:     -0.30760999
  |
  | Atom        30: H, ESP charge:     -0.18538322
  |
  | Atom        31: H, ESP charge:     -0.22836927
  |
  | Atom        32: H, ESP charge:     -0.22059227

  RRMS:       0.00798870

  Done.

------------------------------------------------------------------------------
  Final output of selected total energy values:

  The following output summarizes some interesting total energy values
  at the end of a run (AFTER all relaxation, molecular dynamics, etc.).

  | Total energy of the DFT / Hartree-Fock s.c.f. calculation      :         -20208.694390558 eV
  | Final zero-broadening corrected energy (caution - metals only) :         -20208.694390558 eV
  | For reference only, the value of 1 Hartree used in FHI-aims is :             27.211384500 eV

  Before relying on these values, please be sure to understand exactly which
  total energy value is referred to by a given number. Different objects may
  all carry the same name 'total energy'. Definitions:

  Total energy of the DFT / Hartree-Fock s.c.f. calculation:
  | Note that this energy does not include ANY quantities calculated after the
  | s.c.f. cycle, in particular not ANY RPA, MP2, etc. many-body perturbation terms.

  Final zero-broadening corrected energy:
  | For metallic systems only, a broadening of the occupation numbers at the Fermi
  | level can be extrapolated back to zero broadening by an electron-gas inspired
  | formula. For all systems that are not real metals, this value can be
  | meaningless and should be avoided.

------------------------------------------------------------------------------
  Methods described in the following list of references were used in this FHI-aims run.
  If you publish the results, please make sure to cite these reference if they apply.
  FHI-aims is an academic code, and for our developers (often, Ph.D. students
  and postdocs), scientific credit in the community is essential.
  Thank you for helping us!

  For any use of FHI-aims, please cite:

    Volker Blum, Ralf Gehrke, Felix Hanke, Paula Havu, Ville Havu,
    Xinguo Ren, Karsten Reuter, and Matthias Scheffler
    'Ab initio molecular simulations with numeric atom-centered orbitals'
    Computer Physics Communications 180, 2175-2196 (2009)
    http://dx.doi.org/10.1016/j.cpc.2009.06.022


  The scalable eigensolver library ELPA was used in your run.
  ELPA is essential especially for large systems on hundreds or thousands of CPUs.
  For ELPA, please cite:

    Andreas Marek, Volker Blum, Rainer Johanni, Ville Havu, Bruno Lang,
    Thomas Auckenthaler, Alexander Heinecke, Hans-Joachim Bungartz, and Hermann Lederer,
    'The ELPA Library - Scalable Parallel Eigenvalue Solutions
    for Electronic Structure Theory and Computational Science'
    The Journal of Physics: Condensed Matter 26, 213201 (2014).
    http://dx.doi.org/10.1088/0953-8984/26/21/213201


  For ELPA's efficient two-stage tridiagonalization used in your run, please cite:

    T. Auckenthaler, V. Blum, H.-J. Bungartz, T. Huckle, R. Johanni, L. Kraemer,
    B. Lang, H. Lederer, and P. R. Willems,
    'Parallel solution of partial symmetric eigenvalue problems'
    'from  electronic structure calculations'
    Parallel Computing 37, 783-794 (2011).
    http://dx.doi.org/10.1016/j.parco.2011.05.002


  For the real-space grid partitioning and parallelization used in this calculation, please cite:

    Ville Havu, Volker Blum, Paula Havu, and Matthias Scheffler,
    'Efficient O(N) integration for all-electron electronic structure calculation'
    'using numerically tabulated basis functions'
    Journal of Computational Physics 228, 8367-8379 (2009).
    http://dx.doi.org/10.1016/j.jcp.2009.08.008

  Of course, there are many other important community references, e.g., those cited in the
  above references. Our list is limited to references that describe implementations in the
  FHI-aims code. The reason is purely practical (length of this list) - please credit others as well.

------------------------------------------------------------
          Leaving FHI-aims.
          Date     :  20170309, Time     :  162528.375

          Computational steps:
          | Number of self-consistency cycles          :           14

          Detailed time accounting                     :  max(cpu_time)    wall_clock(cpu1)
          | Total time                                 :       32.734 s          32.904 s
          | Preparation time                           :        0.236 s           0.239 s
          | Grid partitioning                          :        0.284 s           0.276 s
          | Preloading free-atom quantities on grid    :        0.028 s           0.028 s
          | Free-atom superposition energy             :        0.040 s           0.040 s
          | Total time for integrations                :       12.409 s          12.385 s
          | Total time for solution of K.-S. equations :        0.528 s           0.499 s
          | Total time for density & force components  :       10.493 s          10.473 s
          | Total time for mixing                      :        0.128 s           0.110 s
          | Total time for Hartree multipole update    :        0.076 s           0.058 s
          | Total time for Hartree multipole sum       :        6.388 s           6.375 s
          | Total time for total energy evaluation     :        0.028 s           0.025 s
          | Total time for vdW correction              :        0.132 s           0.130 s

          Have a nice day.
------------------------------------------------------------
