  MPI-parallelism will be employed.
------------------------------------------------------------
          Invoking FHI-aims ...
          Version 150427
          Git rev.: 9dd23e0 BL: Update Version stamp
          Compiled on 2015/11/03 at 22:05:20 on host eos03.

          When using FHI-aims, please cite the following reference:

          Volker Blum, Ralf Gehrke, Felix Hanke, Paula Havu,
          Ville Havu, Xinguo Ren, Karsten Reuter, and Matthias Scheffler,
          'Ab Initio Molecular Simulations with Numeric Atom-Centered Orbitals: FHI-aims',
          Computer Physics Communications 180, 2175-2196 (2009)

          For any questions about FHI-aims, please visit the aimsclub website
          with its forums and wiki. Contributions to both the forums and the
          wiki are warmly encouraged - they are for you, and everyone is welcome there.

------------------------------------------------------------

  Date     :  20170309, Time     :  180525.315
  Time zero on CPU 1             :   0.320019000000000E+00  s.
  Internal wall clock time zero  :           258314725.315  s.

  Using       32 parallel tasks.
  Task        0 on host eos399 reporting.
  Task        1 on host eos399 reporting.
  Task        2 on host eos399 reporting.
  Task        3 on host eos399 reporting.
  Task        4 on host eos399 reporting.
  Task        5 on host eos399 reporting.
  Task        6 on host eos399 reporting.
  Task        7 on host eos399 reporting.
  Task        8 on host eos399 reporting.
  Task        9 on host eos399 reporting.
  Task       10 on host eos399 reporting.
  Task       11 on host eos399 reporting.
  Task       12 on host eos399 reporting.
  Task       13 on host eos399 reporting.
  Task       14 on host eos399 reporting.
  Task       15 on host eos399 reporting.
  Task       16 on host eos399 reporting.
  Task       17 on host eos399 reporting.
  Task       18 on host eos399 reporting.
  Task       19 on host eos399 reporting.
  Task       20 on host eos399 reporting.
  Task       21 on host eos399 reporting.
  Task       22 on host eos399 reporting.
  Task       23 on host eos399 reporting.
  Task       24 on host eos399 reporting.
  Task       25 on host eos399 reporting.
  Task       26 on host eos399 reporting.
  Task       27 on host eos399 reporting.
  Task       28 on host eos399 reporting.
  Task       29 on host eos399 reporting.
  Task       30 on host eos399 reporting.
  Task       31 on host eos399 reporting.

  Performing system and environment tests:
  | Environment variable OMP_NUM_THREADS correctly set to 1.
  | Stacksize not measured: no C compiler
  | Checking for scalapack...
  | Testing pdtran()...
  | All pdtran() tests passed.

  Obtaining array dimensions for all initial allocations:
  
  -----------------------------------------------------------------------
  Parsing control.in (first pass over file, find array dimensions only).
  The contents of control.in will be repeated verbatim below
  unless switched off by setting 'verbatim_writeout .false.' .
  in the first line of control.in .
  -----------------------------------------------------------------------
  
  #########################################################################################
  #
  # Input for System
  #
  #########################################################################################
  #
  #
  #  Physical model
  #
    xc                 pbe
    vdw_correction_hirshfeld
    spin               none
    charge             0.
  #
  #  SCF convergence
  #
    occupation_type    gaussian 0.05
    mixer              pulay
      n_max_pulay        10
      charge_mix_param   0.5
    sc_accuracy_rho    1E-4
    sc_accuracy_eev    1E-2
    sc_accuracy_etot   1E-5
    sc_accuracy_forces 1E-4
    sc_iter_limit      1000
  #
  #  ESP charge
  #
    output esp
    esp equal_grid_n 80 80 80
  #
  #
  ################################################################################
  #
  #  FHI-aims code project
  # Volker Blum, Fritz Haber Institute Berlin, 2009
  #
  #  Suggested "tight" defaults for H atom (to be pasted into control.in file)
  #
  ################################################################################
    species        H
  #     global species definitions
      nucleus             1
      mass                1.00794
  #
      l_hartree           6
  #
      cut_pot             4.0  2.0  1.0
      basis_dep_cutoff    1e-4
  #
      radial_base         24 7.0
      radial_multiplier   2
      angular_grids       specified
        division   0.1930   50
        division   0.3175  110
        division   0.4293  194
        division   0.5066  302
        division   0.5626  434
  #      division   0.5922  590
  #      division   0.6227  974
  #      division   0.6868 1202
  #      outer_grid  770
        outer_grid  434
  ################################################################################
  #
  #  Definition of "minimal" basis
  #
  ################################################################################
  #     valence basis states
      valence      1  s   1.
  #     ion occupancy
      ion_occ      1  s   0.5
  ################################################################################
  #
  #  Suggested additional basis functions. For production calculations,
  #  uncomment them one after another (the most important basis functions are
  #  listed first).
  #
  #  Basis constructed for dimers: 0.5 A, 0.7 A, 1.0 A, 1.5 A, 2.5 A
  #
  ################################################################################
  #  "First tier" - improvements: -1014.90 meV to -62.69 meV
       hydro 2 s 2.1
       hydro 2 p 3.5
  #  "Second tier" - improvements: -12.89 meV to -1.83 meV
       hydro 1 s 0.85
       hydro 2 p 3.7
       hydro 2 s 1.2
       hydro 3 d 7
  #  "Third tier" - improvements: -0.25 meV to -0.12 meV
  #     hydro 4 f 11.2
  #     hydro 3 p 4.8
  #     hydro 4 d 9
  #     hydro 3 s 3.2
  ################################################################################
  #
  # For methods that use the localized form of the "resolution of identity" for
  # the two-electron Coulomb operator (RI_method LVL), particularly Hartree-Fock and
  # hybrid density functional calculations, the highest accuracy can be obtained by
  # uncommenting the line beginning with "for_aux"  below, thus adding an extra g radial
  # function to the construction of the product basis set for the expansion.
  # See Ref. New J. Phys. 17, 093020 (2015) for more information, particularly Figs. 1 and 6.
  #
  ################################################################################
  #
  # for_aux hydro 5 g 6.0
  ################################################################################
  #
  #  FHI-aims code project
  # Volker Blum, Fritz Haber Institute Berlin, 2009
  #
  #  Suggested "tight" defaults for C atom (to be pasted into control.in file)
  #
  ################################################################################
    species        C
  #     global species definitions
      nucleus             6
      mass                12.0107
  #
      l_hartree           6
  #
      cut_pot             4.0  2.0  1.0
      basis_dep_cutoff    1e-4
  #
      radial_base         34 7.0
      radial_multiplier   2
      angular_grids specified
        division   0.2187   50
        division   0.4416  110
        division   0.6335  194
        division   0.7727  302
        division   0.8772  434
  #      division   0.9334  590
  #      division   0.9924  770
  #      division   1.0230  974
  #      division   1.5020 1202
  #     outer_grid  974
        outer_grid  434
  ################################################################################
  #
  #  Definition of "minimal" basis
  #
  ################################################################################
  #     valence basis states
      valence      2  s   2.
      valence      2  p   2.
  #     ion occupancy
      ion_occ      2  s   1.
      ion_occ      2  p   1.
  ################################################################################
  #
  #  Suggested additional basis functions. For production calculations,
  #  uncomment them one after another (the most important basis functions are
  #  listed first).
  #
  #  Constructed for dimers: 1.0 A, 1.25 A, 1.5 A, 2.0 A, 3.0 A
  #
  ################################################################################
  #  "First tier" - improvements: -1214.57 meV to -155.61 meV
       hydro 2 p 1.7
       hydro 3 d 6
       hydro 2 s 4.9
  #  "Second tier" - improvements: -67.75 meV to -5.23 meV
       hydro 4 f 9.8
       hydro 3 p 5.2
       hydro 3 s 4.3
       hydro 5 g 14.4
       hydro 3 d 6.2
  #  "Third tier" - improvements: -2.43 meV to -0.60 meV
  #     hydro 2 p 5.6
  #     hydro 2 s 1.4
  #     hydro 3 d 4.9
  #     hydro 4 f 11.2
  #  "Fourth tier" - improvements: -0.39 meV to -0.18 meV
  #     hydro 2 p 2.1
  #     hydro 5 g 16.4
  #     hydro 4 d 13.2
  #     hydro 3 s 13.6
  #     hydro 4 f 17.6
  #  Further basis functions - improvements: -0.08 meV and below
  #     hydro 3 s 2
  #     hydro 3 p 6
  #     hydro 4 d 20
  ################################################################################
  #
  # For methods that use the localized form of the "resolution of identity" for
  # the two-electron Coulomb operator (RI_method LVL), particularly Hartree-Fock and
  # hybrid density functional calculations, the highest accuracy can be obtained by
  # uncommenting the line beginning with "for_aux"  below, thus adding an extra g radial
  # function to the construction of the product basis set for the expansion.
  # See Ref. New J. Phys. 17, 093020 (2015) for more information, particularly Figs. 1 and 6.
  #
  ################################################################################
  #
  # for_aux hydro 5 g 6.0
  ################################################################################
  #
  #  FHI-aims code project
  # Volker Blum, Fritz Haber Institute Berlin, 2009
  #
  #  Suggested "tight" defaults for N atom (to be pasted into control.in file)
  #
  ################################################################################
    species        N
  #     global species definitions
      nucleus             7
      mass                14.0067
  #
      l_hartree           6
  #
      cut_pot             4.0  2.0  1.0
      basis_dep_cutoff    1e-4
  #
      radial_base         35 7.0
      radial_multiplier   2
      angular_grids       specified
        division   0.1841   50
        division   0.3514  110
        division   0.5126  194
        division   0.6292  302
        division   0.6939  434
  #      division   0.7396  590
  #      division   0.7632  770
  #      division   0.8122  974
  #      division   1.1604 1202
  #      outer_grid  974
        outer_grid  434
  ################################################################################
  #
  #  Definition of "minimal" basis
  #
  ################################################################################
  #     valence basis states
      valence      2  s   2.
      valence      2  p   3.
  #     ion occupancy
      ion_occ      2  s   1.
      ion_occ      2  p   2.
  ################################################################################
  #
  #  Suggested additional basis functions. For production calculations,
  #  uncomment them one after another (the most important basis functions are
  #  listed first).
  #
  #  Constructed for dimers: 1.0 A, 1.1 A, 1.5 A, 2.0 A, 3.0 A
  #
  ################################################################################
  #  "First tier" - improvements: -1193.42 meV to -220.60 meV
       hydro 2 p 1.8
       hydro 3 d 6.8
       hydro 3 s 5.8
  #  "Second tier" - improvements: -80.21 meV to -6.86 meV
       hydro 4 f 10.8
       hydro 3 p 5.8
       hydro 1 s 0.8
       hydro 5 g 16
       hydro 3 d 4.9
  #  "Third tier" - improvements: -4.29 meV to -0.53 meV
  #     hydro 3 s 16
  #     ionic 2 p auto
  #     hydro 3 d 6.6
  #     hydro 4 f 11.6
  #  "Fourth tier" - improvements: -0.75 meV to -0.25 meV
  #     hydro 2 p 4.5
  #     hydro 2 s 2.4
  #     hydro 5 g 14.4
  #     hydro 4 d 14.4
  #     hydro 4 f 16.8
  # Further basis functions - -0.21 meV and below
  #     hydro 3 p 14.8
  #     hydro 3 s 4.4
  #     hydro 3 d 19.6
  #     hydro 5 g 12.8
  ################################################################################
  #
  # For methods that use the localized form of the "resolution of identity" for
  # the two-electron Coulomb operator (RI_method LVL), particularly Hartree-Fock and
  # hybrid density functional calculations, the highest accuracy can be obtained by
  # uncommenting the line beginning with "for_aux"  below, thus adding an extra g radial
  # function to the construction of the product basis set for the expansion.
  # See Ref. New J. Phys. 17, 093020 (2015) for more information, particularly Figs. 1 and 6.
  #
  ################################################################################
  #
  # for_aux hydro 5 g 6.0
  ################################################################################
  #
  #  FHI-aims code project
  # Volker Blum, Fritz Haber Institute Berlin, 2009
  #
  #  Suggested "tight" defaults for O atom (to be pasted into control.in file)
  #
  ################################################################################
    species        O
  #     global species definitions
      nucleus             8
      mass                15.9994
  #
      l_hartree           6
  #
      cut_pot             4.0  2.0  1.0
      basis_dep_cutoff    1e-4
  #
      radial_base         36 7.0
      radial_multiplier   2
       angular_grids specified
        division   0.1817   50
        division   0.3417  110
        division   0.4949  194
        division   0.6251  302
        division   0.8014  434
  #      division   0.8507  590
  #      division   0.8762  770
  #      division   0.9023  974
  #      division   1.2339 1202
  #      outer_grid 974
        outer_grid  434
  ################################################################################
  #
  #  Definition of "minimal" basis
  #
  ################################################################################
  #     valence basis states
      valence      2  s   2.
      valence      2  p   4.
  #     ion occupancy
      ion_occ      2  s   1.
      ion_occ      2  p   3.
  ################################################################################
  #
  #  Suggested additional basis functions. For production calculations,
  #  uncomment them one after another (the most important basis functions are
  #  listed first).
  #
  #  Constructed for dimers: 1.0 A, 1.208 A, 1.5 A, 2.0 A, 3.0 A
  #
  ################################################################################
  #  "First tier" - improvements: -699.05 meV to -159.38 meV
       hydro 2 p 1.8
       hydro 3 d 7.6
       hydro 3 s 6.4
  #  "Second tier" - improvements: -49.91 meV to -5.39 meV
       hydro 4 f 11.6
       hydro 3 p 6.2
       hydro 3 d 5.6
       hydro 5 g 17.6
       hydro 1 s 0.75
  #  "Third tier" - improvements: -2.83 meV to -0.50 meV
  #     ionic 2 p auto
  #     hydro 4 f 10.8
  #     hydro 4 d 4.7
  #     hydro 2 s 6.8
  #  "Fourth tier" - improvements: -0.40 meV to -0.12 meV
  #     hydro 3 p 5
  #     hydro 3 s 3.3
  #     hydro 5 g 15.6
  #     hydro 4 f 17.6
  #     hydro 4 d 14
  # Further basis functions - -0.08 meV and below
  #     hydro 3 s 2.1
  #     hydro 4 d 11.6
  #     hydro 3 p 16
  #     hydro 2 s 17.2
  ################################################################################
  #
  # For methods that use the localized form of the "resolution of identity" for
  # the two-electron Coulomb operator (RI_method LVL), particularly Hartree-Fock and
  # hybrid density functional calculations, the highest accuracy can be obtained by
  # uncommenting the line beginning with "for_aux"  below, thus adding an extra g radial
  # function to the construction of the product basis set for the expansion.
  # See Ref. New J. Phys. 17, 093020 (2015) for more information, particularly Figs. 1 and 6.
  #
  ################################################################################
  #
  # for_aux hydro 5 g 6.0
  
  -----------------------------------------------------------------------
  Completed first pass over input file control.in .
  -----------------------------------------------------------------------
  
  
  -----------------------------------------------------------------------
  Parsing geometry.in (first pass over file, find array dimensions only).
  The contents of geometry.in will be repeated verbatim below
  unless switched off by setting 'verbatim_writeout .false.' .
  in the first line of geometry.in .
  -----------------------------------------------------------------------
  
  #
  # This is the geometry file that corresponds to the current relaxation step.
  # If you do not want this file to be written, set the "write_restart_geometry" flag to .false.
  #
  atom       0.37096034      0.56452022      1.50727476 C
  atom      -0.69582962      0.29995108      2.54894488 C
  atom      -0.55739225      0.65524896      3.71683331 O
  atom       1.24637765      0.96000891      2.02957374 H
  atom       0.02883142      1.31294612      0.77938827 H
  atom       0.64295334     -0.35346253      0.97360550 H
  atom      -1.88306337     -0.30811383      2.17633413 N
  atom      -2.29513137     -1.02664135      0.97794879 C
  atom      -1.60015070     -2.40636014      0.85106815 C
  atom      -0.43401893     -2.57760720      1.18354680 O
  atom      -2.45043730     -0.49561245      2.99870696 H
  atom      -3.37134899     -1.19036154      1.12855551 H
  atom      -2.14321200     -0.24542927     -0.33767829 C
  atom      -1.09578214     -0.15854312     -0.64436637 H
  atom      -2.56448617      0.76172981     -0.22767793 H
  atom      -2.68009591     -0.76019518     -1.14604595 H
  atom      -2.33212570     -3.42113073      0.28416789 N
  atom      -3.75806716     -3.46377388      0.01381979 C
  atom      -4.60188465     -3.39704343      1.31444904 C
  atom      -4.22466913     -3.90924947      2.36083617 O
  atom      -1.84586745     -4.31421764      0.31255128 H
  atom      -4.02897617     -2.61306925     -0.63499311 H
  atom      -4.08801853     -4.76272646     -0.73086121 C
  atom      -5.15618946     -4.81227593     -0.97454093 H
  atom      -3.84445978     -5.63058310     -0.10270192 H
  atom      -3.51490526     -4.82666312     -1.66470393 H
  atom      -5.79502825     -2.74682531      1.16985305 N
  atom      -6.77265990     -2.64870218      2.23915006 C
  atom      -6.01789477     -2.34472691      0.26671268 H
  atom      -7.70182156     -3.17708772      1.98315518 H
  atom      -7.00909142     -1.59965628      2.46319112 H
  atom      -6.33327781     -3.11315310      3.12838961 H
  
  -----------------------------------------------------------------------
  Completed first pass over input file geometry.in .
  -----------------------------------------------------------------------
  

  Basic array size parameters:
  | Number of species                 :        4
  | Number of atoms                   :       32
  | Max. basis fn. angular momentum   :        4
  | Max. atomic/ionic basis occupied n:        2
  | Max. number of basis fn. types    :        2
  | Max. radial fns per species/type  :        8
  | Max. logarithmic grid size        :     1301
  | Max. radial integration grid size :       73
  | Max. angular integration grid size:      434
  | Max. angular grid division number :        8
  | Radial grid for Hartree potential :     1301
  | Number of spin channels           :        1

------------------------------------------------------------
          Reading file control.in.
------------------------------------------------------------
  XC: Using PBE gradient-corrected functionals.
  Spin treatment: No spin polarisation.
  Charge =   0.000000E+00: Neutral system requested explicitly.
  Occupation type: Gaussian broadening, width =   0.500000E-01 eV.
  Using pulay charge density mixing.
  Pulay mixing - number of memorized iterations:   10
  Charge density mixing - mixing parameter:     0.5000
  Convergence accuracy of self-consistent charge density:  0.1000E-03
  Convergence accuracy of sum of eigenvalues:  0.1000E-01
  Convergence accuracy of total energy:  0.1000E-04
  Convergence accuracy of forces:  0.1000E-03
  Maximum number of s.-c. iterations  :  1000
  Fitting ESP-charges to Potential. 
  | Esp charge output options: 
  | ESP Grid method: 3, cubic grid
  | Number of points in x, ,y, z:  0080 0080 0080
  |
 
  Reading configuration options for species H                   .
  | Found nuclear charge :   1.0000
  | Found atomic mass :    1.00794000000000      amu
  | Found l_max for Hartree potential  :   6
  | Found cutoff potl. onset [A], width [A], scale factor :    4.00000    2.00000    1.00000
  | Threshold for basis-dependent cutoff potential is   0.100000E-03
  | Found data for basic radial integration grid :    24 points, outermost radius =    7.000 A
  | Found multiplier for basic radial grid :   2
  | Found angular grid specification: user-specified.
  | Specified grid contains     6 separate shells.
  | Check grid settings after all constraints further below.
  | Found free-atom valence shell :  1 s   1.000
  | No ionic wave fns used. Skipping ion_occ.
  | Found hydrogenic basis function :  2 s   2.100
  | Found hydrogenic basis function :  2 p   3.500
  | Found hydrogenic basis function :  1 s   0.850
  | Found hydrogenic basis function :  2 p   3.700
  | Found hydrogenic basis function :  2 s   1.200
  | Found hydrogenic basis function :  3 d   7.000
  Species H                   : Missing cutoff potential type.
  Defaulting to exp(1/x)/(1-x)^2 type cutoff potential.
  Species H : No 'logarithmic' tag. Using default grid for free atom:
  | Default logarithmic grid data [bohr] : 0.1000E-03 0.1000E+03 0.1012E+01
  Species H : On-site basis accuracy parameter (for Gram-Schmidt orthonormalisation) not specified.
  Using default value basis_acc =  0.1000000E-03.
  Species H                   : Using default innermost maximum threshold i_radial=  2 for radial functions.
  Species H                   : Default cutoff onset for free atom density etc. : 0.40000000E+01 AA.
  Species H                   : Basic radial grid will be enhanced according to radial_multiplier =   2, to contain    49 grid points.
 
  Reading configuration options for species C                   .
  | Found nuclear charge :   6.0000
  | Found atomic mass :    12.0107000000000      amu
  | Found l_max for Hartree potential  :   6
  | Found cutoff potl. onset [A], width [A], scale factor :    4.00000    2.00000    1.00000
  | Threshold for basis-dependent cutoff potential is   0.100000E-03
  | Found data for basic radial integration grid :    34 points, outermost radius =    7.000 A
  | Found multiplier for basic radial grid :   2
  | Found angular grid specification: user-specified.
  | Specified grid contains     6 separate shells.
  | Check grid settings after all constraints further below.
  | Found free-atom valence shell :  2 s   2.000
  | Found free-atom valence shell :  2 p   2.000
  | No ionic wave fns used. Skipping ion_occ.
  | No ionic wave fns used. Skipping ion_occ.
  | Found hydrogenic basis function :  2 p   1.700
  | Found hydrogenic basis function :  3 d   6.000
  | Found hydrogenic basis function :  2 s   4.900
  | Found hydrogenic basis function :  4 f   9.800
  | Found hydrogenic basis function :  3 p   5.200
  | Found hydrogenic basis function :  3 s   4.300
  | Found hydrogenic basis function :  5 g  14.400
  | Found hydrogenic basis function :  3 d   6.200
  Species C                   : Missing cutoff potential type.
  Defaulting to exp(1/x)/(1-x)^2 type cutoff potential.
  Species C : No 'logarithmic' tag. Using default grid for free atom:
  | Default logarithmic grid data [bohr] : 0.1000E-03 0.1000E+03 0.1012E+01
  Species C : On-site basis accuracy parameter (for Gram-Schmidt orthonormalisation) not specified.
  Using default value basis_acc =  0.1000000E-03.
  Species C                   : Using default innermost maximum threshold i_radial=  2 for radial functions.
  Species C                   : Default cutoff onset for free atom density etc. : 0.40000000E+01 AA.
  Species C                   : Basic radial grid will be enhanced according to radial_multiplier =   2, to contain    69 grid points.
 
  Reading configuration options for species N                   .
  | Found nuclear charge :   7.0000
  | Found atomic mass :    14.0067000000000      amu
  | Found l_max for Hartree potential  :   6
  | Found cutoff potl. onset [A], width [A], scale factor :    4.00000    2.00000    1.00000
  | Threshold for basis-dependent cutoff potential is   0.100000E-03
  | Found data for basic radial integration grid :    35 points, outermost radius =    7.000 A
  | Found multiplier for basic radial grid :   2
  | Found angular grid specification: user-specified.
  | Specified grid contains     6 separate shells.
  | Check grid settings after all constraints further below.
  | Found free-atom valence shell :  2 s   2.000
  | Found free-atom valence shell :  2 p   3.000
  | No ionic wave fns used. Skipping ion_occ.
  | No ionic wave fns used. Skipping ion_occ.
  | Found hydrogenic basis function :  2 p   1.800
  | Found hydrogenic basis function :  3 d   6.800
  | Found hydrogenic basis function :  3 s   5.800
  | Found hydrogenic basis function :  4 f  10.800
  | Found hydrogenic basis function :  3 p   5.800
  | Found hydrogenic basis function :  1 s   0.800
  | Found hydrogenic basis function :  5 g  16.000
  | Found hydrogenic basis function :  3 d   4.900
  Species N                   : Missing cutoff potential type.
  Defaulting to exp(1/x)/(1-x)^2 type cutoff potential.
  Species N : No 'logarithmic' tag. Using default grid for free atom:
  | Default logarithmic grid data [bohr] : 0.1000E-03 0.1000E+03 0.1012E+01
  Species N : On-site basis accuracy parameter (for Gram-Schmidt orthonormalisation) not specified.
  Using default value basis_acc =  0.1000000E-03.
  Species N                   : Using default innermost maximum threshold i_radial=  2 for radial functions.
  Species N                   : Default cutoff onset for free atom density etc. : 0.40000000E+01 AA.
  Species N                   : Basic radial grid will be enhanced according to radial_multiplier =   2, to contain    71 grid points.
 
  Reading configuration options for species O                   .
  | Found nuclear charge :   8.0000
  | Found atomic mass :    15.9994000000000      amu
  | Found l_max for Hartree potential  :   6
  | Found cutoff potl. onset [A], width [A], scale factor :    4.00000    2.00000    1.00000
  | Threshold for basis-dependent cutoff potential is   0.100000E-03
  | Found data for basic radial integration grid :    36 points, outermost radius =    7.000 A
  | Found multiplier for basic radial grid :   2
  | Found angular grid specification: user-specified.
  | Specified grid contains     6 separate shells.
  | Check grid settings after all constraints further below.
  | Found free-atom valence shell :  2 s   2.000
  | Found free-atom valence shell :  2 p   4.000
  | No ionic wave fns used. Skipping ion_occ.
  | No ionic wave fns used. Skipping ion_occ.
  | Found hydrogenic basis function :  2 p   1.800
  | Found hydrogenic basis function :  3 d   7.600
  | Found hydrogenic basis function :  3 s   6.400
  | Found hydrogenic basis function :  4 f  11.600
  | Found hydrogenic basis function :  3 p   6.200
  | Found hydrogenic basis function :  3 d   5.600
  | Found hydrogenic basis function :  5 g  17.600
  | Found hydrogenic basis function :  1 s   0.750
  Species O                   : Missing cutoff potential type.
  Defaulting to exp(1/x)/(1-x)^2 type cutoff potential.
  Species O : No 'logarithmic' tag. Using default grid for free atom:
  | Default logarithmic grid data [bohr] : 0.1000E-03 0.1000E+03 0.1012E+01
  Species O : On-site basis accuracy parameter (for Gram-Schmidt orthonormalisation) not specified.
  Using default value basis_acc =  0.1000000E-03.
  Species O                   : Using default innermost maximum threshold i_radial=  2 for radial functions.
  Species O                   : Default cutoff onset for free atom density etc. : 0.40000000E+01 AA.
  Species O                   : Basic radial grid will be enhanced according to radial_multiplier =   2, to contain    73 grid points.
 
  Finished reading input file 'control.in'. Consistency checks are next.
 
  Target number of points in a grid batch is not set. Defaulting to  100
  Method for grid partitioning is not set. Defaulting to parallel hash+maxmin partitioning.
  Batch size limit is not set. Defaulting to    200
  By default, will store active basis functions for each batch.
  If in need of memory, prune_basis_once .false. can be used to disable this option.
  communication_type for Hartree potential was not specified.
  Defaulting to calc_hartree .
  Pulay mixer: Number of initial linear mixing iterations not set.
  Defaulting to    0 iterations.
  Work space size for distributed Hartree potential not set.
  Defaulting to   0.200000E+03 MB.
  Algorithm-dependent basis array size parameters:
  | n_max_pulay                         :       10
  Geometry relaxation not requested: no relaxation will be performed.
  Handling of forces: Unphysical translation and rotation will be removed from forces.
  No accuracy limit for integral partition fn. given. Defaulting to  0.1000E-14.
  No threshold value for u(r) in integrations given. Defaulting to  0.1000E-05.
  No accuracy for occupation numbers given. Defaulting to  0.1000E-07.
  No threshold value for occupation numbers given. Defaulting to  0.0000E+00.
  No accuracy for fermi level given. Defaulting to  0.1000E-19.
  Maximum # of iterations to find E_F not set. Defaulting to  200.
  Preferred method for the eigenvalue solver ('KS_method') not specified in 'control.in'.
  Calling blacs routine to test compilation state
  Since scalapack support is enabled, defaulting to 'elpa'.
  Preferred method for the MBD eigenvalue solver ('mbd_eigensolver') not specified in 'control.in'.
  Calling blacs routine to test compilation state
  Since scalapack support is enabled, defaulting to 'scaLAPACK'.
  Will not use alltoall communication since running on < 1024 CPUs.
  Threshold for basis singularities not set.
  Default threshold for basis singularities:  0.1000E-04
  partition_type (choice of integration weights) for integrals was not specified.
  | Using a version of the partition function of Stratmann and coworkers ('stratmann_smoother').
  | At each grid point, the set of atoms used to build the partition table is smoothly restricted to
  | only those atoms whose free-atom density would be non-zero at that grid point.
  Partitioning for Hartree potential was not defined. Using partition_type for integrals.
  | Adjusted default value of keyword multip_moments_threshold to:       0.10000000E-11
  | This value may affect high angular momentum components of the Hartree potential in periodic systems.
  No q(lm)/r^(l+1) cutoff set for long-range Hartree potential.
  | Using default value of  0.100000E-09 .
  | Verify using the multipole_threshold keyword.
  Defaulting to new monopole extrapolation.
  Density update method: automatic selection selected.
------------------------------------------------------------


------------------------------------------------------------
          Reading geometry description geometry.in.
------------------------------------------------------------
 * Warning! You did not set the 'relativistic' flag in input file 'control.in'.
 * Since you are not attempting to treat any elements beyond Ca(Z=20), FHI-aims
 * will default to 'relativistic none'.
 * You must ensure that this is really what you want!!
 * For example, DO NOT compute total-energy differences between results from
 * different settings of the 'relativistic' flag.
  Input structure read successfully.
  The structure contains       32 atoms,  and a total of        116.000 electrons.

  Input geometry:
  | No unit cell requested.
  | Atomic structure:
  |       Atom                x [A]            y [A]            z [A]
  |    1: Species C              0.370960         0.564520         1.507275
  |    2: Species C             -0.695830         0.299951         2.548945
  |    3: Species O             -0.557392         0.655249         3.716833
  |    4: Species H              1.246378         0.960009         2.029574
  |    5: Species H              0.028831         1.312946         0.779388
  |    6: Species H              0.642953        -0.353463         0.973606
  |    7: Species N             -1.883063        -0.308114         2.176334
  |    8: Species C             -2.295131        -1.026641         0.977949
  |    9: Species C             -1.600151        -2.406360         0.851068
  |   10: Species O             -0.434019        -2.577607         1.183547
  |   11: Species H             -2.450437        -0.495612         2.998707
  |   12: Species H             -3.371349        -1.190362         1.128556
  |   13: Species C             -2.143212        -0.245429        -0.337678
  |   14: Species H             -1.095782        -0.158543        -0.644366
  |   15: Species H             -2.564486         0.761730        -0.227678
  |   16: Species H             -2.680096        -0.760195        -1.146046
  |   17: Species N             -2.332126        -3.421131         0.284168
  |   18: Species C             -3.758067        -3.463774         0.013820
  |   19: Species C             -4.601885        -3.397043         1.314449
  |   20: Species O             -4.224669        -3.909249         2.360836
  |   21: Species H             -1.845867        -4.314218         0.312551
  |   22: Species H             -4.028976        -2.613069        -0.634993
  |   23: Species C             -4.088019        -4.762726        -0.730861
  |   24: Species H             -5.156189        -4.812276        -0.974541
  |   25: Species H             -3.844460        -5.630583        -0.102702
  |   26: Species H             -3.514905        -4.826663        -1.664704
  |   27: Species N             -5.795028        -2.746825         1.169853
  |   28: Species C             -6.772660        -2.648702         2.239150
  |   29: Species H             -6.017895        -2.344727         0.266713
  |   30: Species H             -7.701822        -3.177088         1.983155
  |   31: Species H             -7.009091        -1.599656         2.463191
  |   32: Species H             -6.333278        -3.113153         3.128390
  |

  | The smallest distance between any two atoms is         1.01341755 AA.
  |
  | The first atom of this pair is atom number                     27 .
  | The second atom of this pair is atom number                    29 .

  Number of empty states per atom not set in control.in - providing a guess from actual geometry.
  | Total number of empty states used during s.c.f. cycle:       71
  If you use a very high smearing, use empty_states (per atom!) in control.in to increase this value.

  Structure-dependent array size parameters: 
  | Maximum number of distinct radial functions  :       40
  | Maximum number of basis functions            :      840
  | Number of Kohn-Sham states (occupied + empty):      129
------------------------------------------------------------

------------------------------------------------------------
          Preparing all fixed parts of the calculation.
------------------------------------------------------------
  Determining machine precision:
    2.225073858507201E-308
  Setting up grids for atomic and cluster calculations.

  Creating wave function, potential, and density for free atoms.

  Species: H

  List of occupied orbitals and eigenvalues:
    n    l              occ      energy [Ha]    energy [eV]
    1    0           1.0000        -0.238382        -6.4867


  Species: C

  List of occupied orbitals and eigenvalues:
    n    l              occ      energy [Ha]    energy [eV]
    1    0           2.0000       -10.041232      -273.2358
    2    0           2.0000        -0.504327       -13.7234
    2    1           2.0000        -0.193750        -5.2722


  Species: N

  List of occupied orbitals and eigenvalues:
    n    l              occ      energy [Ha]    energy [eV]
    1    0           2.0000       -14.129007      -384.4699
    2    0           2.0000        -0.681802       -18.5528
    2    1           3.0000        -0.260543        -7.0897


  Species: O

  List of occupied orbitals and eigenvalues:
    n    l              occ      energy [Ha]    energy [eV]
    1    0           2.0000       -18.898576      -514.2564
    2    0           2.0000        -0.878795       -23.9132
    2    1           4.0000        -0.332075        -9.0362

  Creating fixed part of basis set: Ionic, confined, hydrogenic.
 
  H                    hydrogenic:
 
  List of hydrogenic basis orbitals: 
    n    l      effective z      eigenvalue [eV]  inner max. [A]     outer max. [A]     outer radius [A]   
    2    0         2.100000       -14.9965           0.193243           1.317208           5.373006
    2    1         3.500000       -41.6672           0.602369           0.602369           4.056063
    1    0         0.850000        -9.8292           0.624871           0.624871           5.373006
    2    1         3.700000       -46.5653           0.573622           0.573622           3.910002
    2    0         1.200000        -4.5995           0.334980           2.228188           5.505995
    3    2         7.000000       -74.0753           0.680699           0.680699           3.769201
 
 
  C                    hydrogenic:
 
  List of hydrogenic basis orbitals: 
    n    l      effective z      eigenvalue [eV]  inner max. [A]     outer max. [A]     outer radius [A]   
    2    1         1.700000        -9.8152           1.245706           1.245706           5.401630
    3    2         6.000000       -54.4226           0.792453           0.792453           4.178599
    2    0         4.900000       -81.6681           0.082559           0.562749           3.353238
    4    3         9.800000       -81.6681           0.863254           0.863254           4.028125
    3    1         5.200000       -40.8774           0.305389           1.215618           4.898362
    3    0         4.300000       -27.9508           0.091041           1.610311           5.401630
    5    4        14.400000      -112.8510           0.917666           0.917666           3.883070
    3    2         6.200000       -58.1113           0.763917           0.763917           4.077671
 
 
  N                    hydrogenic:
 
  List of hydrogenic basis orbitals: 
    n    l      effective z      eigenvalue [eV]  inner max. [A]     outer max. [A]     outer radius [A]   
    2    1         1.800000       -11.0118           1.177451           1.177451           5.427479
    3    2         6.800000       -69.9029           0.704619           0.704619           3.854246
    3    0         5.800000       -50.8549           0.067388           1.191934           4.629968
    4    3        10.800000       -99.1854           0.786571           0.786571           3.761152
    3    1         5.800000       -50.8549           0.274880           1.094176           4.518138
    1    0         0.800000        -8.7059           0.662839           0.662839           5.361532
    5    4        16.000000      -139.3222           0.825990           0.825990           3.625711
    3    2         4.900000       -36.2967           0.968267           0.968267           4.862000
 
 
  O                    hydrogenic:
 
  List of hydrogenic basis orbitals: 
    n    l      effective z      eigenvalue [eV]  inner max. [A]     outer max. [A]     outer radius [A]   
    2    1         1.800000       -11.0118           1.178562           1.178562           5.432602
    3    2         7.600000       -87.3182           0.624125           0.624125           3.541477
    3    0         6.400000       -61.9209           0.061167           1.081902           4.306578
    4    3        11.600000      -114.4238           0.731631           0.731631           3.585037
    3    1         6.200000       -58.1113           0.255680           1.030270           4.306578
    3    2         5.600000       -47.4081           0.847233           0.847233           4.413171
    5    4        17.600000      -168.5799           0.749740           0.749740           3.372465
    1    0         0.750000        -7.6499           0.705284           0.705284           5.366593
 

  Adding cutoff potential to free-atom effective potential.
  Creating atomic-like basis functions for current effective potential.

  Species H                   :

  List of atomic basis orbitals and eigenvalues:
    n    l      energy [Ha]    energy [eV]    outer radius [A]
    1    0        -0.238382        -6.4867       5.373006


  Species C                   :

  List of atomic basis orbitals and eigenvalues:
    n    l      energy [Ha]    energy [eV]    outer radius [A]
    1    0       -10.041232      -273.2358       1.934409
    2    0        -0.504327       -13.7234       5.271162
    2    1        -0.193750        -5.2722       5.401630


  Species N                   :

  List of atomic basis orbitals and eigenvalues:
    n    l      energy [Ha]    energy [eV]    outer radius [A]
    1    0       -14.129007      -384.4699       1.637919
    2    0        -0.681802       -18.5528       5.168461
    2    1        -0.260543        -7.0897       5.361532


  Species O                   :

  List of atomic basis orbitals and eigenvalues:
    n    l      energy [Ha]    energy [eV]    outer radius [A]
    1    0       -18.898576      -514.2564       1.415765
    2    0        -0.878795       -23.9132       5.048385
    2    1        -0.332075        -9.0362       5.301386

  Assembling full basis from fixed parts.
  | Species H :   atomic orbital   1 s accepted.
  | Species H :    hydro orbital   2 s accepted.
  | Species H :    hydro orbital   1 s accepted.
  | Species H :    hydro orbital   2 s accepted.
  | Species H :    hydro orbital   2 p accepted.
  | Species H :    hydro orbital   2 p accepted.
  | Species H :    hydro orbital   3 d accepted.
  | Species C :   atomic orbital   1 s accepted.
  | Species C :    hydro orbital   2 s accepted.
  | Species C :   atomic orbital   2 s accepted.
  | Species C :    hydro orbital   3 s accepted.
  | Species C :    hydro orbital   3 p accepted.
  | Species C :   atomic orbital   2 p accepted.
  | Species C :    hydro orbital   2 p accepted.
  | Species C :    hydro orbital   3 d accepted.
  | Species C :    hydro orbital   3 d accepted.
  | Species C :    hydro orbital   4 f accepted.
  | Species C :    hydro orbital   5 g accepted.
  | Species N :   atomic orbital   1 s accepted.
  | Species N :    hydro orbital   3 s accepted.
  | Species N :   atomic orbital   2 s accepted.
  | Species N :    hydro orbital   1 s accepted.
  | Species N :    hydro orbital   3 p accepted.
  | Species N :   atomic orbital   2 p accepted.
  | Species N :    hydro orbital   2 p accepted.
  | Species N :    hydro orbital   3 d accepted.
  | Species N :    hydro orbital   3 d accepted.
  | Species N :    hydro orbital   4 f accepted.
  | Species N :    hydro orbital   5 g accepted.
  | Species O :   atomic orbital   1 s accepted.
  | Species O :    hydro orbital   3 s accepted.
  | Species O :   atomic orbital   2 s accepted.
  | Species O :    hydro orbital   1 s accepted.
  | Species O :    hydro orbital   3 p accepted.
  | Species O :   atomic orbital   2 p accepted.
  | Species O :    hydro orbital   2 p accepted.
  | Species O :    hydro orbital   3 d accepted.
  | Species O :    hydro orbital   3 d accepted.
  | Species O :    hydro orbital   4 f accepted.
  | Species O :    hydro orbital   5 g accepted.
 
  Basis size parameters after reduction:
  | Total number of radial functions:       40
  | Total number of basis functions :      840
 
  Testing on-site integration grid accuracy.
  |  Species  Function  <phi|h_atom|phi> (log., in eV)  <phi|h_atom|phi> (rad., in eV)
           1        1                 -6.4869821809                 -6.4870742227
           1        2                 13.5044133542                 13.5041049177
           1        3                 32.7854418792                 32.7779770519
           1        4                 33.7995553101                 33.7152624900 ***
           1        5                 28.8558651799                 28.8558652046
           1        6                 59.6361831893                 59.6362535845
           1        7                 60.2733718049                 60.2733715484
           2        8               -273.2358277112               -273.2358261765
           2        9                -10.7624923123                -10.7625144012
           2       10                 17.4634079027                 17.4634252127
           2       11                 53.0363661832                 53.0366180446
           2       12                 15.0981351967                 15.0981317714
           2       13                  3.8522181899                  3.8522770949
           2       14                 12.1181835661                 12.1206868578
           2       15                 29.4320778347                 29.4320780959
           2       16                 54.8753777694                 54.8752901936
           2       17                 59.3533975461                 59.3533974833
           2       18                 93.4537491195                 93.4537492066
           3       19               -384.4698526889               -384.4698499465
           3       20                 12.5691022037                 12.5690910168
           3       21                -15.7489097511                -15.7489165588
           3       22                 27.0978334940                 27.0985589490
           3       23                 18.5949116966                 18.5949125562
           3       24                  1.2212828291                  1.2212855301
           3       25                 13.4428926797                 13.4434051125
           3       26                 35.9380614500                 35.9380613666
           3       27                 39.9231532098                 39.9231654735
           3       28                 72.9957335806                 72.9957336833
           3       29                116.4231321147                116.4231321431
           4       30               -514.2564144315               -514.2564099626
           4       31                 15.1726678541                 15.1726530877
           4       32                -21.5447785304                -21.5447874973
           4       33                 14.4944558459                 14.4944698284
           4       34                 20.8882174564                 20.8882178906
           4       35                 -2.4850315908                 -2.4850322289
           4       36                 13.8600193195                 13.8599826966
           4       37                 45.8243383616                 45.8243383675
           4       38                 52.1840606465                 52.1840622440
           4       39                 85.4074185510                 85.4074185819
           4       40                142.0983717302                142.0983717339
 * Note: Onsite integrals marked "***" above are less accurate than
 * onsite_accuracy_threshold =    0.03000 eV. Usually, this is harmless.
 * When in doubt, tighten the "radial" and/or "radial_multiplier" flags to check.

  Preparing densities etc. for the partition functions (integrals / Hartree potential).

  Preparations completed.
  max(cpu_time)          :      0.236 s.
  Wall clock time (cpu1) :      0.235 s.
------------------------------------------------------------

------------------------------------------------------------
          Begin self-consistency loop: Initialization.

          Date     :  20170309, Time     :  180526.377
------------------------------------------------------------

  Initializing index lists of integration centers etc. from given atomic structure:
  | Number of centers in hartree potential         :        32
  | Number of centers in hartree multipole         :        32
  | Number of centers in electron density summation:        32
  | Number of centers in basis integrals           :        32
  | Number of centers in integrals                 :        32
  | Number of centers in hamiltonian               :        32
  Using modified Scalapack Eigenvalue solver (ELPA)
  * Using 32 tasks for Scalapack Eigenvalue solver.
  Detailed listing of tasks and assigned k-points:
  (for non-periodic systems, the "k-point" denotes an internal label only)
   Task     0 k-point     1 on eos399
   Task     1 k-point     1 on eos399
   Task     2 k-point     1 on eos399
   Task     3 k-point     1 on eos399
   Task     4 k-point     1 on eos399
   Task     5 k-point     1 on eos399
   Task     6 k-point     1 on eos399
   Task     7 k-point     1 on eos399
   Task     8 k-point     1 on eos399
   Task     9 k-point     1 on eos399
   Task    10 k-point     1 on eos399
   Task    11 k-point     1 on eos399
   Task    12 k-point     1 on eos399
   Task    13 k-point     1 on eos399
   Task    14 k-point     1 on eos399
   Task    15 k-point     1 on eos399
   Task    16 k-point     1 on eos399
   Task    17 k-point     1 on eos399
   Task    18 k-point     1 on eos399
   Task    19 k-point     1 on eos399
   Task    20 k-point     1 on eos399
   Task    21 k-point     1 on eos399
   Task    22 k-point     1 on eos399
   Task    23 k-point     1 on eos399
   Task    24 k-point     1 on eos399
   Task    25 k-point     1 on eos399
   Task    26 k-point     1 on eos399
   Task    27 k-point     1 on eos399
   Task    28 k-point     1 on eos399
   Task    29 k-point     1 on eos399
   Task    30 k-point     1 on eos399
   Task    31 k-point     1 on eos399
  Tasks:    32 split into      8 X      4 BLACS grid
  Calculating blocksize based on n_basis =          840 max_nprow =            8 max_npcol =            4
  Scalapack blocksize set to:           16
  Required Scalapack workspace - INTEGER:            1 REAL:             1
  Partitioning the integration grid into batches with parallel hashing+maxmin method.
  | Number of batches:     5067
  | Maximal batch size:     200
  | Minimal batch size:      20
  | Average batch size:     104.150
  | Standard deviation of batch sizes:      31.289

  Integration load balanced across    32 MPI tasks.
  Work distribution over tasks is as follows:
  Task     0 has      16435 integration points.
  Task     1 has      16434 integration points.
  Task     2 has      16515 integration points.
  Task     3 has      16465 integration points.
  Task     4 has      16526 integration points.
  Task     5 has      16570 integration points.
  Task     6 has      16569 integration points.
  Task     7 has      16569 integration points.
  Task     8 has      16431 integration points.
  Task     9 has      16445 integration points.
  Task    10 has      16566 integration points.
  Task    11 has      16479 integration points.
  Task    12 has      16423 integration points.
  Task    13 has      16565 integration points.
  Task    14 has      16427 integration points.
  Task    15 has      16426 integration points.
  Task    16 has      16560 integration points.
  Task    17 has      16490 integration points.
  Task    18 has      16422 integration points.
  Task    19 has      16527 integration points.
  Task    20 has      16572 integration points.
  Task    21 has      16425 integration points.
  Task    22 has      16439 integration points.
  Task    23 has      16438 integration points.
  Task    24 has      16530 integration points.
  Task    25 has      16564 integration points.
  Task    26 has      16467 integration points.
  Task    27 has      16431 integration points.
  Task    28 has      16443 integration points.
  Task    29 has      16442 integration points.
  Task    30 has      16565 integration points.
  Task    31 has      16568 integration points.
  Initializing partition tables, free-atom densities, potentials, etc. across the integration grid (initialize_grid_storage).
  | initialize_grid_storage: Actual outermost partition radius vs. multipole_radius_free
  | (-- VB: in principle, multipole_radius_free should be larger, hence this output)
  | Species        1: Confinement radius =              6.000000000000000 AA, multipole_radius_free =              6.071692442739658 AA.
  | Species        1: outer_partition_radius set to              6.071692442739658 AA .
  | Species        2: Confinement radius =              6.000000000000000 AA, multipole_radius_free =              6.029870734432609 AA.
  | Species        2: outer_partition_radius set to              6.029870734432609 AA .
  | Species        3: Confinement radius =              6.000000000000000 AA, multipole_radius_free =              6.058726835495003 AA.
  | Species        3: outer_partition_radius set to              6.058726835495003 AA .
  | Species        4: Confinement radius =              6.000000000000000 AA, multipole_radius_free =              6.064445521808699 AA.
  | Species        4: outer_partition_radius set to              6.064445521808699 AA .
  | Original list of interatomic distances with          32 x         32 entries is created.
  | Net number of integration points:   527728
  | of which are non-zero points    :   414700
  Obtaining max. number of non-zero basis functions in each batch (get_n_compute_maxes).
  | Maximal number of non-zero basis functions:      760 in task     0
  | Maximal number of non-zero basis functions:      754 in task     1
  | Maximal number of non-zero basis functions:      749 in task     2
  | Maximal number of non-zero basis functions:      756 in task     3
  | Maximal number of non-zero basis functions:      754 in task     4
  | Maximal number of non-zero basis functions:      744 in task     5
  | Maximal number of non-zero basis functions:      751 in task     6
  | Maximal number of non-zero basis functions:      756 in task     7
  | Maximal number of non-zero basis functions:      739 in task     8
  | Maximal number of non-zero basis functions:      732 in task     9
  | Maximal number of non-zero basis functions:      743 in task    10
  | Maximal number of non-zero basis functions:      777 in task    11
  | Maximal number of non-zero basis functions:      749 in task    12
  | Maximal number of non-zero basis functions:      743 in task    13
  | Maximal number of non-zero basis functions:      766 in task    14
  | Maximal number of non-zero basis functions:      753 in task    15
  | Maximal number of non-zero basis functions:      757 in task    16
  | Maximal number of non-zero basis functions:      739 in task    17
  | Maximal number of non-zero basis functions:      752 in task    18
  | Maximal number of non-zero basis functions:      750 in task    19
  | Maximal number of non-zero basis functions:      737 in task    20
  | Maximal number of non-zero basis functions:      737 in task    21
  | Maximal number of non-zero basis functions:      748 in task    22
  | Maximal number of non-zero basis functions:      728 in task    23
  | Maximal number of non-zero basis functions:      757 in task    24
  | Maximal number of non-zero basis functions:      755 in task    25
  | Maximal number of non-zero basis functions:      763 in task    26
  | Maximal number of non-zero basis functions:      743 in task    27
  | Maximal number of non-zero basis functions:      764 in task    28
  | Maximal number of non-zero basis functions:      738 in task    29
  | Maximal number of non-zero basis functions:      744 in task    30
  | Maximal number of non-zero basis functions:      768 in task    31
  Selecting the method for density update.
  Loop over occupied states selected for charge density update.
  Integrating Hamiltonian matrix: batch-based integration.
  Time summed over all CPUs for integration: real work       21.006 s, elapsed       21.837 s
  Integrating overlap matrix.
  Time summed over all CPUs for integration: real work       12.755 s, elapsed       13.162 s
  Deallocating overlap matrix.

  Updating Kohn-Sham eigenvalues, eigenvectors, occupation numbers, and Fermi level.
  Solving generalized eigenproblem
  Solving real symmetric generalised eigenvalue problem by standard ScaLAPACK.
  Transforming overlap matrix with ScaLAPACK and checking for singularities.
  : Overlap matrix is nonsingular, using Cholesky decomposition
  | Lowest eigenvalue:  0.954823E-04
  Factoring overlap matrix with Cholesky decomposition
  Using Cholesky factor for transformation
  Using 1-stage real ELPA solver
  Determining occupation numbers for Kohn-Sham eigenstates.
  | Chemical potential (Fermi level) in eV                 : -.96256636E+01
  | Error in electron count due to remaining E_F inaccuracy: 0.00000000E+00
  | Maximum occupation number of highest empty state:  0.00E+00

  Writing Kohn-Sham eigenvalues.

  State    Occupation    Eigenvalue [Ha]    Eigenvalue [eV]
      1       2.00000         -18.975316         -516.34461
      2       2.00000         -18.975255         -516.34296
      3       2.00000         -18.974189         -516.31396
      4       2.00000         -14.255637         -387.91563
      5       2.00000         -14.253819         -387.86616
      6       2.00000         -14.251366         -387.79940
      7       2.00000         -10.171592         -276.78310
      8       2.00000         -10.170915         -276.76468
      9       2.00000         -10.170712         -276.75914
     10       2.00000         -10.166705         -276.65012
     11       2.00000         -10.148269         -276.14846
     12       2.00000         -10.147780         -276.13515
     13       2.00000         -10.134880         -275.78411
     14       2.00000         -10.134489         -275.77349
     15       2.00000         -10.133400         -275.74383
     16       2.00000          -1.135975          -30.91145
     17       2.00000          -1.132842          -30.82620
     18       2.00000          -1.130598          -30.76514
     19       2.00000          -1.016571          -27.66232
     20       2.00000          -1.011913          -27.53557
     21       2.00000          -1.006944          -27.40033
     22       2.00000          -0.884395          -24.06560
     23       2.00000          -0.873255          -23.76248
     24       2.00000          -0.850297          -23.13775
     25       2.00000          -0.819668          -22.30430
     26       2.00000          -0.771659          -20.99792
     27       2.00000          -0.757048          -20.60033
     28       2.00000          -0.706927          -19.23647
     29       2.00000          -0.687774          -18.71528
     30       2.00000          -0.666271          -18.13017
     31       2.00000          -0.643230          -17.50317
     32       2.00000          -0.616141          -16.76606
     33       2.00000          -0.613403          -16.69153
     34       2.00000          -0.599762          -16.32035
     35       2.00000          -0.595040          -16.19187
     36       2.00000          -0.589613          -16.04418
     37       2.00000          -0.565542          -15.38918
     38       2.00000          -0.562565          -15.30818
     39       2.00000          -0.558476          -15.19691
     40       2.00000          -0.553320          -15.05660
     41       2.00000          -0.546936          -14.88288
     42       2.00000          -0.540668          -14.71233
     43       2.00000          -0.533187          -14.50875
     44       2.00000          -0.528054          -14.36907
     45       2.00000          -0.522245          -14.21100
     46       2.00000          -0.516771          -14.06206
     47       2.00000          -0.512453          -13.94456
     48       2.00000          -0.499968          -13.60483
     49       2.00000          -0.497081          -13.52626
     50       2.00000          -0.484651          -13.18801
     51       2.00000          -0.482562          -13.13118
     52       2.00000          -0.478474          -13.01994
     53       2.00000          -0.410068          -11.15853
     54       2.00000          -0.409342          -11.13877
     55       2.00000          -0.401807          -10.93372
     56       2.00000          -0.385539          -10.49104
     57       2.00000          -0.382546          -10.40961
     58       2.00000          -0.377565          -10.27408
     59       0.00000          -0.171771           -4.67413
     60       0.00000          -0.161480           -4.39410
     61       0.00000          -0.150859           -4.10507
     62       0.00000          -0.086998           -2.36735
     63       0.00000          -0.061904           -1.68450
     64       0.00000          -0.059868           -1.62909
     65       0.00000          -0.053679           -1.46068
     66       0.00000          -0.043435           -1.18194
     67       0.00000          -0.041521           -1.12983
     68       0.00000          -0.037115           -1.00994
     69       0.00000          -0.024028           -0.65383
     70       0.00000          -0.022197           -0.60402
     71       0.00000          -0.021418           -0.58282
     72       0.00000          -0.016731           -0.45527
     73       0.00000          -0.011156           -0.30356
     74       0.00000          -0.008655           -0.23551
     75       0.00000          -0.005582           -0.15189
     76       0.00000          -0.000843           -0.02294
     77       0.00000           0.001544            0.04202
     78       0.00000           0.005203            0.14158
     79       0.00000           0.011059            0.30092
     80       0.00000           0.017199            0.46801
     81       0.00000           0.019319            0.52570
     82       0.00000           0.022598            0.61491
     83       0.00000           0.031665            0.86165
     84       0.00000           0.040780            1.10967
     85       0.00000           0.046753            1.27222
     86       0.00000           0.048257            1.31315
     87       0.00000           0.051326            1.39666
     88       0.00000           0.054628            1.48649
     89       0.00000           0.066024            1.79661
     90       0.00000           0.073610            2.00303
     91       0.00000           0.077619            2.11211
     92       0.00000           0.084294            2.29377
     93       0.00000           0.084545            2.30059
     94       0.00000           0.090360            2.45881
     95       0.00000           0.097178            2.64434
     96       0.00000           0.105339            2.86641
     97       0.00000           0.109333            2.97512
     98       0.00000           0.114129            3.10561
     99       0.00000           0.119219            3.24411
    100       0.00000           0.122743            3.34001
    101       0.00000           0.124575            3.38986
    102       0.00000           0.135954            3.69950
    103       0.00000           0.140337            3.81878
    104       0.00000           0.142598            3.88030
    105       0.00000           0.155534            4.23230
    106       0.00000           0.157928            4.29745
    107       0.00000           0.161103            4.38384
    108       0.00000           0.161419            4.39244
    109       0.00000           0.163611            4.45207
    110       0.00000           0.166786            4.53849
    111       0.00000           0.175300            4.77016
    112       0.00000           0.177388            4.82698
    113       0.00000           0.181295            4.93328
    114       0.00000           0.188319            5.12442
    115       0.00000           0.191106            5.20025
    116       0.00000           0.197947            5.38642
    117       0.00000           0.202804            5.51859
    118       0.00000           0.204759            5.57178
    119       0.00000           0.208487            5.67323
    120       0.00000           0.212602            5.78518
    121       0.00000           0.219092            5.96181
    122       0.00000           0.223531            6.08258
    123       0.00000           0.228819            6.22647
    124       0.00000           0.230642            6.27608
    125       0.00000           0.236754            6.44240
    126       0.00000           0.247120            6.72448
    127       0.00000           0.255893            6.96321
    128       0.00000           0.261919            7.12718
    129       0.00000           0.265310            7.21946

  Highest occupied state (VBM) at    -10.27407795 eV
  | Occupation number:      2.00000000

  Lowest unoccupied state (CBM) at    -4.67413233 eV
  | Occupation number:      0.00000000

  Overall HOMO-LUMO gap:      5.59994562 eV.
  Calculating total energy contributions from superposition of free atom densities.

  Total energy components:
  | Sum of eigenvalues            :        -437.84694278 Ha      -11914.42151216 eV
  | XC energy correction          :         -98.81174528 Ha       -2688.80439388 eV
  | XC potential correction       :         127.00961402 Ha        3456.10744226 eV
  | Free-atom electrostatic energy:        -333.63330717 Ha       -9078.62420336 eV
  | Hartree energy correction     :           0.00000000 Ha           0.00000000 eV
  | vdW energy correction         :           0.00000000 Ha           0.00000000 eV
  | Entropy correction            :          -0.00000000 Ha          -0.00000000 eV
  | ---------------------------
  | Total energy                  :        -743.28238121 Ha      -20225.74266714 eV
  | Total energy, T -> 0          :        -743.28238121 Ha      -20225.74266714 eV  <-- do not rely on this value for anything but (periodic) metals
  | Electronic free energy        :        -743.28238121 Ha      -20225.74266714 eV

  Derived energy quantities:
  | Kinetic energy                :         735.14478847 Ha       20004.30750226 eV
  | Electrostatic energy          :       -1379.61542440 Ha      -37541.24577552 eV
  | Energy correction for multipole
  | error in Hartree potential    :           0.00000000 Ha           0.00000000 eV
  | Sum of eigenvalues per atom                           :        -372.32567226 eV
  | Total energy (T->0) per atom                          :        -632.05445835 eV  <-- do not rely on this value for anything but (periodic) metals
  | Electronic free energy per atom                       :        -632.05445835 eV
  Initialize hartree_potential_storage
  Max. number of atoms included in rho_multipole:           32

  End scf initialization - timings             :  max(cpu_time)    wall_clock(cpu1)
  | Time for scf. initialization               :        1.848 s           1.846 s
  | Boundary condition initialization          :        0.004 s           0.000 s
  | Integration                                :        1.116 s           1.115 s
  | Solution of K.-S. eqns.                    :        0.076 s           0.074 s
  | Grid partitioning                          :        0.328 s           0.325 s
  | Preloading free-atom quantities on grid    :        0.028 s           0.028 s
  | Free-atom superposition energy             :        0.040 s           0.038 s
  | Total energy evaluation                    :        0.004 s           0.001 s
------------------------------------------------------------

------------------------------------------------------------
          Begin self-consistency iteration #    1

  Date     :  20170309, Time     :  180528.224
------------------------------------------------------------
  Evaluating new KS density.
  Integration grid: deviation in total charge (<rho> - N_e) =   4.263256E-14
  Pulay mixing of updated and previous charge densities.

  Evaluating partitioned Hartree potential by multipole expansion.
  | Analytical far-field extrapolation by fixed multipoles:
  | Hartree multipole sum: apparent total charge =  -0.464899E-05
  Summing up the Hartree potential.
  Time summed over all CPUs for potential: real work        9.512 s, elapsed        9.758 s
  | RMS charge density error from multipole expansion :   0.105596E-01

  Integrating Hamiltonian matrix: batch-based integration.
  Time summed over all CPUs for integration: real work       20.756 s, elapsed       21.542 s

  Updating Kohn-Sham eigenvalues, eigenvectors, occupation numbers, and Fermi level.
  Solving generalized eigenproblem
  Solving real symmetric generalised eigenvalue problem by standard ScaLAPACK.
  Using Cholesky factor for transformation
  Using 2-stage real ELPA solver
  K-Point:    1, Trafo times: 1-stage=     0.021 s, 2-stage=     0.019 s ==> Using 2-stage solver
  Determining occupation numbers for Kohn-Sham eigenstates.
  | Chemical potential (Fermi level) in eV                 : -.40904157E+01
  | Error in electron count due to remaining E_F inaccuracy: 0.00000000E+00
  | Maximum occupation number of highest empty state:  0.00E+00

  Writing Kohn-Sham eigenvalues.

  State    Occupation    Eigenvalue [Ha]    Eigenvalue [eV]
      1       2.00000         -18.620557         -506.69113
      2       2.00000         -18.618043         -506.62274
      3       2.00000         -18.593328         -505.95019
      4       2.00000         -14.004417         -381.07959
      5       2.00000         -13.992126         -380.74511
      6       2.00000         -13.971456         -380.18267
      7       2.00000         -10.061236         -273.78016
      8       2.00000         -10.057907         -273.68957
      9       2.00000         -10.032694         -273.00350
     10       2.00000          -9.983160         -271.65561
     11       2.00000          -9.970504         -271.31122
     12       2.00000          -9.891934         -269.17321
     13       2.00000          -9.855940         -268.19378
     14       2.00000          -9.849132         -268.00851
     15       2.00000          -9.827518         -267.42037
     16       2.00000          -0.972082          -26.45171
     17       2.00000          -0.962041          -26.17847
     18       2.00000          -0.938934          -25.54970
     19       2.00000          -0.873444          -23.76762
     20       2.00000          -0.871853          -23.72431
     21       2.00000          -0.848850          -23.09839
     22       2.00000          -0.746453          -20.31203
     23       2.00000          -0.727450          -19.79493
     24       2.00000          -0.683518          -18.59948
     25       2.00000          -0.681330          -18.53992
     26       2.00000          -0.633344          -17.23416
     27       2.00000          -0.627542          -17.07628
     28       2.00000          -0.578215          -15.73403
     29       2.00000          -0.570134          -15.51413
     30       2.00000          -0.532845          -14.49944
     31       2.00000          -0.520719          -14.16948
     32       2.00000          -0.493718          -13.43476
     33       2.00000          -0.479662          -13.05226
     34       2.00000          -0.463560          -12.61411
     35       2.00000          -0.451378          -12.28263
     36       2.00000          -0.437346          -11.90078
     37       2.00000          -0.432107          -11.75822
     38       2.00000          -0.412651          -11.22880
     39       2.00000          -0.409650          -11.14714
     40       2.00000          -0.406311          -11.05628
     41       2.00000          -0.399329          -10.86630
     42       2.00000          -0.392131          -10.67042
     43       2.00000          -0.388186          -10.56307
     44       2.00000          -0.385486          -10.48961
     45       2.00000          -0.380526          -10.35463
     46       2.00000          -0.368351          -10.02333
     47       2.00000          -0.361570           -9.83883
     48       2.00000          -0.357027           -9.71521
     49       2.00000          -0.347561           -9.45763
     50       2.00000          -0.341065           -9.28086
     51       2.00000          -0.337395           -9.18098
     52       2.00000          -0.324907           -8.84116
     53       2.00000          -0.244352           -6.64916
     54       2.00000          -0.240727           -6.55052
     55       2.00000          -0.226155           -6.15399
     56       2.00000          -0.219850           -5.98242
     57       2.00000          -0.207727           -5.65253
     58       2.00000          -0.191162           -5.20177
     59       0.00000          -0.061693           -1.67875
     60       0.00000          -0.055808           -1.51861
     61       0.00000          -0.046428           -1.26338
     62       0.00000          -0.024498           -0.66663
     63       0.00000          -0.021082           -0.57368
     64       0.00000          -0.019000           -0.51703
     65       0.00000          -0.014686           -0.39963
     66       0.00000          -0.000579           -0.01575
     67       0.00000           0.006301            0.17146
     68       0.00000           0.008835            0.24040
     69       0.00000           0.021626            0.58849
     70       0.00000           0.025579            0.69604
     71       0.00000           0.034028            0.92595
     72       0.00000           0.037310            1.01526
     73       0.00000           0.041684            1.13429
     74       0.00000           0.046417            1.26306
     75       0.00000           0.051631            1.40494
     76       0.00000           0.057554            1.56612
     77       0.00000           0.061133            1.66352
     78       0.00000           0.067134            1.82682
     79       0.00000           0.075340            2.05011
     80       0.00000           0.085749            2.33334
     81       0.00000           0.087215            2.37324
     82       0.00000           0.092718            2.52300
     83       0.00000           0.097465            2.65217
     84       0.00000           0.100801            2.74292
     85       0.00000           0.105105            2.86005
     86       0.00000           0.112293            3.05565
     87       0.00000           0.119002            3.23821
     88       0.00000           0.124832            3.39686
     89       0.00000           0.126285            3.43640
     90       0.00000           0.129059            3.51187
     91       0.00000           0.132537            3.60650
     92       0.00000           0.141626            3.85385
     93       0.00000           0.145069            3.94753
     94       0.00000           0.160282            4.36149
     95       0.00000           0.162851            4.43141
     96       0.00000           0.166142            4.52096
     97       0.00000           0.174686            4.75344
     98       0.00000           0.181284            4.93300
     99       0.00000           0.184040            5.00799
    100       0.00000           0.191205            5.20295
    101       0.00000           0.196253            5.34032
    102       0.00000           0.197582            5.37647
    103       0.00000           0.200158            5.44657
    104       0.00000           0.208521            5.67414
    105       0.00000           0.211138            5.74535
    106       0.00000           0.214496            5.83673
    107       0.00000           0.217946            5.93060
    108       0.00000           0.221867            6.03731
    109       0.00000           0.224910            6.12012
    110       0.00000           0.227526            6.19131
    111       0.00000           0.231286            6.29362
    112       0.00000           0.238520            6.49047
    113       0.00000           0.242212            6.59093
    114       0.00000           0.249414            6.78690
    115       0.00000           0.252881            6.88125
    116       0.00000           0.258252            7.02739
    117       0.00000           0.262520            7.14353
    118       0.00000           0.268694            7.31153
    119       0.00000           0.271168            7.37886
    120       0.00000           0.276378            7.52062
    121       0.00000           0.284431            7.73976
    122       0.00000           0.289696            7.88302
    123       0.00000           0.290740            7.91145
    124       0.00000           0.299143            8.14010
    125       0.00000           0.310105            8.43838
    126       0.00000           0.316587            8.61476
    127       0.00000           0.327835            8.92084
    128       0.00000           0.331120            9.01024
    129       0.00000           0.334221            9.09462

  Highest occupied state (VBM) at     -5.20177330 eV
  | Occupation number:      2.00000000

  Lowest unoccupied state (CBM) at    -1.67875445 eV
  | Occupation number:      0.00000000

  Overall HOMO-LUMO gap:      3.52301885 eV.

  Total energy components:
  | Sum of eigenvalues            :        -417.59718993 Ha      -11363.39770126 eV
  | XC energy correction          :        -100.75009152 Ha       -2741.54947881 eV
  | XC potential correction       :         129.52371144 Ha        3524.51951390 eV
  | Free-atom electrostatic energy:        -333.63330717 Ha       -9078.62420336 eV
  | Hartree energy correction     :         -20.25448909 Ha        -551.15269049 eV
  | vdW energy correction         :           0.00000000 Ha           0.00000000 eV
  | Entropy correction            :          -0.00000000 Ha          -0.00000000 eV
  | ---------------------------
  | Total energy                  :        -742.71136627 Ha      -20210.20456003 eV
  | Total energy, T -> 0          :        -742.71136627 Ha      -20210.20456003 eV  <-- do not rely on this value for anything but (periodic) metals
  | Electronic free energy        :        -742.71136627 Ha      -20210.20456003 eV

  Derived energy quantities:
  | Kinetic energy                :         744.04726802 Ha       20246.55629618 eV
  | Electrostatic energy          :       -1386.00854276 Ha      -37715.21137739 eV
  | Energy correction for multipole
  | error in Hartree potential    :          -0.04094300 Ha          -1.11411562 eV
  | Sum of eigenvalues per atom                           :        -355.10617816 eV
  | Total energy (T->0) per atom                          :        -631.56889250 eV  <-- do not rely on this value for anything but (periodic) metals
  | Electronic free energy per atom                       :        -631.56889250 eV

  Self-consistency convergence accuracy:
  | Change of charge density      :  0.9039E+00
  | Change of sum of eigenvalues  :  0.5510E+03 eV
  | Change of total energy        :  0.1554E+02 eV

  End self-consistency iteration #     1       :  max(cpu_time)    wall_clock(cpu1)
  | Time for this iteration                    :        1.508 s           1.509 s
  | Charge density update                      :        0.480 s           0.475 s
[...]
   ----------------------------------------------------------------
   Total forces(  20)            : -0.834595E-03  0.353373E-03  0.339741E-03
  atom #   21
   Hellmann-Feynman              :  0.241951E-02  0.634891E-01  0.317386E-01
   Ionic forces                  :  0.000000E+00  0.000000E+00  0.000000E+00
   Multipole                     : -0.280884E-01 -0.995953E-02 -0.224437E-01
   Pulay + GGA                   :  0.201743E-01 -0.651353E-01 -0.151318E-01
   Van der Waals                 :  0.470778E-02  0.117641E-01  0.509387E-02
   ----------------------------------------------------------------
   Total forces(  21)            : -0.786744E-03  0.158298E-03 -0.743147E-03
  atom #   22
   Hellmann-Feynman              :  0.450843E-01 -0.532996E-01  0.151537E-01
   Ionic forces                  :  0.000000E+00  0.000000E+00  0.000000E+00
   Multipole                     :  0.154502E-02  0.463428E-03  0.113369E-01
   Pulay + GGA                   : -0.395677E-01  0.571154E-01 -0.232082E-01
   Van der Waals                 : -0.734867E-02 -0.452991E-02 -0.331407E-02
   ----------------------------------------------------------------
   Total forces(  22)            : -0.287119E-03 -0.250707E-03 -0.316987E-04
  atom #   23
   Hellmann-Feynman              : -0.111003E+00 -0.920137E+00 -0.542700E+00
   Ionic forces                  :  0.000000E+00  0.000000E+00  0.000000E+00
   Multipole                     :  0.261410E-01  0.206009E+00  0.942301E-01
   Pulay + GGA                   :  0.824540E-01  0.705899E+00  0.452057E+00
   Van der Waals                 :  0.281989E-02  0.916395E-02 -0.286704E-02
   ----------------------------------------------------------------
   Total forces(  23)            :  0.411911E-03  0.935038E-03  0.720220E-03
  atom #   24
   Hellmann-Feynman              :  0.369634E-01  0.177955E-01  0.217907E-01
   Ionic forces                  :  0.000000E+00  0.000000E+00  0.000000E+00
   Multipole                     :  0.245575E-01 -0.253340E-01 -0.650116E-02
   Pulay + GGA                   : -0.613495E-01  0.837404E-02 -0.170358E-01
   Van der Waals                 : -0.538276E-03 -0.382802E-03  0.179326E-02
   ----------------------------------------------------------------
   Total forces(  24)            : -0.366891E-03  0.452741E-03  0.469886E-04
  atom #   25
   Hellmann-Feynman              : -0.162761E-01  0.455817E-01  0.913969E-02
   Ionic forces                  :  0.000000E+00  0.000000E+00  0.000000E+00
   Multipole                     : -0.366204E-02  0.815784E-02 -0.284894E-01
   Pulay + GGA                   :  0.256557E-01 -0.478093E-01  0.221931E-01
   Van der Waals                 : -0.619966E-02 -0.587298E-02 -0.287155E-02
   ----------------------------------------------------------------
   Total forces(  25)            : -0.482125E-03  0.572623E-04 -0.281129E-04
  atom #   26
   Hellmann-Feynman              : -0.343288E-02  0.350037E-01  0.404540E-01
   Ionic forces                  :  0.000000E+00  0.000000E+00  0.000000E+00
   Multipole                     : -0.197689E-01 -0.262994E-01  0.137640E-01
   Pulay + GGA                   :  0.274705E-01 -0.538354E-02 -0.509454E-01
   Van der Waals                 : -0.468955E-02 -0.347750E-02 -0.325184E-02
   ----------------------------------------------------------------
   Total forces(  26)            : -0.420796E-03 -0.156776E-03  0.207724E-04
  atom #   27
   Hellmann-Feynman              :  0.108472E+01  0.667822E-01 -0.341128E+00
   Ionic forces                  :  0.000000E+00  0.000000E+00  0.000000E+00
   Multipole                     :  0.137601E+00 -0.134179E+00  0.115381E+00
   Pulay + GGA                   : -0.123207E+01  0.666695E-01  0.227630E+00
   Van der Waals                 :  0.102894E-01  0.905127E-03 -0.675450E-03
   ----------------------------------------------------------------
   Total forces(  27)            :  0.539159E-03  0.177562E-03  0.120787E-02
  atom #   28
   Hellmann-Feynman              : -0.142176E+01  0.630850E-02  0.200500E+01
   Ionic forces                  :  0.000000E+00  0.000000E+00  0.000000E+00
   Multipole                     :  0.124933E+00 -0.199120E-02 -0.136534E+00
   Pulay + GGA                   :  0.128988E+01 -0.680341E-02 -0.186014E+01
   Van der Waals                 :  0.787552E-02  0.239302E-02 -0.941693E-02
   ----------------------------------------------------------------
   Total forces(  28)            :  0.934254E-03 -0.930862E-04 -0.109072E-02
  atom #   29
   Hellmann-Feynman              :  0.119022E-01 -0.110015E-01  0.290913E-01
   Ionic forces                  :  0.000000E+00  0.000000E+00  0.000000E+00
   Multipole                     : -0.201647E-01 -0.640971E-02  0.347526E-01
   Pulay + GGA                   : -0.622117E-02  0.223358E-01 -0.602915E-01
   Van der Waals                 :  0.141880E-01 -0.431538E-02 -0.332373E-02
   ----------------------------------------------------------------
   Total forces(  29)            : -0.295621E-03  0.609265E-03  0.228702E-03
  atom #   30
   Hellmann-Feynman              :  0.476559E-01  0.911952E-03 -0.888237E-02
   Ionic forces                  :  0.000000E+00  0.000000E+00  0.000000E+00
   Multipole                     :  0.125745E-01  0.255942E-01  0.222515E-01
   Pulay + GGA                   : -0.618523E-01 -0.238246E-01 -0.148568E-01
   Van der Waals                 :  0.275891E-02 -0.284816E-02  0.151400E-02
   ----------------------------------------------------------------
   Total forces(  30)            :  0.113701E-02 -0.166660E-03  0.262862E-04
  atom #   31
   Hellmann-Feynman              :  0.301069E-01 -0.316556E-01 -0.182496E-01
   Ionic forces                  :  0.000000E+00  0.000000E+00  0.000000E+00
   Multipole                     : -0.126509E-01 -0.313428E-01  0.583433E-02
   Pulay + GGA                   : -0.222890E-01  0.628148E-01  0.100714E-01
   Van der Waals                 :  0.464526E-02 -0.102701E-02  0.206740E-02
   ----------------------------------------------------------------
   Total forces(  31)            : -0.187811E-03 -0.121050E-02 -0.276521E-03
  atom #   32
   Hellmann-Feynman              :  0.398219E-01 -0.134107E-02 -0.530868E-01
   Ionic forces                  :  0.000000E+00  0.000000E+00  0.000000E+00
   Multipole                     : -0.463635E-01  0.182139E-01 -0.181736E-02
   Pulay + GGA                   :  0.632817E-02 -0.182571E-01  0.565850E-01
   Van der Waals                 :  0.534321E-06  0.182991E-02 -0.232102E-02
   ----------------------------------------------------------------
   Total forces(  32)            : -0.212894E-03  0.445594E-03 -0.640252E-03

  Timings for VdW correction (Tkatchenko-Scheffler 2009 or later):
  | CPU time:        0.128 s, Wall clock time:        0.128 s.
  Removing unitary transformations (pure translations, rotations) from forces on atoms.
  Atomic forces before filtering:
  | Net force on center of mass :  -0.173734E-03  0.186894E-03 -0.874184E-03 eV/A
  | Net torque on center of mass:   0.756630E-03 -0.528180E-03  0.589312E-03 eV
  Atomic forces after filtering:
  | Net force on center of mass :  -0.522674E-18  0.609787E-18 -0.261337E-18 eV/A
  | Net torque on center of mass:   0.258148E-17 -0.184392E-17 -0.161343E-17 eV

  Energy and forces in a compact form:
  | Total energy uncorrected      :         -0.202084081591155E+05 eV
  | Total energy corrected        :         -0.202084081591155E+05 eV  <-- do not rely on this value for anything but (periodic) metals
  | Electronic free energy        :         -0.202084081591155E+05 eV
  Total atomic forces (unitary forces cleaned) [eV/Ang]:
  |   1         -0.970896847937783E-03          0.447801219289475E-03          0.903478684867177E-03
  |   2          0.140950220859481E-02          0.140551685785356E-02          0.159147751186502E-02
  |   3         -0.992153703441127E-04         -0.660993077336551E-03         -0.666187732918519E-03
  |   4         -0.516760222206179E-03          0.368624797859906E-03         -0.884898255233257E-03
  |   5         -0.386142524478062E-03         -0.435225909396828E-03         -0.344381955882543E-03
  |   6         -0.227356795890790E-03          0.171495536400881E-03          0.313624585177566E-03
  |   7          0.734142994289192E-04          0.516805348829621E-03         -0.128570076865454E-02
  |   8          0.193365612137498E-03         -0.136544626489653E-02         -0.918657034846007E-03
  |   9         -0.124411586735540E-03          0.295986564950116E-02          0.400212305043196E-03
  |  10          0.480330701235695E-03         -0.912647037918520E-03         -0.142973021520540E-03
  |  11         -0.564196038542015E-03         -0.114543631006887E-02         -0.513707008905211E-04
  |  12          0.628074259372805E-03         -0.322792703805453E-03          0.130487723546880E-03
  |  13         -0.335791265835100E-03         -0.118520940295158E-02          0.973718134979133E-03
  |  14          0.193807949164836E-03         -0.355367977650589E-03          0.612173272509928E-04
  |  15          0.504329307046602E-03         -0.156384171034598E-03          0.150871415786960E-03
  |  16          0.250021623655031E-03          0.208422762526045E-03          0.144898770341092E-03
  |  17         -0.564233920953065E-04         -0.618504224187046E-03          0.510175549657551E-03
  |  18         -0.793913154889760E-03         -0.939309482617969E-03          0.108539243781774E-02
  |  19          0.116697027439144E-02          0.739764929584918E-03         -0.220674695162159E-02
  |  20         -0.832208664619698E-03          0.355519326502109E-03          0.375572537833092E-03
  |  21         -0.786312680778369E-03          0.147716353552132E-03         -0.707070341674870E-03
  |  22         -0.283915202900692E-03         -0.260783168976734E-03         -0.110185095691516E-05
  |  23          0.410873963150142E-03          0.924698124211161E-03          0.759346790494353E-03
  |  24         -0.368162877579887E-03          0.443517875825485E-03          0.869201682425245E-04
  |  25         -0.484493361773149E-03          0.489307501007957E-04          0.143055480227362E-04
  |  26         -0.422489560006667E-03         -0.171922791486787E-03          0.598255468095496E-04
  |  27          0.543130941828645E-03          0.178057992845007E-03          0.124000072457297E-02
  |  28          0.939025889403851E-03         -0.864600892159507E-04         -0.105841731190198E-02
  |  29         -0.291381048294755E-03          0.606625507085050E-03          0.259371536665697E-03
  |  30          0.114061125940911E-02         -0.159236939926165E-03          0.612053500635066E-04
  |  31         -0.180868423299447E-03         -0.120252301422948E-02         -0.248231747880884E-03
  |  32         -0.208519270612073E-03          0.454879533732360E-03         -0.606364975055578E-03

  ------------------------------------ 
  Start decomposition of the XC Energy 
  ------------------------------------ 
  Hartree-Fock part   :          0.000000000 Ha              0.000000000 eV
  ------------------------------------ 
  X Energy            :        -96.979063796 Ha          -2638.934593405 eV
  C Energy GGA        :         -3.867040051 Ha           -105.227513708 eV
  Total XC Energy     :       -100.846103847 Ha          -2744.162107114 eV
  LDA X and C from self-consistent density 
  X Energy LDA        :        -87.992856209 Ha          -2394.407443569 eV
  C Energy LDA        :         -7.531224113 Ha           -204.935035084 eV
  ------------------------------------ 
  End decomposition of the XC Energy 
  ------------------------------------ 
   
  ESP charge fitting starts.
  | Calculation :  00000001  of  00000001
  | Full density
  Computing multipole expansion for total density.
  Generating points for esp charges.
  Partitioning the integration grid into batches with parallel hashing+maxmin method.
  | Number of batches:     3857
  | Maximal batch size:     200
  | Minimal batch size:      55
  | Average batch size:     126.391
  | Standard deviation of batch sizes:      17.911

  Integration load balanced across    32 MPI tasks.
  Work distribution over tasks is as follows:
  Initializing partition tables, free-atom densities, potentials, etc. across the integration grid (initialize_grid_storage).
  | Original list of interatomic distances with          32 x         32 entries is created.
  | Net number of integration points:   487489
  | of which are non-zero points    :   487489
  Summing up potential from multipole expanded  density.
  Summing up the Hartree potential.
  Time summed over all CPUs for potential: real work        6.363 s, elapsed        6.696 s
  Fitting esp charges to potential.
  |
  | ESP charges fitted to the electrostatic potential :
  |
  | Atom         1: C, ESP charge:      0.64727224
  |
  | Atom         2: C, ESP charge:     -0.84135475
  |
  | Atom         3: O, ESP charge:      0.58473786
  |
  | Atom         4: H, ESP charge:     -0.17164094
  |
  | Atom         5: H, ESP charge:     -0.16356897
  |
  | Atom         6: H, ESP charge:     -0.19125014
  |
  | Atom         7: N, ESP charge:      0.82312899
  |
  | Atom         8: C, ESP charge:     -0.68044220
  |
  | Atom         9: C, ESP charge:     -0.51662522
  |
  | Atom        10: O, ESP charge:      0.50202970
  |
  | Atom        11: H, ESP charge:     -0.34392850
  |
  | Atom        12: H, ESP charge:      0.12151454
  |
  | Atom        13: C, ESP charge:      0.64779053
  |
  | Atom        14: H, ESP charge:     -0.15721206
  |
  | Atom        15: H, ESP charge:     -0.16795181
  |
  | Atom        16: H, ESP charge:     -0.16849624
  |
  | Atom        17: N, ESP charge:      0.80705238
  |
  | Atom        18: C, ESP charge:     -0.58169049
  |
  | Atom        19: C, ESP charge:     -0.32819811
  |
  | Atom        20: O, ESP charge:      0.48311312
  |
  | Atom        21: H, ESP charge:     -0.36831774
  |
  | Atom        22: H, ESP charge:      0.12412816
  |
  | Atom        23: C, ESP charge:      0.33488252
  |
  | Atom        24: H, ESP charge:     -0.05143193
  |
  | Atom        25: H, ESP charge:     -0.10377562
  |
  | Atom        26: H, ESP charge:     -0.10666180
  |
  | Atom        27: N, ESP charge:      0.14980400
  |
  | Atom        28: C, ESP charge:      0.43052967
  |
  | Atom        29: H, ESP charge:     -0.22849795
  |
  | Atom        30: H, ESP charge:     -0.13995085
  |
  | Atom        31: H, ESP charge:     -0.15212676
  |
  | Atom        32: H, ESP charge:     -0.19286163

  RRMS:       0.00110598

  Done.

------------------------------------------------------------------------------
  Final output of selected total energy values:

  The following output summarizes some interesting total energy values
  at the end of a run (AFTER all relaxation, molecular dynamics, etc.).

  | Total energy of the DFT / Hartree-Fock s.c.f. calculation      :         -20208.408159115 eV
  | Final zero-broadening corrected energy (caution - metals only) :         -20208.408159115 eV
  | For reference only, the value of 1 Hartree used in FHI-aims is :             27.211384500 eV

  Before relying on these values, please be sure to understand exactly which
  total energy value is referred to by a given number. Different objects may
  all carry the same name 'total energy'. Definitions:

  Total energy of the DFT / Hartree-Fock s.c.f. calculation:
  | Note that this energy does not include ANY quantities calculated after the
  | s.c.f. cycle, in particular not ANY RPA, MP2, etc. many-body perturbation terms.

  Final zero-broadening corrected energy:
  | For metallic systems only, a broadening of the occupation numbers at the Fermi
  | level can be extrapolated back to zero broadening by an electron-gas inspired
  | formula. For all systems that are not real metals, this value can be
  | meaningless and should be avoided.

------------------------------------------------------------------------------
  Methods described in the following list of references were used in this FHI-aims run.
  If you publish the results, please make sure to cite these reference if they apply.
  FHI-aims is an academic code, and for our developers (often, Ph.D. students
  and postdocs), scientific credit in the community is essential.
  Thank you for helping us!

  For any use of FHI-aims, please cite:

    Volker Blum, Ralf Gehrke, Felix Hanke, Paula Havu, Ville Havu,
    Xinguo Ren, Karsten Reuter, and Matthias Scheffler
    'Ab initio molecular simulations with numeric atom-centered orbitals'
    Computer Physics Communications 180, 2175-2196 (2009)
    http://dx.doi.org/10.1016/j.cpc.2009.06.022


  The scalable eigensolver library ELPA was used in your run.
  ELPA is essential especially for large systems on hundreds or thousands of CPUs.
  For ELPA, please cite:

    Andreas Marek, Volker Blum, Rainer Johanni, Ville Havu, Bruno Lang,
    Thomas Auckenthaler, Alexander Heinecke, Hans-Joachim Bungartz, and Hermann Lederer,
    'The ELPA Library - Scalable Parallel Eigenvalue Solutions
    for Electronic Structure Theory and Computational Science'
    The Journal of Physics: Condensed Matter 26, 213201 (2014).
    http://dx.doi.org/10.1088/0953-8984/26/21/213201


  For ELPA's efficient two-stage tridiagonalization used in your run, please cite:

    T. Auckenthaler, V. Blum, H.-J. Bungartz, T. Huckle, R. Johanni, L. Kraemer,
    B. Lang, H. Lederer, and P. R. Willems,
    'Parallel solution of partial symmetric eigenvalue problems'
    'from  electronic structure calculations'
    Parallel Computing 37, 783-794 (2011).
    http://dx.doi.org/10.1016/j.parco.2011.05.002


  For the real-space grid partitioning and parallelization used in this calculation, please cite:

    Ville Havu, Volker Blum, Paula Havu, and Matthias Scheffler,
    'Efficient O(N) integration for all-electron electronic structure calculation'
    'using numerically tabulated basis functions'
    Journal of Computational Physics 228, 8367-8379 (2009).
    http://dx.doi.org/10.1016/j.jcp.2009.08.008

  Of course, there are many other important community references, e.g., those cited in the
  above references. Our list is limited to references that describe implementations in the
  FHI-aims code. The reason is purely practical (length of this list) - please credit others as well.

------------------------------------------------------------
          Leaving FHI-aims.
          Date     :  20170309, Time     :  180555.457

          Computational steps:
          | Number of self-consistency cycles          :           14

          Detailed time accounting                     :  max(cpu_time)    wall_clock(cpu1)
          | Total time                                 :       29.970 s          30.142 s
          | Preparation time                           :        0.236 s           0.235 s
          | Grid partitioning                          :        0.328 s           0.325 s
          | Preloading free-atom quantities on grid    :        0.028 s           0.028 s
          | Free-atom superposition energy             :        0.040 s           0.038 s
          | Total time for integrations                :       10.697 s          10.685 s
          | Total time for solution of K.-S. equations :        0.528 s           0.498 s
          | Total time for density & force components  :        9.473 s           9.438 s
          | Total time for mixing                      :        0.124 s           0.105 s
          | Total time for Hartree multipole update    :        0.060 s           0.060 s
          | Total time for Hartree multipole sum       :        6.376 s           6.351 s
          | Total time for total energy evaluation     :        0.028 s           0.023 s
          | Total time for vdW correction              :        0.128 s           0.128 s

          Have a nice day.
------------------------------------------------------------
