  MPI-parallelism will be employed.
------------------------------------------------------------
          Invoking FHI-aims ...
          Version 150427
          Git rev.: 9dd23e0 BL: Update Version stamp
          Compiled on 2015/11/03 at 22:05:20 on host eos03.

          When using FHI-aims, please cite the following reference:

          Volker Blum, Ralf Gehrke, Felix Hanke, Paula Havu,
          Ville Havu, Xinguo Ren, Karsten Reuter, and Matthias Scheffler,
          'Ab Initio Molecular Simulations with Numeric Atom-Centered Orbitals: FHI-aims',
          Computer Physics Communications 180, 2175-2196 (2009)

          For any questions about FHI-aims, please visit the aimsclub website
          with its forums and wiki. Contributions to both the forums and the
          wiki are warmly encouraged - they are for you, and everyone is welcome there.

------------------------------------------------------------

  Date     :  20170309, Time     :  184740.759
  Time zero on CPU 1             :   0.392024000000000E+00  s.
  Internal wall clock time zero  :           258317260.759  s.

  Using       32 parallel tasks.
  Task        0 on host eos026 reporting.
  Task        1 on host eos026 reporting.
  Task        2 on host eos026 reporting.
  Task        3 on host eos026 reporting.
  Task        4 on host eos026 reporting.
  Task        5 on host eos026 reporting.
  Task        6 on host eos026 reporting.
  Task        7 on host eos026 reporting.
  Task        8 on host eos026 reporting.
  Task        9 on host eos026 reporting.
  Task       10 on host eos026 reporting.
  Task       11 on host eos026 reporting.
  Task       12 on host eos026 reporting.
  Task       13 on host eos026 reporting.
  Task       14 on host eos026 reporting.
  Task       15 on host eos026 reporting.
  Task       16 on host eos026 reporting.
  Task       17 on host eos026 reporting.
  Task       18 on host eos026 reporting.
  Task       19 on host eos026 reporting.
  Task       20 on host eos026 reporting.
  Task       21 on host eos026 reporting.
  Task       22 on host eos026 reporting.
  Task       23 on host eos026 reporting.
  Task       24 on host eos026 reporting.
  Task       25 on host eos026 reporting.
  Task       26 on host eos026 reporting.
  Task       27 on host eos026 reporting.
  Task       28 on host eos026 reporting.
  Task       29 on host eos026 reporting.
  Task       30 on host eos026 reporting.
  Task       31 on host eos026 reporting.

  Performing system and environment tests:
  | Environment variable OMP_NUM_THREADS correctly set to 1.
  | Stacksize not measured: no C compiler
  | Checking for scalapack...
  | Testing pdtran()...
  | All pdtran() tests passed.

  Obtaining array dimensions for all initial allocations:
  
  -----------------------------------------------------------------------
  Parsing control.in (first pass over file, find array dimensions only).
  The contents of control.in will be repeated verbatim below
  unless switched off by setting 'verbatim_writeout .false.' .
  in the first line of control.in .
  -----------------------------------------------------------------------
  
  #########################################################################################
  #
  # Input for System
  #
  #########################################################################################
  #
  #
  #  Physical model
  #
    xc                 pbe
    vdw_correction_hirshfeld
    spin               none
    charge             0.
  #
  #  SCF convergence
  #
    occupation_type    gaussian 0.05
    mixer              pulay
      n_max_pulay        10
      charge_mix_param   0.5
    sc_accuracy_rho    1E-4
    sc_accuracy_eev    1E-2
    sc_accuracy_etot   1E-5
    sc_accuracy_forces 1E-4
    sc_iter_limit      1000
  #
  #  ESP charge
  #
    output esp
    esp equal_grid_n 80 80 80
  #
  #
  ################################################################################
  #
  #  FHI-aims code project
  # Volker Blum, Fritz Haber Institute Berlin, 2009
  #
  #  Suggested "tight" defaults for H atom (to be pasted into control.in file)
  #
  ################################################################################
    species        H
  #     global species definitions
      nucleus             1
      mass                1.00794
  #
      l_hartree           6
  #
      cut_pot             4.0  2.0  1.0
      basis_dep_cutoff    1e-4
  #
      radial_base         24 7.0
      radial_multiplier   2
      angular_grids       specified
        division   0.1930   50
        division   0.3175  110
        division   0.4293  194
        division   0.5066  302
        division   0.5626  434
  #      division   0.5922  590
  #      division   0.6227  974
  #      division   0.6868 1202
  #      outer_grid  770
        outer_grid  434
  ################################################################################
  #
  #  Definition of "minimal" basis
  #
  ################################################################################
  #     valence basis states
      valence      1  s   1.
  #     ion occupancy
      ion_occ      1  s   0.5
  ################################################################################
  #
  #  Suggested additional basis functions. For production calculations,
  #  uncomment them one after another (the most important basis functions are
  #  listed first).
  #
  #  Basis constructed for dimers: 0.5 A, 0.7 A, 1.0 A, 1.5 A, 2.5 A
  #
  ################################################################################
  #  "First tier" - improvements: -1014.90 meV to -62.69 meV
       hydro 2 s 2.1
       hydro 2 p 3.5
  #  "Second tier" - improvements: -12.89 meV to -1.83 meV
       hydro 1 s 0.85
       hydro 2 p 3.7
       hydro 2 s 1.2
       hydro 3 d 7
  #  "Third tier" - improvements: -0.25 meV to -0.12 meV
  #     hydro 4 f 11.2
  #     hydro 3 p 4.8
  #     hydro 4 d 9
  #     hydro 3 s 3.2
  ################################################################################
  #
  # For methods that use the localized form of the "resolution of identity" for
  # the two-electron Coulomb operator (RI_method LVL), particularly Hartree-Fock and
  # hybrid density functional calculations, the highest accuracy can be obtained by
  # uncommenting the line beginning with "for_aux"  below, thus adding an extra g radial
  # function to the construction of the product basis set for the expansion.
  # See Ref. New J. Phys. 17, 093020 (2015) for more information, particularly Figs. 1 and 6.
  #
  ################################################################################
  #
  # for_aux hydro 5 g 6.0
  ################################################################################
  #
  #  FHI-aims code project
  # Volker Blum, Fritz Haber Institute Berlin, 2009
  #
  #  Suggested "tight" defaults for C atom (to be pasted into control.in file)
  #
  ################################################################################
    species        C
  #     global species definitions
      nucleus             6
      mass                12.0107
  #
      l_hartree           6
  #
      cut_pot             4.0  2.0  1.0
      basis_dep_cutoff    1e-4
  #
      radial_base         34 7.0
      radial_multiplier   2
      angular_grids specified
        division   0.2187   50
        division   0.4416  110
        division   0.6335  194
        division   0.7727  302
        division   0.8772  434
  #      division   0.9334  590
  #      division   0.9924  770
  #      division   1.0230  974
  #      division   1.5020 1202
  #     outer_grid  974
        outer_grid  434
  ################################################################################
  #
  #  Definition of "minimal" basis
  #
  ################################################################################
  #     valence basis states
      valence      2  s   2.
      valence      2  p   2.
  #     ion occupancy
      ion_occ      2  s   1.
      ion_occ      2  p   1.
  ################################################################################
  #
  #  Suggested additional basis functions. For production calculations,
  #  uncomment them one after another (the most important basis functions are
  #  listed first).
  #
  #  Constructed for dimers: 1.0 A, 1.25 A, 1.5 A, 2.0 A, 3.0 A
  #
  ################################################################################
  #  "First tier" - improvements: -1214.57 meV to -155.61 meV
       hydro 2 p 1.7
       hydro 3 d 6
       hydro 2 s 4.9
  #  "Second tier" - improvements: -67.75 meV to -5.23 meV
       hydro 4 f 9.8
       hydro 3 p 5.2
       hydro 3 s 4.3
       hydro 5 g 14.4
       hydro 3 d 6.2
  #  "Third tier" - improvements: -2.43 meV to -0.60 meV
  #     hydro 2 p 5.6
  #     hydro 2 s 1.4
  #     hydro 3 d 4.9
  #     hydro 4 f 11.2
  #  "Fourth tier" - improvements: -0.39 meV to -0.18 meV
  #     hydro 2 p 2.1
  #     hydro 5 g 16.4
  #     hydro 4 d 13.2
  #     hydro 3 s 13.6
  #     hydro 4 f 17.6
  #  Further basis functions - improvements: -0.08 meV and below
  #     hydro 3 s 2
  #     hydro 3 p 6
  #     hydro 4 d 20
  ################################################################################
  #
  # For methods that use the localized form of the "resolution of identity" for
  # the two-electron Coulomb operator (RI_method LVL), particularly Hartree-Fock and
  # hybrid density functional calculations, the highest accuracy can be obtained by
  # uncommenting the line beginning with "for_aux"  below, thus adding an extra g radial
  # function to the construction of the product basis set for the expansion.
  # See Ref. New J. Phys. 17, 093020 (2015) for more information, particularly Figs. 1 and 6.
  #
  ################################################################################
  #
  # for_aux hydro 5 g 6.0
  ################################################################################
  #
  #  FHI-aims code project
  # Volker Blum, Fritz Haber Institute Berlin, 2009
  #
  #  Suggested "tight" defaults for N atom (to be pasted into control.in file)
  #
  ################################################################################
    species        N
  #     global species definitions
      nucleus             7
      mass                14.0067
  #
      l_hartree           6
  #
      cut_pot             4.0  2.0  1.0
      basis_dep_cutoff    1e-4
  #
      radial_base         35 7.0
      radial_multiplier   2
      angular_grids       specified
        division   0.1841   50
        division   0.3514  110
        division   0.5126  194
        division   0.6292  302
        division   0.6939  434
  #      division   0.7396  590
  #      division   0.7632  770
  #      division   0.8122  974
  #      division   1.1604 1202
  #      outer_grid  974
        outer_grid  434
  ################################################################################
  #
  #  Definition of "minimal" basis
  #
  ################################################################################
  #     valence basis states
      valence      2  s   2.
      valence      2  p   3.
  #     ion occupancy
      ion_occ      2  s   1.
      ion_occ      2  p   2.
  ################################################################################
  #
  #  Suggested additional basis functions. For production calculations,
  #  uncomment them one after another (the most important basis functions are
  #  listed first).
  #
  #  Constructed for dimers: 1.0 A, 1.1 A, 1.5 A, 2.0 A, 3.0 A
  #
  ################################################################################
  #  "First tier" - improvements: -1193.42 meV to -220.60 meV
       hydro 2 p 1.8
       hydro 3 d 6.8
       hydro 3 s 5.8
  #  "Second tier" - improvements: -80.21 meV to -6.86 meV
       hydro 4 f 10.8
       hydro 3 p 5.8
       hydro 1 s 0.8
       hydro 5 g 16
       hydro 3 d 4.9
  #  "Third tier" - improvements: -4.29 meV to -0.53 meV
  #     hydro 3 s 16
  #     ionic 2 p auto
  #     hydro 3 d 6.6
  #     hydro 4 f 11.6
  #  "Fourth tier" - improvements: -0.75 meV to -0.25 meV
  #     hydro 2 p 4.5
  #     hydro 2 s 2.4
  #     hydro 5 g 14.4
  #     hydro 4 d 14.4
  #     hydro 4 f 16.8
  # Further basis functions - -0.21 meV and below
  #     hydro 3 p 14.8
  #     hydro 3 s 4.4
  #     hydro 3 d 19.6
  #     hydro 5 g 12.8
  ################################################################################
  #
  # For methods that use the localized form of the "resolution of identity" for
  # the two-electron Coulomb operator (RI_method LVL), particularly Hartree-Fock and
  # hybrid density functional calculations, the highest accuracy can be obtained by
  # uncommenting the line beginning with "for_aux"  below, thus adding an extra g radial
  # function to the construction of the product basis set for the expansion.
  # See Ref. New J. Phys. 17, 093020 (2015) for more information, particularly Figs. 1 and 6.
  #
  ################################################################################
  #
  # for_aux hydro 5 g 6.0
  ################################################################################
  #
  #  FHI-aims code project
  # Volker Blum, Fritz Haber Institute Berlin, 2009
  #
  #  Suggested "tight" defaults for O atom (to be pasted into control.in file)
  #
  ################################################################################
    species        O
  #     global species definitions
      nucleus             8
      mass                15.9994
  #
      l_hartree           6
  #
      cut_pot             4.0  2.0  1.0
      basis_dep_cutoff    1e-4
  #
      radial_base         36 7.0
      radial_multiplier   2
       angular_grids specified
        division   0.1817   50
        division   0.3417  110
        division   0.4949  194
        division   0.6251  302
        division   0.8014  434
  #      division   0.8507  590
  #      division   0.8762  770
  #      division   0.9023  974
  #      division   1.2339 1202
  #      outer_grid 974
        outer_grid  434
  ################################################################################
  #
  #  Definition of "minimal" basis
  #
  ################################################################################
  #     valence basis states
      valence      2  s   2.
      valence      2  p   4.
  #     ion occupancy
      ion_occ      2  s   1.
      ion_occ      2  p   3.
  ################################################################################
  #
  #  Suggested additional basis functions. For production calculations,
  #  uncomment them one after another (the most important basis functions are
  #  listed first).
  #
  #  Constructed for dimers: 1.0 A, 1.208 A, 1.5 A, 2.0 A, 3.0 A
  #
  ################################################################################
  #  "First tier" - improvements: -699.05 meV to -159.38 meV
       hydro 2 p 1.8
       hydro 3 d 7.6
       hydro 3 s 6.4
  #  "Second tier" - improvements: -49.91 meV to -5.39 meV
       hydro 4 f 11.6
       hydro 3 p 6.2
       hydro 3 d 5.6
       hydro 5 g 17.6
       hydro 1 s 0.75
  #  "Third tier" - improvements: -2.83 meV to -0.50 meV
  #     ionic 2 p auto
  #     hydro 4 f 10.8
  #     hydro 4 d 4.7
  #     hydro 2 s 6.8
  #  "Fourth tier" - improvements: -0.40 meV to -0.12 meV
  #     hydro 3 p 5
  #     hydro 3 s 3.3
  #     hydro 5 g 15.6
  #     hydro 4 f 17.6
  #     hydro 4 d 14
  # Further basis functions - -0.08 meV and below
  #     hydro 3 s 2.1
  #     hydro 4 d 11.6
  #     hydro 3 p 16
  #     hydro 2 s 17.2
  ################################################################################
  #
  # For methods that use the localized form of the "resolution of identity" for
  # the two-electron Coulomb operator (RI_method LVL), particularly Hartree-Fock and
  # hybrid density functional calculations, the highest accuracy can be obtained by
  # uncommenting the line beginning with "for_aux"  below, thus adding an extra g radial
  # function to the construction of the product basis set for the expansion.
  # See Ref. New J. Phys. 17, 093020 (2015) for more information, particularly Figs. 1 and 6.
  #
  ################################################################################
  #
  # for_aux hydro 5 g 6.0
  
  -----------------------------------------------------------------------
  Completed first pass over input file control.in .
  -----------------------------------------------------------------------
  
  
  -----------------------------------------------------------------------
  Parsing geometry.in (first pass over file, find array dimensions only).
  The contents of geometry.in will be repeated verbatim below
  unless switched off by setting 'verbatim_writeout .false.' .
  in the first line of geometry.in .
  -----------------------------------------------------------------------
  
  #
  # This is the geometry file that corresponds to the current relaxation step.
  # If you do not want this file to be written, set the "write_restart_geometry" flag to .false.
  #
  atom      -0.11344779      0.98525563      0.72717991 C
  atom      -0.16876879      0.20562753      2.02839667 C
  atom       0.80896250      0.12123618      2.76800080 O
  atom      -0.50707856      2.00038509      0.88449411 H
  atom      -0.67893736      0.51785234     -0.08942143 H
  atom       0.93685572      1.07329335      0.43516364 H
  atom      -1.34884137     -0.42361955      2.35692412 N
  atom      -2.68164746     -0.18051660      1.80732016 C
  atom      -3.27071095      1.07396602      2.50319220 C
  atom      -3.56475930      1.04758297      3.69645522 O
  atom      -1.32998879     -0.81767417      3.29647351 H
  atom      -2.57574288     -0.00442081      0.72735860 H
  atom      -3.57987678     -1.39204611      2.03611041 C
  atom      -4.56789833     -1.23028470      1.58635871 H
  atom      -3.72625371     -1.55647345      3.11170442 H
  atom      -3.13142792     -2.28883771      1.59155600 H
  atom      -3.34021395      2.17077310      1.69652241 N
  atom      -3.68287749      3.56616023      2.00933929 C
  atom      -2.44174737      4.49970265      1.96691780 C
  atom      -2.45441529      5.45360355      1.18674022 O
  atom      -3.03389610      2.02986972      0.73994885 H
  atom      -4.25439028      3.92543437      1.14269205 H
  atom      -4.55557665      3.78611782      3.24794484 C
  atom      -4.05391954      3.53527810      4.18575304 H
  atom      -5.46872224      3.18209914      3.18593585 H
  atom      -4.84175083      4.84573787      3.26902666 H
  atom      -1.35841719      4.25169013      2.75675548 N
  atom      -1.15403398      3.30241828      3.84223866 C
  atom      -0.62820328      4.94506177      2.61327372 H
  atom      -0.98467979      3.83637832      4.78881835 H
  atom      -0.28156377      2.66387087      3.64469650 H
  atom      -2.02409548      2.65512903      3.97662720 H
  
  -----------------------------------------------------------------------
  Completed first pass over input file geometry.in .
  -----------------------------------------------------------------------
  

  Basic array size parameters:
  | Number of species                 :        4
  | Number of atoms                   :       32
  | Max. basis fn. angular momentum   :        4
  | Max. atomic/ionic basis occupied n:        2
  | Max. number of basis fn. types    :        2
  | Max. radial fns per species/type  :        8
  | Max. logarithmic grid size        :     1301
  | Max. radial integration grid size :       73
  | Max. angular integration grid size:      434
  | Max. angular grid division number :        8
  | Radial grid for Hartree potential :     1301
  | Number of spin channels           :        1

------------------------------------------------------------
          Reading file control.in.
------------------------------------------------------------
  XC: Using PBE gradient-corrected functionals.
  Spin treatment: No spin polarisation.
  Charge =   0.000000E+00: Neutral system requested explicitly.
  Occupation type: Gaussian broadening, width =   0.500000E-01 eV.
  Using pulay charge density mixing.
  Pulay mixing - number of memorized iterations:   10
  Charge density mixing - mixing parameter:     0.5000
  Convergence accuracy of self-consistent charge density:  0.1000E-03
  Convergence accuracy of sum of eigenvalues:  0.1000E-01
  Convergence accuracy of total energy:  0.1000E-04
  Convergence accuracy of forces:  0.1000E-03
  Maximum number of s.-c. iterations  :  1000
  Fitting ESP-charges to Potential. 
  | Esp charge output options: 
  | ESP Grid method: 3, cubic grid
  | Number of points in x, ,y, z:  0080 0080 0080
  |
 
  Reading configuration options for species H                   .
  | Found nuclear charge :   1.0000
  | Found atomic mass :    1.00794000000000      amu
  | Found l_max for Hartree potential  :   6
  | Found cutoff potl. onset [A], width [A], scale factor :    4.00000    2.00000    1.00000
  | Threshold for basis-dependent cutoff potential is   0.100000E-03
  | Found data for basic radial integration grid :    24 points, outermost radius =    7.000 A
  | Found multiplier for basic radial grid :   2
  | Found angular grid specification: user-specified.
  | Specified grid contains     6 separate shells.
  | Check grid settings after all constraints further below.
  | Found free-atom valence shell :  1 s   1.000
  | No ionic wave fns used. Skipping ion_occ.
  | Found hydrogenic basis function :  2 s   2.100
  | Found hydrogenic basis function :  2 p   3.500
  | Found hydrogenic basis function :  1 s   0.850
  | Found hydrogenic basis function :  2 p   3.700
  | Found hydrogenic basis function :  2 s   1.200
  | Found hydrogenic basis function :  3 d   7.000
  Species H                   : Missing cutoff potential type.
  Defaulting to exp(1/x)/(1-x)^2 type cutoff potential.
  Species H : No 'logarithmic' tag. Using default grid for free atom:
  | Default logarithmic grid data [bohr] : 0.1000E-03 0.1000E+03 0.1012E+01
  Species H : On-site basis accuracy parameter (for Gram-Schmidt orthonormalisation) not specified.
  Using default value basis_acc =  0.1000000E-03.
  Species H                   : Using default innermost maximum threshold i_radial=  2 for radial functions.
  Species H                   : Default cutoff onset for free atom density etc. : 0.40000000E+01 AA.
  Species H                   : Basic radial grid will be enhanced according to radial_multiplier =   2, to contain    49 grid points.
 
  Reading configuration options for species C                   .
  | Found nuclear charge :   6.0000
  | Found atomic mass :    12.0107000000000      amu
  | Found l_max for Hartree potential  :   6
  | Found cutoff potl. onset [A], width [A], scale factor :    4.00000    2.00000    1.00000
  | Threshold for basis-dependent cutoff potential is   0.100000E-03
  | Found data for basic radial integration grid :    34 points, outermost radius =    7.000 A
  | Found multiplier for basic radial grid :   2
  | Found angular grid specification: user-specified.
  | Specified grid contains     6 separate shells.
  | Check grid settings after all constraints further below.
  | Found free-atom valence shell :  2 s   2.000
  | Found free-atom valence shell :  2 p   2.000
  | No ionic wave fns used. Skipping ion_occ.
  | No ionic wave fns used. Skipping ion_occ.
  | Found hydrogenic basis function :  2 p   1.700
  | Found hydrogenic basis function :  3 d   6.000
  | Found hydrogenic basis function :  2 s   4.900
  | Found hydrogenic basis function :  4 f   9.800
  | Found hydrogenic basis function :  3 p   5.200
  | Found hydrogenic basis function :  3 s   4.300
  | Found hydrogenic basis function :  5 g  14.400
  | Found hydrogenic basis function :  3 d   6.200
  Species C                   : Missing cutoff potential type.
  Defaulting to exp(1/x)/(1-x)^2 type cutoff potential.
  Species C : No 'logarithmic' tag. Using default grid for free atom:
  | Default logarithmic grid data [bohr] : 0.1000E-03 0.1000E+03 0.1012E+01
  Species C : On-site basis accuracy parameter (for Gram-Schmidt orthonormalisation) not specified.
  Using default value basis_acc =  0.1000000E-03.
  Species C                   : Using default innermost maximum threshold i_radial=  2 for radial functions.
  Species C                   : Default cutoff onset for free atom density etc. : 0.40000000E+01 AA.
  Species C                   : Basic radial grid will be enhanced according to radial_multiplier =   2, to contain    69 grid points.
 
  Reading configuration options for species N                   .
  | Found nuclear charge :   7.0000
  | Found atomic mass :    14.0067000000000      amu
  | Found l_max for Hartree potential  :   6
  | Found cutoff potl. onset [A], width [A], scale factor :    4.00000    2.00000    1.00000
  | Threshold for basis-dependent cutoff potential is   0.100000E-03
  | Found data for basic radial integration grid :    35 points, outermost radius =    7.000 A
  | Found multiplier for basic radial grid :   2
  | Found angular grid specification: user-specified.
  | Specified grid contains     6 separate shells.
  | Check grid settings after all constraints further below.
  | Found free-atom valence shell :  2 s   2.000
  | Found free-atom valence shell :  2 p   3.000
  | No ionic wave fns used. Skipping ion_occ.
  | No ionic wave fns used. Skipping ion_occ.
  | Found hydrogenic basis function :  2 p   1.800
  | Found hydrogenic basis function :  3 d   6.800
  | Found hydrogenic basis function :  3 s   5.800
  | Found hydrogenic basis function :  4 f  10.800
  | Found hydrogenic basis function :  3 p   5.800
  | Found hydrogenic basis function :  1 s   0.800
  | Found hydrogenic basis function :  5 g  16.000
  | Found hydrogenic basis function :  3 d   4.900
  Species N                   : Missing cutoff potential type.
  Defaulting to exp(1/x)/(1-x)^2 type cutoff potential.
  Species N : No 'logarithmic' tag. Using default grid for free atom:
  | Default logarithmic grid data [bohr] : 0.1000E-03 0.1000E+03 0.1012E+01
  Species N : On-site basis accuracy parameter (for Gram-Schmidt orthonormalisation) not specified.
  Using default value basis_acc =  0.1000000E-03.
  Species N                   : Using default innermost maximum threshold i_radial=  2 for radial functions.
  Species N                   : Default cutoff onset for free atom density etc. : 0.40000000E+01 AA.
  Species N                   : Basic radial grid will be enhanced according to radial_multiplier =   2, to contain    71 grid points.
 
  Reading configuration options for species O                   .
  | Found nuclear charge :   8.0000
  | Found atomic mass :    15.9994000000000      amu
  | Found l_max for Hartree potential  :   6
  | Found cutoff potl. onset [A], width [A], scale factor :    4.00000    2.00000    1.00000
  | Threshold for basis-dependent cutoff potential is   0.100000E-03
  | Found data for basic radial integration grid :    36 points, outermost radius =    7.000 A
  | Found multiplier for basic radial grid :   2
  | Found angular grid specification: user-specified.
  | Specified grid contains     6 separate shells.
  | Check grid settings after all constraints further below.
  | Found free-atom valence shell :  2 s   2.000
  | Found free-atom valence shell :  2 p   4.000
  | No ionic wave fns used. Skipping ion_occ.
  | No ionic wave fns used. Skipping ion_occ.
  | Found hydrogenic basis function :  2 p   1.800
  | Found hydrogenic basis function :  3 d   7.600
  | Found hydrogenic basis function :  3 s   6.400
  | Found hydrogenic basis function :  4 f  11.600
  | Found hydrogenic basis function :  3 p   6.200
  | Found hydrogenic basis function :  3 d   5.600
  | Found hydrogenic basis function :  5 g  17.600
  | Found hydrogenic basis function :  1 s   0.750
  Species O                   : Missing cutoff potential type.
  Defaulting to exp(1/x)/(1-x)^2 type cutoff potential.
  Species O : No 'logarithmic' tag. Using default grid for free atom:
  | Default logarithmic grid data [bohr] : 0.1000E-03 0.1000E+03 0.1012E+01
  Species O : On-site basis accuracy parameter (for Gram-Schmidt orthonormalisation) not specified.
  Using default value basis_acc =  0.1000000E-03.
  Species O                   : Using default innermost maximum threshold i_radial=  2 for radial functions.
  Species O                   : Default cutoff onset for free atom density etc. : 0.40000000E+01 AA.
  Species O                   : Basic radial grid will be enhanced according to radial_multiplier =   2, to contain    73 grid points.
 
  Finished reading input file 'control.in'. Consistency checks are next.
 
  Target number of points in a grid batch is not set. Defaulting to  100
  Method for grid partitioning is not set. Defaulting to parallel hash+maxmin partitioning.
  Batch size limit is not set. Defaulting to    200
  By default, will store active basis functions for each batch.
  If in need of memory, prune_basis_once .false. can be used to disable this option.
  communication_type for Hartree potential was not specified.
  Defaulting to calc_hartree .
  Pulay mixer: Number of initial linear mixing iterations not set.
  Defaulting to    0 iterations.
  Work space size for distributed Hartree potential not set.
  Defaulting to   0.200000E+03 MB.
  Algorithm-dependent basis array size parameters:
  | n_max_pulay                         :       10
  Geometry relaxation not requested: no relaxation will be performed.
  Handling of forces: Unphysical translation and rotation will be removed from forces.
  No accuracy limit for integral partition fn. given. Defaulting to  0.1000E-14.
  No threshold value for u(r) in integrations given. Defaulting to  0.1000E-05.
  No accuracy for occupation numbers given. Defaulting to  0.1000E-07.
  No threshold value for occupation numbers given. Defaulting to  0.0000E+00.
  No accuracy for fermi level given. Defaulting to  0.1000E-19.
  Maximum # of iterations to find E_F not set. Defaulting to  200.
  Preferred method for the eigenvalue solver ('KS_method') not specified in 'control.in'.
  Calling blacs routine to test compilation state
  Since scalapack support is enabled, defaulting to 'elpa'.
  Preferred method for the MBD eigenvalue solver ('mbd_eigensolver') not specified in 'control.in'.
  Calling blacs routine to test compilation state
  Since scalapack support is enabled, defaulting to 'scaLAPACK'.
  Will not use alltoall communication since running on < 1024 CPUs.
  Threshold for basis singularities not set.
  Default threshold for basis singularities:  0.1000E-04
  partition_type (choice of integration weights) for integrals was not specified.
  | Using a version of the partition function of Stratmann and coworkers ('stratmann_smoother').
  | At each grid point, the set of atoms used to build the partition table is smoothly restricted to
  | only those atoms whose free-atom density would be non-zero at that grid point.
  Partitioning for Hartree potential was not defined. Using partition_type for integrals.
  | Adjusted default value of keyword multip_moments_threshold to:       0.10000000E-11
  | This value may affect high angular momentum components of the Hartree potential in periodic systems.
  No q(lm)/r^(l+1) cutoff set for long-range Hartree potential.
  | Using default value of  0.100000E-09 .
  | Verify using the multipole_threshold keyword.
  Defaulting to new monopole extrapolation.
  Density update method: automatic selection selected.
------------------------------------------------------------


------------------------------------------------------------
          Reading geometry description geometry.in.
------------------------------------------------------------
 * Warning! You did not set the 'relativistic' flag in input file 'control.in'.
 * Since you are not attempting to treat any elements beyond Ca(Z=20), FHI-aims
 * will default to 'relativistic none'.
 * You must ensure that this is really what you want!!
 * For example, DO NOT compute total-energy differences between results from
 * different settings of the 'relativistic' flag.
  Input structure read successfully.
  The structure contains       32 atoms,  and a total of        116.000 electrons.

  Input geometry:
  | No unit cell requested.
  | Atomic structure:
  |       Atom                x [A]            y [A]            z [A]
  |    1: Species C             -0.113448         0.985256         0.727180
  |    2: Species C             -0.168769         0.205628         2.028397
  |    3: Species O              0.808963         0.121236         2.768001
  |    4: Species H             -0.507079         2.000385         0.884494
  |    5: Species H             -0.678937         0.517852        -0.089421
  |    6: Species H              0.936856         1.073293         0.435164
  |    7: Species N             -1.348841        -0.423620         2.356924
  |    8: Species C             -2.681647        -0.180517         1.807320
  |    9: Species C             -3.270711         1.073966         2.503192
  |   10: Species O             -3.564759         1.047583         3.696455
  |   11: Species H             -1.329989        -0.817674         3.296474
  |   12: Species H             -2.575743        -0.004421         0.727359
  |   13: Species C             -3.579877        -1.392046         2.036110
  |   14: Species H             -4.567898        -1.230285         1.586359
  |   15: Species H             -3.726254        -1.556473         3.111704
  |   16: Species H             -3.131428        -2.288838         1.591556
  |   17: Species N             -3.340214         2.170773         1.696522
  |   18: Species C             -3.682877         3.566160         2.009339
  |   19: Species C             -2.441747         4.499703         1.966918
  |   20: Species O             -2.454415         5.453604         1.186740
  |   21: Species H             -3.033896         2.029870         0.739949
  |   22: Species H             -4.254390         3.925434         1.142692
  |   23: Species C             -4.555577         3.786118         3.247945
  |   24: Species H             -4.053920         3.535278         4.185753
  |   25: Species H             -5.468722         3.182099         3.185936
  |   26: Species H             -4.841751         4.845738         3.269027
  |   27: Species N             -1.358417         4.251690         2.756755
  |   28: Species C             -1.154034         3.302418         3.842239
  |   29: Species H             -0.628203         4.945062         2.613274
  |   30: Species H             -0.984680         3.836378         4.788818
  |   31: Species H             -0.281564         2.663871         3.644696
  |   32: Species H             -2.024095         2.655129         3.976627
  |

  | The smallest distance between any two atoms is         1.01425705 AA.
  |
  | The first atom of this pair is atom number                     17 .
  | The second atom of this pair is atom number                    21 .

  Number of empty states per atom not set in control.in - providing a guess from actual geometry.
  | Total number of empty states used during s.c.f. cycle:       71
  If you use a very high smearing, use empty_states (per atom!) in control.in to increase this value.

  Structure-dependent array size parameters: 
  | Maximum number of distinct radial functions  :       40
  | Maximum number of basis functions            :      840
  | Number of Kohn-Sham states (occupied + empty):      129
------------------------------------------------------------

------------------------------------------------------------
          Preparing all fixed parts of the calculation.
------------------------------------------------------------
  Determining machine precision:
    2.225073858507201E-308
  Setting up grids for atomic and cluster calculations.

  Creating wave function, potential, and density for free atoms.

  Species: H

  List of occupied orbitals and eigenvalues:
    n    l              occ      energy [Ha]    energy [eV]
    1    0           1.0000        -0.238382        -6.4867


  Species: C

  List of occupied orbitals and eigenvalues:
    n    l              occ      energy [Ha]    energy [eV]
    1    0           2.0000       -10.041232      -273.2358
    2    0           2.0000        -0.504327       -13.7234
    2    1           2.0000        -0.193750        -5.2722


  Species: N

  List of occupied orbitals and eigenvalues:
    n    l              occ      energy [Ha]    energy [eV]
    1    0           2.0000       -14.129007      -384.4699
    2    0           2.0000        -0.681802       -18.5528
    2    1           3.0000        -0.260543        -7.0897


  Species: O

  List of occupied orbitals and eigenvalues:
    n    l              occ      energy [Ha]    energy [eV]
    1    0           2.0000       -18.898576      -514.2564
    2    0           2.0000        -0.878795       -23.9132
    2    1           4.0000        -0.332075        -9.0362

  Creating fixed part of basis set: Ionic, confined, hydrogenic.
 
  H                    hydrogenic:
 
  List of hydrogenic basis orbitals: 
    n    l      effective z      eigenvalue [eV]  inner max. [A]     outer max. [A]     outer radius [A]   
    2    0         2.100000       -14.9965           0.193243           1.317208           5.373006
    2    1         3.500000       -41.6672           0.602369           0.602369           4.056063
    1    0         0.850000        -9.8292           0.624871           0.624871           5.373006
    2    1         3.700000       -46.5653           0.573622           0.573622           3.910002
    2    0         1.200000        -4.5995           0.334980           2.228188           5.505995
    3    2         7.000000       -74.0753           0.680699           0.680699           3.769201
 
 
  C                    hydrogenic:
 
  List of hydrogenic basis orbitals: 
    n    l      effective z      eigenvalue [eV]  inner max. [A]     outer max. [A]     outer radius [A]   
    2    1         1.700000        -9.8152           1.245706           1.245706           5.401630
    3    2         6.000000       -54.4226           0.792453           0.792453           4.178599
    2    0         4.900000       -81.6681           0.082559           0.562749           3.353238
    4    3         9.800000       -81.6681           0.863254           0.863254           4.028125
    3    1         5.200000       -40.8774           0.305389           1.215618           4.898362
    3    0         4.300000       -27.9508           0.091041           1.610311           5.401630
    5    4        14.400000      -112.8510           0.917666           0.917666           3.883070
    3    2         6.200000       -58.1113           0.763917           0.763917           4.077671
 
 
  N                    hydrogenic:
 
  List of hydrogenic basis orbitals: 
    n    l      effective z      eigenvalue [eV]  inner max. [A]     outer max. [A]     outer radius [A]   
    2    1         1.800000       -11.0118           1.177451           1.177451           5.427479
    3    2         6.800000       -69.9029           0.704619           0.704619           3.854246
    3    0         5.800000       -50.8549           0.067388           1.191934           4.629968
    4    3        10.800000       -99.1854           0.786571           0.786571           3.761152
    3    1         5.800000       -50.8549           0.274880           1.094176           4.518138
    1    0         0.800000        -8.7059           0.662839           0.662839           5.361532
    5    4        16.000000      -139.3222           0.825990           0.825990           3.625711
    3    2         4.900000       -36.2967           0.968267           0.968267           4.862000
 
 
  O                    hydrogenic:
 
  List of hydrogenic basis orbitals: 
    n    l      effective z      eigenvalue [eV]  inner max. [A]     outer max. [A]     outer radius [A]   
    2    1         1.800000       -11.0118           1.178562           1.178562           5.432602
    3    2         7.600000       -87.3182           0.624125           0.624125           3.541477
    3    0         6.400000       -61.9209           0.061167           1.081902           4.306578
    4    3        11.600000      -114.4238           0.731631           0.731631           3.585037
    3    1         6.200000       -58.1113           0.255680           1.030270           4.306578
    3    2         5.600000       -47.4081           0.847233           0.847233           4.413171
    5    4        17.600000      -168.5799           0.749740           0.749740           3.372465
    1    0         0.750000        -7.6499           0.705284           0.705284           5.366593
 

  Adding cutoff potential to free-atom effective potential.
  Creating atomic-like basis functions for current effective potential.

  Species H                   :

  List of atomic basis orbitals and eigenvalues:
    n    l      energy [Ha]    energy [eV]    outer radius [A]
    1    0        -0.238382        -6.4867       5.373006


  Species C                   :

  List of atomic basis orbitals and eigenvalues:
    n    l      energy [Ha]    energy [eV]    outer radius [A]
    1    0       -10.041232      -273.2358       1.934409
    2    0        -0.504327       -13.7234       5.271162
    2    1        -0.193750        -5.2722       5.401630


  Species N                   :

  List of atomic basis orbitals and eigenvalues:
    n    l      energy [Ha]    energy [eV]    outer radius [A]
    1    0       -14.129007      -384.4699       1.637919
    2    0        -0.681802       -18.5528       5.168461
    2    1        -0.260543        -7.0897       5.361532


  Species O                   :

  List of atomic basis orbitals and eigenvalues:
    n    l      energy [Ha]    energy [eV]    outer radius [A]
    1    0       -18.898576      -514.2564       1.415765
    2    0        -0.878795       -23.9132       5.048385
    2    1        -0.332075        -9.0362       5.301386

  Assembling full basis from fixed parts.
  | Species H :   atomic orbital   1 s accepted.
  | Species H :    hydro orbital   2 s accepted.
  | Species H :    hydro orbital   1 s accepted.
  | Species H :    hydro orbital   2 s accepted.
  | Species H :    hydro orbital   2 p accepted.
  | Species H :    hydro orbital   2 p accepted.
  | Species H :    hydro orbital   3 d accepted.
  | Species C :   atomic orbital   1 s accepted.
  | Species C :    hydro orbital   2 s accepted.
  | Species C :   atomic orbital   2 s accepted.
  | Species C :    hydro orbital   3 s accepted.
  | Species C :    hydro orbital   3 p accepted.
  | Species C :   atomic orbital   2 p accepted.
  | Species C :    hydro orbital   2 p accepted.
  | Species C :    hydro orbital   3 d accepted.
  | Species C :    hydro orbital   3 d accepted.
  | Species C :    hydro orbital   4 f accepted.
  | Species C :    hydro orbital   5 g accepted.
  | Species N :   atomic orbital   1 s accepted.
  | Species N :    hydro orbital   3 s accepted.
  | Species N :   atomic orbital   2 s accepted.
  | Species N :    hydro orbital   1 s accepted.
  | Species N :    hydro orbital   3 p accepted.
  | Species N :   atomic orbital   2 p accepted.
  | Species N :    hydro orbital   2 p accepted.
  | Species N :    hydro orbital   3 d accepted.
  | Species N :    hydro orbital   3 d accepted.
  | Species N :    hydro orbital   4 f accepted.
  | Species N :    hydro orbital   5 g accepted.
  | Species O :   atomic orbital   1 s accepted.
  | Species O :    hydro orbital   3 s accepted.
  | Species O :   atomic orbital   2 s accepted.
  | Species O :    hydro orbital   1 s accepted.
  | Species O :    hydro orbital   3 p accepted.
  | Species O :   atomic orbital   2 p accepted.
  | Species O :    hydro orbital   2 p accepted.
  | Species O :    hydro orbital   3 d accepted.
  | Species O :    hydro orbital   3 d accepted.
  | Species O :    hydro orbital   4 f accepted.
  | Species O :    hydro orbital   5 g accepted.
 
  Basis size parameters after reduction:
  | Total number of radial functions:       40
  | Total number of basis functions :      840
 
  Testing on-site integration grid accuracy.
  |  Species  Function  <phi|h_atom|phi> (log., in eV)  <phi|h_atom|phi> (rad., in eV)
           1        1                 -6.4869821809                 -6.4870742227
           1        2                 13.5044133542                 13.5041049177
           1        3                 32.7854418792                 32.7779770519
           1        4                 33.7995553101                 33.7152624900 ***
           1        5                 28.8558651799                 28.8558652046
           1        6                 59.6361831893                 59.6362535845
           1        7                 60.2733718049                 60.2733715484
           2        8               -273.2358277112               -273.2358261765
           2        9                -10.7624923123                -10.7625144012
           2       10                 17.4634079027                 17.4634252127
           2       11                 53.0363661832                 53.0366180446
           2       12                 15.0981351967                 15.0981317714
           2       13                  3.8522181899                  3.8522770949
           2       14                 12.1181835661                 12.1206868578
           2       15                 29.4320778347                 29.4320780959
           2       16                 54.8753777694                 54.8752901936
           2       17                 59.3533975461                 59.3533974833
           2       18                 93.4537491195                 93.4537492066
           3       19               -384.4698526889               -384.4698499465
           3       20                 12.5691022037                 12.5690910168
           3       21                -15.7489097511                -15.7489165588
           3       22                 27.0978334940                 27.0985589490
           3       23                 18.5949116966                 18.5949125562
           3       24                  1.2212828291                  1.2212855301
           3       25                 13.4428926797                 13.4434051125
           3       26                 35.9380614500                 35.9380613666
           3       27                 39.9231532098                 39.9231654735
           3       28                 72.9957335806                 72.9957336833
           3       29                116.4231321147                116.4231321431
           4       30               -514.2564144315               -514.2564099626
           4       31                 15.1726678541                 15.1726530877
           4       32                -21.5447785304                -21.5447874973
           4       33                 14.4944558459                 14.4944698284
           4       34                 20.8882174564                 20.8882178906
           4       35                 -2.4850315908                 -2.4850322289
           4       36                 13.8600193195                 13.8599826966
           4       37                 45.8243383616                 45.8243383675
           4       38                 52.1840606465                 52.1840622440
           4       39                 85.4074185510                 85.4074185819
           4       40                142.0983717302                142.0983717339
 * Note: Onsite integrals marked "***" above are less accurate than
 * onsite_accuracy_threshold =    0.03000 eV. Usually, this is harmless.
 * When in doubt, tighten the "radial" and/or "radial_multiplier" flags to check.

  Preparing densities etc. for the partition functions (integrals / Hartree potential).

  Preparations completed.
  max(cpu_time)          :      0.236 s.
  Wall clock time (cpu1) :      0.236 s.
------------------------------------------------------------

------------------------------------------------------------
          Begin self-consistency loop: Initialization.

          Date     :  20170309, Time     :  184741.777
------------------------------------------------------------

  Initializing index lists of integration centers etc. from given atomic structure:
  | Number of centers in hartree potential         :        32
  | Number of centers in hartree multipole         :        32
  | Number of centers in electron density summation:        32
  | Number of centers in basis integrals           :        32
  | Number of centers in integrals                 :        32
  | Number of centers in hamiltonian               :        32
  Using modified Scalapack Eigenvalue solver (ELPA)
  * Using 32 tasks for Scalapack Eigenvalue solver.
  Detailed listing of tasks and assigned k-points:
  (for non-periodic systems, the "k-point" denotes an internal label only)
   Task     0 k-point     1 on eos026
   Task     1 k-point     1 on eos026
   Task     2 k-point     1 on eos026
   Task     3 k-point     1 on eos026
   Task     4 k-point     1 on eos026
   Task     5 k-point     1 on eos026
   Task     6 k-point     1 on eos026
   Task     7 k-point     1 on eos026
   Task     8 k-point     1 on eos026
   Task     9 k-point     1 on eos026
   Task    10 k-point     1 on eos026
   Task    11 k-point     1 on eos026
   Task    12 k-point     1 on eos026
   Task    13 k-point     1 on eos026
   Task    14 k-point     1 on eos026
   Task    15 k-point     1 on eos026
   Task    16 k-point     1 on eos026
   Task    17 k-point     1 on eos026
   Task    18 k-point     1 on eos026
   Task    19 k-point     1 on eos026
   Task    20 k-point     1 on eos026
   Task    21 k-point     1 on eos026
   Task    22 k-point     1 on eos026
   Task    23 k-point     1 on eos026
   Task    24 k-point     1 on eos026
   Task    25 k-point     1 on eos026
   Task    26 k-point     1 on eos026
   Task    27 k-point     1 on eos026
   Task    28 k-point     1 on eos026
   Task    29 k-point     1 on eos026
   Task    30 k-point     1 on eos026
   Task    31 k-point     1 on eos026
  Tasks:    32 split into      8 X      4 BLACS grid
  Calculating blocksize based on n_basis =          840 max_nprow =            8 max_npcol =            4
  Scalapack blocksize set to:           16
  Required Scalapack workspace - INTEGER:            1 REAL:             1
  Partitioning the integration grid into batches with parallel hashing+maxmin method.
  | Number of batches:     4929
  | Maximal batch size:     200
  | Minimal batch size:      60
  | Average batch size:     107.066
  | Standard deviation of batch sizes:      35.348

  Integration load balanced across    32 MPI tasks.
  Work distribution over tasks is as follows:
  Task     0 has      16546 integration points.
  Task     1 has      16554 integration points.
  Task     2 has      16472 integration points.
  Task     3 has      16454 integration points.
  Task     4 has      16551 integration points.
  Task     5 has      16459 integration points.
  Task     6 has      16451 integration points.
  Task     7 has      16455 integration points.
  Task     8 has      16540 integration points.
  Task     9 has      16547 integration points.
  Task    10 has      16463 integration points.
  Task    11 has      16464 integration points.
  Task    12 has      16500 integration points.
  Task    13 has      16544 integration points.
  Task    14 has      16542 integration points.
  Task    15 has      16459 integration points.
  Task    16 has      16507 integration points.
  Task    17 has      16478 integration points.
  Task    18 has      16519 integration points.
  Task    19 has      16465 integration points.
  Task    20 has      16454 integration points.
  Task    21 has      16531 integration points.
  Task    22 has      16455 integration points.
  Task    23 has      16467 integration points.
  Task    24 has      16467 integration points.
  Task    25 has      16457 integration points.
  Task    26 has      16456 integration points.
  Task    27 has      16463 integration points.
  Task    28 has      16452 integration points.
  Task    29 has      16549 integration points.
  Task    30 has      16466 integration points.
  Task    31 has      16541 integration points.
  Initializing partition tables, free-atom densities, potentials, etc. across the integration grid (initialize_grid_storage).
  | initialize_grid_storage: Actual outermost partition radius vs. multipole_radius_free
  | (-- VB: in principle, multipole_radius_free should be larger, hence this output)
  | Species        1: Confinement radius =              6.000000000000000 AA, multipole_radius_free =              6.071692442739658 AA.
  | Species        1: outer_partition_radius set to              6.071692442739658 AA .
  | Species        2: Confinement radius =              6.000000000000000 AA, multipole_radius_free =              6.029870734432609 AA.
  | Species        2: outer_partition_radius set to              6.029870734432609 AA .
  | Species        3: Confinement radius =              6.000000000000000 AA, multipole_radius_free =              6.058726835495003 AA.
  | Species        3: outer_partition_radius set to              6.058726835495003 AA .
  | Species        4: Confinement radius =              6.000000000000000 AA, multipole_radius_free =              6.064445521808699 AA.
  | Species        4: outer_partition_radius set to              6.064445521808699 AA .
  | Original list of interatomic distances with          32 x         32 entries is created.
  | Net number of integration points:   527728
  | of which are non-zero points    :   411479
  Obtaining max. number of non-zero basis functions in each batch (get_n_compute_maxes).
  | Maximal number of non-zero basis functions:      809 in task     0
  | Maximal number of non-zero basis functions:      802 in task     1
  | Maximal number of non-zero basis functions:      805 in task     2
  | Maximal number of non-zero basis functions:      818 in task     3
  | Maximal number of non-zero basis functions:      815 in task     4
  | Maximal number of non-zero basis functions:      812 in task     5
  | Maximal number of non-zero basis functions:      821 in task     6
  | Maximal number of non-zero basis functions:      791 in task     7
  | Maximal number of non-zero basis functions:      822 in task     8
  | Maximal number of non-zero basis functions:      823 in task     9
  | Maximal number of non-zero basis functions:      810 in task    10
  | Maximal number of non-zero basis functions:      815 in task    11
  | Maximal number of non-zero basis functions:      799 in task    12
  | Maximal number of non-zero basis functions:      803 in task    13
  | Maximal number of non-zero basis functions:      790 in task    14
  | Maximal number of non-zero basis functions:      798 in task    15
  | Maximal number of non-zero basis functions:      820 in task    16
  | Maximal number of non-zero basis functions:      803 in task    17
  | Maximal number of non-zero basis functions:      792 in task    18
  | Maximal number of non-zero basis functions:      821 in task    19
  | Maximal number of non-zero basis functions:      808 in task    20
  | Maximal number of non-zero basis functions:      822 in task    21
  | Maximal number of non-zero basis functions:      801 in task    22
  | Maximal number of non-zero basis functions:      823 in task    23
  | Maximal number of non-zero basis functions:      804 in task    24
  | Maximal number of non-zero basis functions:      790 in task    25
  | Maximal number of non-zero basis functions:      781 in task    26
  | Maximal number of non-zero basis functions:      803 in task    27
  | Maximal number of non-zero basis functions:      804 in task    28
  | Maximal number of non-zero basis functions:      805 in task    29
  | Maximal number of non-zero basis functions:      800 in task    30
  | Maximal number of non-zero basis functions:      813 in task    31
  Selecting the method for density update.
  Loop over occupied states selected for charge density update.
  Integrating Hamiltonian matrix: batch-based integration.
  Time summed over all CPUs for integration: real work       24.011 s, elapsed       25.133 s
  Integrating overlap matrix.
  Time summed over all CPUs for integration: real work       14.704 s, elapsed       15.270 s
  Deallocating overlap matrix.

  Updating Kohn-Sham eigenvalues, eigenvectors, occupation numbers, and Fermi level.
  Solving generalized eigenproblem
  Solving real symmetric generalised eigenvalue problem by standard ScaLAPACK.
  Transforming overlap matrix with ScaLAPACK and checking for singularities.
  : Overlap matrix is nonsingular, using Cholesky decomposition
  | Lowest eigenvalue:  0.899079E-04
  Factoring overlap matrix with Cholesky decomposition
  Using Cholesky factor for transformation
  Using 1-stage real ELPA solver
  Determining occupation numbers for Kohn-Sham eigenstates.
  | Chemical potential (Fermi level) in eV                 : -.94759473E+01
  | Error in electron count due to remaining E_F inaccuracy: 0.00000000E+00
  | Maximum occupation number of highest empty state:  0.00E+00

  Writing Kohn-Sham eigenvalues.

  State    Occupation    Eigenvalue [Ha]    Eigenvalue [eV]
      1       2.00000         -18.974753         -516.32929
      2       2.00000         -18.974005         -516.30894
      3       2.00000         -18.973206         -516.28721
      4       2.00000         -14.254409         -387.88220
      5       2.00000         -14.253935         -387.86930
      6       2.00000         -14.251892         -387.81371
      7       2.00000         -10.171519         -276.78112
      8       2.00000         -10.171480         -276.78006
      9       2.00000         -10.170924         -276.76493
     10       2.00000         -10.166537         -276.64555
     11       2.00000         -10.148718         -276.16067
     12       2.00000         -10.146959         -276.11279
     13       2.00000         -10.135400         -275.79825
     14       2.00000         -10.134082         -275.76240
     15       2.00000         -10.133217         -275.73886
     16       2.00000          -1.133043          -30.83167
     17       2.00000          -1.130519          -30.76298
     18       2.00000          -1.128596          -30.71065
     19       2.00000          -1.017894          -27.69831
     20       2.00000          -1.011017          -27.51118
     21       2.00000          -1.004339          -27.32945
     22       2.00000          -0.888265          -24.17091
     23       2.00000          -0.873813          -23.77767
     24       2.00000          -0.845989          -23.02054
     25       2.00000          -0.817951          -22.25757
     26       2.00000          -0.785866          -21.38450
     27       2.00000          -0.753041          -20.49129
     28       2.00000          -0.700905          -19.07258
     29       2.00000          -0.684334          -18.62167
     30       2.00000          -0.666956          -18.14880
     31       2.00000          -0.648423          -17.64450
     32       2.00000          -0.619510          -16.85772
     33       2.00000          -0.612760          -16.67405
     34       2.00000          -0.608065          -16.54630
     35       2.00000          -0.593125          -16.13976
     36       2.00000          -0.578750          -15.74859
     37       2.00000          -0.567141          -15.43269
     38       2.00000          -0.564219          -15.35319
     39       2.00000          -0.556786          -15.15091
     40       2.00000          -0.550329          -14.97521
     41       2.00000          -0.543250          -14.78259
     42       2.00000          -0.542026          -14.74929
     43       2.00000          -0.529792          -14.41638
     44       2.00000          -0.525304          -14.29426
     45       2.00000          -0.524423          -14.27026
     46       2.00000          -0.522591          -14.22044
     47       2.00000          -0.513640          -13.97685
     48       2.00000          -0.501157          -13.63718
     49       2.00000          -0.492338          -13.39721
     50       2.00000          -0.488174          -13.28388
     51       2.00000          -0.480599          -13.07778
     52       2.00000          -0.475437          -12.93729
     53       2.00000          -0.415535          -11.30728
     54       2.00000          -0.411696          -11.20282
     55       2.00000          -0.401188          -10.91687
     56       2.00000          -0.384589          -10.46521
     57       2.00000          -0.377885          -10.28277
     58       2.00000          -0.376106          -10.23436
     59       0.00000          -0.174868           -4.75839
     60       0.00000          -0.159038           -4.32765
     61       0.00000          -0.149886           -4.07861
     62       0.00000          -0.086889           -2.36437
     63       0.00000          -0.062150           -1.69118
     64       0.00000          -0.059414           -1.61675
     65       0.00000          -0.051726           -1.40753
     66       0.00000          -0.042293           -1.15086
     67       0.00000          -0.041439           -1.12761
     68       0.00000          -0.032556           -0.88589
     69       0.00000          -0.025323           -0.68906
     70       0.00000          -0.023457           -0.63828
     71       0.00000          -0.018115           -0.49294
     72       0.00000          -0.015470           -0.42097
     73       0.00000          -0.012970           -0.35294
     74       0.00000          -0.011535           -0.31387
     75       0.00000          -0.008870           -0.24136
     76       0.00000          -0.004529           -0.12325
     77       0.00000          -0.001053           -0.02865
     78       0.00000          -0.000103           -0.00281
     79       0.00000           0.008167            0.22223
     80       0.00000           0.010624            0.28910
     81       0.00000           0.022409            0.60978
     82       0.00000           0.024335            0.66220
     83       0.00000           0.036544            0.99441
     84       0.00000           0.037139            1.01060
     85       0.00000           0.044315            1.20588
     86       0.00000           0.053504            1.45592
     87       0.00000           0.057440            1.56303
     88       0.00000           0.061995            1.68696
     89       0.00000           0.070667            1.92295
     90       0.00000           0.072871            1.98291
     91       0.00000           0.076636            2.08536
     92       0.00000           0.079696            2.16864
     93       0.00000           0.083657            2.27642
     94       0.00000           0.097610            2.65610
     95       0.00000           0.100352            2.73070
     96       0.00000           0.103086            2.80511
     97       0.00000           0.106559            2.89961
     98       0.00000           0.116731            3.17641
     99       0.00000           0.122180            3.32469
    100       0.00000           0.123572            3.36257
    101       0.00000           0.135297            3.68162
    102       0.00000           0.138413            3.76642
    103       0.00000           0.140811            3.83167
    104       0.00000           0.144779            3.93964
    105       0.00000           0.146799            3.99459
    106       0.00000           0.153827            4.18585
    107       0.00000           0.160714            4.37325
    108       0.00000           0.164206            4.46827
    109       0.00000           0.170608            4.64247
    110       0.00000           0.173686            4.72624
    111       0.00000           0.175963            4.78820
    112       0.00000           0.182250            4.95927
    113       0.00000           0.187858            5.11188
    114       0.00000           0.196011            5.33374
    115       0.00000           0.197462            5.37321
    116       0.00000           0.202159            5.50101
    117       0.00000           0.207453            5.64507
    118       0.00000           0.210191            5.71958
    119       0.00000           0.217945            5.93058
    120       0.00000           0.220967            6.01282
    121       0.00000           0.226799            6.17151
    122       0.00000           0.233766            6.36110
    123       0.00000           0.234408            6.37858
    124       0.00000           0.239431            6.51525
    125       0.00000           0.249703            6.79476
    126       0.00000           0.253949            6.91029
    127       0.00000           0.260060            7.07660
    128       0.00000           0.262129            7.13289
    129       0.00000           0.272191            7.40670

  Highest occupied state (VBM) at    -10.23436013 eV
  | Occupation number:      2.00000000

  Lowest unoccupied state (CBM) at    -4.75838896 eV
  | Occupation number:      0.00000000

  Overall HOMO-LUMO gap:      5.47597117 eV.
  Calculating total energy contributions from superposition of free atom densities.

  Total energy components:
  | Sum of eigenvalues            :        -437.81680418 Ha      -11913.60139909 eV
  | XC energy correction          :         -98.81746072 Ha       -2688.95991890 eV
  | XC potential correction       :         127.01849735 Ha        3456.34916992 eV
  | Free-atom electrostatic energy:        -333.65821550 Ha       -9079.30199354 eV
  | Hartree energy correction     :           0.00000000 Ha           0.00000000 eV
  | vdW energy correction         :           0.00000000 Ha           0.00000000 eV
  | Entropy correction            :          -0.00000000 Ha          -0.00000000 eV
  | ---------------------------
  | Total energy                  :        -743.27398305 Ha      -20225.51414161 eV
  | Total energy, T -> 0          :        -743.27398305 Ha      -20225.51414161 eV  <-- do not rely on this value for anything but (periodic) metals
  | Electronic free energy        :        -743.27398305 Ha      -20225.51414161 eV

  Derived energy quantities:
  | Kinetic energy                :         735.15428185 Ha       20004.56583035 eV
  | Electrostatic energy          :       -1379.61080419 Ha      -37541.12005307 eV
  | Energy correction for multipole
  | error in Hartree potential    :           0.00000000 Ha           0.00000000 eV
  | Sum of eigenvalues per atom                           :        -372.30004372 eV
  | Total energy (T->0) per atom                          :        -632.04731693 eV  <-- do not rely on this value for anything but (periodic) metals
  | Electronic free energy per atom                       :        -632.04731693 eV
  Initialize hartree_potential_storage
  Max. number of atoms included in rho_multipole:           32

  End scf initialization - timings             :  max(cpu_time)    wall_clock(cpu1)
  | Time for scf. initialization               :        1.988 s           1.987 s
  | Boundary condition initialization          :        0.000 s           0.001 s
  | Integration                                :        1.288 s           1.284 s
  | Solution of K.-S. eqns.                    :        0.076 s           0.075 s
  | Grid partitioning                          :        0.244 s           0.240 s
  | Preloading free-atom quantities on grid    :        0.028 s           0.027 s
  | Free-atom superposition energy             :        0.044 s           0.042 s
  | Total energy evaluation                    :        0.000 s           0.001 s
------------------------------------------------------------

------------------------------------------------------------
          Begin self-consistency iteration #    1

  Date     :  20170309, Time     :  184743.765
------------------------------------------------------------
  Evaluating new KS density.
  Integration grid: deviation in total charge (<rho> - N_e) =   1.421085E-14
  Pulay mixing of updated and previous charge densities.

  Evaluating partitioned Hartree potential by multipole expansion.
  | Analytical far-field extrapolation by fixed multipoles:
  | Hartree multipole sum: apparent total charge =   0.947235E-04
  Summing up the Hartree potential.
  Time summed over all CPUs for potential: real work        9.629 s, elapsed        9.975 s
  | RMS charge density error from multipole expansion :   0.107995E-01

  Integrating Hamiltonian matrix: batch-based integration.
  Time summed over all CPUs for integration: real work       23.767 s, elapsed       24.890 s

  Updating Kohn-Sham eigenvalues, eigenvectors, occupation numbers, and Fermi level.
  Solving generalized eigenproblem
  Solving real symmetric generalised eigenvalue problem by standard ScaLAPACK.
  Using Cholesky factor for transformation
  Using 2-stage real ELPA solver
  K-Point:    1, Trafo times: 1-stage=     0.021 s, 2-stage=     0.019 s ==> Using 2-stage solver
  Determining occupation numbers for Kohn-Sham eigenstates.
  | Chemical potential (Fermi level) in eV                 : -.38841723E+01
  | Error in electron count due to remaining E_F inaccuracy: 0.00000000E+00
  | Maximum occupation number of highest empty state:  0.00E+00

  Writing Kohn-Sham eigenvalues.

  State    Occupation    Eigenvalue [Ha]    Eigenvalue [eV]
      1       2.00000         -18.627204         -506.87200
      2       2.00000         -18.615967         -506.56622
      3       2.00000         -18.612318         -506.46695
      4       2.00000         -14.019104         -381.47922
      5       2.00000         -13.989674         -380.67839
      6       2.00000         -13.987705         -380.62483
      7       2.00000         -10.065910         -273.90735
      8       2.00000         -10.057045         -273.66613
      9       2.00000         -10.056194         -273.64297
     10       2.00000          -9.975889         -271.45774
     11       2.00000          -9.970802         -271.31933
     12       2.00000          -9.887999         -269.06616
     13       2.00000          -9.856517         -268.20948
     14       2.00000          -9.841945         -267.81295
     15       2.00000          -9.834458         -267.60921
     16       2.00000          -0.974294          -26.51189
     17       2.00000          -0.962173          -26.18207
     18       2.00000          -0.957141          -26.04513
     19       2.00000          -0.884851          -24.07802
     20       2.00000          -0.866442          -23.57708
     21       2.00000          -0.856157          -23.29720
     22       2.00000          -0.749651          -20.39904
     23       2.00000          -0.723916          -19.69877
     24       2.00000          -0.702073          -19.10437
     25       2.00000          -0.670011          -18.23192
     26       2.00000          -0.644927          -17.54935
     27       2.00000          -0.617860          -16.81283
     28       2.00000          -0.580094          -15.78516
     29       2.00000          -0.561706          -15.28479
     30       2.00000          -0.546137          -14.86113
     31       2.00000          -0.530097          -14.42467
     32       2.00000          -0.487892          -13.27621
     33       2.00000          -0.478763          -13.02780
     34       2.00000          -0.464306          -12.63440
     35       2.00000          -0.450942          -12.27075
     36       2.00000          -0.441826          -12.02268
     37       2.00000          -0.437441          -11.90338
     38       2.00000          -0.425949          -11.59065
     39       2.00000          -0.410289          -11.16454
     40       2.00000          -0.400804          -10.90643
     41       2.00000          -0.394604          -10.73773
     42       2.00000          -0.392591          -10.68294
     43       2.00000          -0.388976          -10.58458
     44       2.00000          -0.382994          -10.42180
     45       2.00000          -0.375844          -10.22723
     46       2.00000          -0.369028          -10.04176
     47       2.00000          -0.361708           -9.84258
     48       2.00000          -0.360042           -9.79725
     49       2.00000          -0.357290           -9.72235
     50       2.00000          -0.347091           -9.44483
     51       2.00000          -0.340074           -9.25388
     52       2.00000          -0.338034           -9.19837
     53       2.00000          -0.258096           -7.02316
     54       2.00000          -0.243974           -6.63888
     55       2.00000          -0.229591           -6.24748
     56       2.00000          -0.217238           -5.91135
     57       2.00000          -0.210609           -5.73096
     58       2.00000          -0.208470           -5.67276
     59       0.00000          -0.063242           -1.72091
     60       0.00000          -0.052247           -1.42172
     61       0.00000          -0.045603           -1.24093
     62       0.00000          -0.041099           -1.11835
     63       0.00000          -0.019851           -0.54017
     64       0.00000          -0.013524           -0.36801
     65       0.00000          -0.009946           -0.27065
     66       0.00000           0.003686            0.10030
     67       0.00000           0.007370            0.20055
     68       0.00000           0.013792            0.37529
     69       0.00000           0.022343            0.60799
     70       0.00000           0.027011            0.73500
     71       0.00000           0.036666            0.99773
     72       0.00000           0.039558            1.07644
     73       0.00000           0.047195            1.28423
     74       0.00000           0.049113            1.33644
     75       0.00000           0.050049            1.36189
     76       0.00000           0.060048            1.63399
     77       0.00000           0.062467            1.69982
     78       0.00000           0.071383            1.94243
     79       0.00000           0.074620            2.03050
     80       0.00000           0.079921            2.17477
     81       0.00000           0.088529            2.40899
     82       0.00000           0.093281            2.53830
     83       0.00000           0.097371            2.64960
     84       0.00000           0.105818            2.87945
     85       0.00000           0.110838            3.01605
     86       0.00000           0.117542            3.19848
     87       0.00000           0.120894            3.28969
     88       0.00000           0.125840            3.42427
     89       0.00000           0.134637            3.66365
     90       0.00000           0.137659            3.74590
     91       0.00000           0.139141            3.78622
     92       0.00000           0.146465            3.98552
     93       0.00000           0.153412            4.17455
     94       0.00000           0.158843            4.32235
     95       0.00000           0.164385            4.47314
     96       0.00000           0.165266            4.49712
     97       0.00000           0.170851            4.64908
     98       0.00000           0.179711            4.89020
     99       0.00000           0.181975            4.95179
    100       0.00000           0.189112            5.14601
    101       0.00000           0.191019            5.19788
    102       0.00000           0.193297            5.25989
    103       0.00000           0.196308            5.34182
    104       0.00000           0.200727            5.46207
    105       0.00000           0.205145            5.58228
    106       0.00000           0.209567            5.70260
    107       0.00000           0.213209            5.80171
    108       0.00000           0.220882            6.01051
    109       0.00000           0.230705            6.27780
    110       0.00000           0.233172            6.34492
    111       0.00000           0.238620            6.49318
    112       0.00000           0.241551            6.57293
    113       0.00000           0.246406            6.70504
    114       0.00000           0.256963            6.99232
    115       0.00000           0.257366            7.00329
    116       0.00000           0.266732            7.25815
    117       0.00000           0.272727            7.42128
    118       0.00000           0.277600            7.55387
    119       0.00000           0.282365            7.68355
    120       0.00000           0.283292            7.70876
    121       0.00000           0.287814            7.83182
    122       0.00000           0.293307            7.98130
    123       0.00000           0.302626            8.23489
    124       0.00000           0.304852            8.29545
    125       0.00000           0.316915            8.62370
    126       0.00000           0.322705            8.78124
    127       0.00000           0.325571            8.85925
    128       0.00000           0.331062            9.00865
    129       0.00000           0.340564            9.26722

  Highest occupied state (VBM) at     -5.67275760 eV
  | Occupation number:      2.00000000

  Lowest unoccupied state (CBM) at    -1.72090929 eV
  | Occupation number:      0.00000000

  Overall HOMO-LUMO gap:      3.95184832 eV.

  Total energy components:
  | Sum of eigenvalues            :        -418.00145153 Ha      -11374.39821920 eV
  | XC energy correction          :        -100.74364427 Ha       -2741.37404006 eV
  | XC potential correction       :         129.51575460 Ha        3524.30299712 eV
  | Free-atom electrostatic energy:        -333.65821550 Ha       -9079.30199354 eV
  | Hartree energy correction     :         -19.82146650 Ha        -539.36954627 eV
  | vdW energy correction         :           0.00000000 Ha           0.00000000 eV
  | Entropy correction            :           0.00000000 Ha           0.00000000 eV
  | ---------------------------
  | Total energy                  :        -742.70902320 Ha      -20210.14080196 eV
  | Total energy, T -> 0          :        -742.70902320 Ha      -20210.14080196 eV  <-- do not rely on this value for anything but (periodic) metals
  | Electronic free energy        :        -742.70902320 Ha      -20210.14080196 eV

  Derived energy quantities:
  | Kinetic energy                :         743.99784945 Ha       20245.21154856 eV
  | Electrostatic energy          :       -1385.96322839 Ha      -37713.97831045 eV
  | Energy correction for multipole
  | error in Hartree potential    :          -0.04144610 Ha          -1.12780588 eV
  | Sum of eigenvalues per atom                           :        -355.44994435 eV
  | Total energy (T->0) per atom                          :        -631.56690006 eV  <-- do not rely on this value for anything but (periodic) metals
  | Electronic free energy per atom                       :        -631.56690006 eV

  Self-consistency convergence accuracy:
  | Change of charge density      :  0.9027E+00
  | Change of sum of eigenvalues  :  0.5392E+03 eV
  | Change of total energy        :  0.1537E+02 eV

  End self-consistency iteration #     1       :  max(cpu_time)    wall_clock(cpu1)
  | Time for this iteration                    :        1.668 s           1.669 s
  | Charge density update                      :        0.524 s           0.522 s
[...]
   ----------------------------------------------------------------
   Total forces(  20)            : -0.756691E-03  0.199881E-02 -0.169523E-03
  atom #   21
   Hellmann-Feynman              : -0.146430E-01  0.192131E-01  0.253925E-01
   Ionic forces                  :  0.000000E+00  0.000000E+00  0.000000E+00
   Multipole                     : -0.700290E-02  0.106846E-01  0.163053E-01
   Pulay + GGA                   :  0.189817E-01 -0.217872E-01 -0.545824E-01
   Van der Waals                 :  0.228747E-02 -0.681344E-02  0.134687E-01
   ----------------------------------------------------------------
   Total forces(  21)            : -0.376797E-03  0.129707E-02  0.584102E-03
  atom #   22
   Hellmann-Feynman              :  0.293010E-01  0.134492E-01  0.381193E-01
   Ionic forces                  :  0.000000E+00  0.000000E+00  0.000000E+00
   Multipole                     :  0.739201E-05 -0.973034E-02  0.145825E-01
   Pulay + GGA                   : -0.369707E-01  0.799871E-03 -0.536315E-01
   Van der Waals                 :  0.914790E-02 -0.570243E-02  0.113780E-02
   ----------------------------------------------------------------
   Total forces(  22)            :  0.148563E-02 -0.118367E-02  0.208054E-03
  atom #   23
   Hellmann-Feynman              : -0.751171E+00  0.150292E+00  0.134381E+01
   Ionic forces                  :  0.000000E+00  0.000000E+00  0.000000E+00
   Multipole                     :  0.110032E+00  0.571880E-02 -0.371405E+00
   Pulay + GGA                   :  0.652580E+00 -0.171744E+00 -0.973584E+00
   Van der Waals                 : -0.105872E-01  0.151578E-01 -0.589397E-03
   ----------------------------------------------------------------
   Total forces(  23)            :  0.854350E-03 -0.575849E-03 -0.176344E-02
  atom #   24
   Hellmann-Feynman              : -0.145716E-01 -0.225561E-01 -0.386104E-01
   Ionic forces                  :  0.000000E+00  0.000000E+00  0.000000E+00
   Multipole                     : -0.153127E-01  0.585962E-02 -0.182810E-01
   Pulay + GGA                   :  0.366308E-01  0.876668E-02  0.489421E-01
   Van der Waals                 : -0.729777E-02  0.787986E-02  0.734870E-02
   ----------------------------------------------------------------
   Total forces(  24)            : -0.551303E-03 -0.499303E-04 -0.600560E-03
  atom #   25
   Hellmann-Feynman              :  0.506887E-01  0.721334E-03 -0.178247E-01
   Ionic forces                  :  0.000000E+00  0.000000E+00  0.000000E+00
   Multipole                     :  0.122006E-01  0.178661E-01  0.248035E-01
   Pulay + GGA                   : -0.618625E-01 -0.216418E-01 -0.123021E-01
   Van der Waals                 : -0.156166E-02  0.342673E-02  0.494753E-02
   ----------------------------------------------------------------
   Total forces(  25)            : -0.534796E-03  0.372372E-03 -0.375749E-03
  atom #   26
   Hellmann-Feynman              :  0.231647E-01 -0.322955E-01 -0.433614E-01
   Ionic forces                  :  0.000000E+00  0.000000E+00  0.000000E+00
   Multipole                     : -0.787207E-02 -0.162829E-01  0.342126E-01
   Pulay + GGA                   : -0.193708E-01  0.521946E-01  0.577100E-02
   Van der Waals                 :  0.423111E-02 -0.384781E-02  0.287710E-02
   ----------------------------------------------------------------
   Total forces(  26)            :  0.152915E-03 -0.231621E-03 -0.500708E-03
  atom #   27
   Hellmann-Feynman              :  0.201647E+00  0.337655E+00 -0.155747E+01
   Ionic forces                  :  0.000000E+00  0.000000E+00  0.000000E+00
   Multipole                     : -0.132431E+00  0.753831E-01 -0.744332E-01
   Pulay + GGA                   : -0.704724E-01 -0.399506E+00  0.163847E+01
   Van der Waals                 : -0.100220E-02 -0.146118E-01 -0.374387E-02
   ----------------------------------------------------------------
   Total forces(  27)            : -0.225845E-02 -0.107977E-02  0.282769E-02
  atom #   28
   Hellmann-Feynman              :  0.373204E+00 -0.160100E+01  0.181715E+01
   Ionic forces                  :  0.000000E+00  0.000000E+00  0.000000E+00
   Multipole                     : -0.647426E-01  0.124817E+00 -0.194523E+00
   Pulay + GGA                   : -0.329511E+00  0.149703E+01 -0.161560E+01
   Van der Waals                 :  0.209337E-01 -0.175867E-01 -0.115737E-01
   ----------------------------------------------------------------
   Total forces(  28)            : -0.116052E-03  0.326789E-02 -0.454495E-02
  atom #   29
   Hellmann-Feynman              : -0.615798E-01 -0.654374E-02 -0.254181E-01
   Ionic forces                  :  0.000000E+00  0.000000E+00  0.000000E+00
   Multipole                     :  0.131891E-01 -0.295867E-01  0.345192E-01
   Pulay + GGA                   :  0.542748E-01  0.386805E-01 -0.171848E-02
   Van der Waals                 : -0.728405E-02 -0.334795E-02 -0.697760E-02
   ----------------------------------------------------------------
   Total forces(  29)            : -0.139999E-02 -0.797842E-03  0.405042E-03
  atom #   30
   Hellmann-Feynman              : -0.418042E-02  0.222089E-01 -0.381218E-01
   Ionic forces                  :  0.000000E+00  0.000000E+00  0.000000E+00
   Multipole                     :  0.437188E-02 -0.443489E-01 -0.167700E-01
   Pulay + GGA                   :  0.123090E-01  0.273027E-01  0.581035E-01
   Van der Waals                 : -0.107472E-01 -0.556812E-02 -0.439939E-02
   ----------------------------------------------------------------
   Total forces(  30)            :  0.175325E-02 -0.405466E-03 -0.118767E-02
  atom #   31
   Hellmann-Feynman              :  0.108307E-01  0.202129E-01 -0.121610E-01
   Ionic forces                  :  0.000000E+00  0.000000E+00  0.000000E+00
   Multipole                     : -0.368457E-01  0.846248E-02  0.289594E-01
   Pulay + GGA                   :  0.415897E-01 -0.259424E-01 -0.967149E-02
   Van der Waals                 : -0.176827E-01 -0.409765E-02 -0.684052E-02
   ----------------------------------------------------------------
   Total forces(  31)            : -0.210807E-02 -0.136472E-02  0.286396E-03
  atom #   32
   Hellmann-Feynman              : -0.633825E-02  0.216130E-01 -0.341094E-02
   Ionic forces                  :  0.000000E+00  0.000000E+00  0.000000E+00
   Multipole                     :  0.395275E-01  0.162206E-01  0.142046E-01
   Pulay + GGA                   : -0.527843E-01 -0.204034E-01 -0.972232E-02
   Van der Waals                 :  0.191003E-01 -0.162357E-01  0.790351E-03
   ----------------------------------------------------------------
   Total forces(  32)            : -0.494848E-03  0.119447E-02  0.186168E-02

  Timings for VdW correction (Tkatchenko-Scheffler 2009 or later):
  | CPU time:        0.132 s, Wall clock time:        0.132 s.
  Removing unitary transformations (pure translations, rotations) from forces on atoms.
  Atomic forces before filtering:
  | Net force on center of mass :  -0.233991E-03 -0.455506E-03 -0.593323E-03 eV/A
  | Net torque on center of mass:  -0.955212E-03  0.257858E-03 -0.951506E-03 eV
  Atomic forces after filtering:
  | Net force on center of mass :   0.261337E-18 -0.174225E-18  0.348449E-18 eV/A
  | Net torque on center of mass:   0.368783E-17  0.101415E-17 -0.184392E-17 eV

  Energy and forces in a compact form:
  | Total energy uncorrected      :         -0.202084842547573E+05 eV
  | Total energy corrected        :         -0.202084842547573E+05 eV  <-- do not rely on this value for anything but (periodic) metals
  | Electronic free energy        :         -0.202084842547573E+05 eV
  Total atomic forces (unitary forces cleaned) [eV/Ang]:
  |   1          0.737135396762674E-03         -0.208389430553278E-02          0.129617084125618E-02
  |   2          0.547654378941137E-03         -0.353371816216954E-03         -0.981694475474378E-03
  |   3         -0.328405028449286E-03          0.390167682714601E-03          0.937661786252330E-03
  |   4         -0.461474387218275E-03         -0.714442295593719E-04         -0.552348832253911E-03
  |   5         -0.303937775645891E-05          0.663103537179778E-03         -0.378196672174777E-03
  |   6         -0.551269051607666E-03          0.385709257890506E-03          0.198402186155233E-03
  |   7         -0.447517870744947E-02          0.156069375753850E-03         -0.406816129720427E-02
  |   8          0.282692383843708E-02          0.898641459023532E-04          0.127176164063739E-02
  |   9          0.146715885305379E-02          0.540595606683943E-03         -0.455650233235113E-02
  |  10          0.134999645865331E-02          0.139913635439356E-02          0.239258957664995E-02
  |  11          0.134694111605990E-02          0.516499316990688E-03          0.286187748464426E-03
  |  12         -0.256341082735153E-03         -0.373268212533375E-04          0.331826587817503E-03
  |  13         -0.243635859072126E-03          0.184797117228673E-02         -0.256327998333931E-03
  |  14          0.262764104402024E-03          0.990495375951975E-04          0.182644095274805E-03
  |  15          0.357187918233812E-03          0.831839046005747E-03          0.322568611842576E-04
  |  16         -0.434194862385760E-03         -0.210110184694295E-03          0.760566963741118E-03
  |  17         -0.119515908196622E-02         -0.363013305349559E-03          0.326873632247610E-02
  |  18          0.195590780996074E-02         -0.288150768056198E-02         -0.923769459263878E-03
  |  19          0.145772337933039E-02         -0.348614957070880E-02          0.337433339596452E-02
  |  20         -0.760709198656766E-03          0.201795549494805E-02         -0.133531073006415E-03
  |  21         -0.367659982720924E-03          0.131628425701495E-02          0.602516936140000E-03
  |  22          0.148721748819322E-02         -0.117083174615174E-02          0.233601941283389E-03
  |  23          0.852896080785715E-03         -0.574310998163732E-03         -0.173908076902748E-02
  |  24         -0.553429851060900E-03         -0.511216761493476E-04         -0.576566400576959E-03
  |  25         -0.533957675975222E-03          0.370903004585544E-03         -0.355853298044095E-03
  |  26          0.147587350025857E-03         -0.231221501223701E-03         -0.471688677369226E-03
  |  27         -0.226076461241428E-02         -0.106426926129524E-02          0.285970408122722E-02
  |  28         -0.116756143945955E-03          0.327886831342757E-02         -0.451719424228822E-02
  |  29         -0.140456956984726E-02         -0.779000369342410E-03          0.441648474696029E-03
  |  30          0.174901203845967E-02         -0.398464144113643E-03         -0.115704550482737E-02
  |  31         -0.210612822829353E-02         -0.134962449866676E-02          0.312526727427893E-03
  |  32         -0.493433509744072E-03          0.120164600561058E-02          0.188482486554767E-02

  ------------------------------------ 
  Start decomposition of the XC Energy 
  ------------------------------------ 
  Hartree-Fock part   :          0.000000000 Ha              0.000000000 eV
  ------------------------------------ 
  X Energy            :        -96.982180724 Ha          -2639.019409339 eV
  C Energy GGA        :         -3.869091196 Ha           -105.283328200 eV
  Total XC Energy     :       -100.851271920 Ha          -2744.302737540 eV
  LDA X and C from self-consistent density 
  X Energy LDA        :        -87.999197909 Ha          -2394.580009990 eV
  C Energy LDA        :         -7.532175297 Ha           -204.960918140 eV
  ------------------------------------ 
  End decomposition of the XC Energy 
  ------------------------------------ 
   
  ESP charge fitting starts.
  | Calculation :  00000001  of  00000001
  | Full density
  Computing multipole expansion for total density.
  Generating points for esp charges.
  Partitioning the integration grid into batches with parallel hashing+maxmin method.
  | Number of batches:     3868
  | Maximal batch size:     200
  | Minimal batch size:      52
  | Average batch size:     125.922
  | Standard deviation of batch sizes:      18.922

  Integration load balanced across    32 MPI tasks.
  Work distribution over tasks is as follows:
  Initializing partition tables, free-atom densities, potentials, etc. across the integration grid (initialize_grid_storage).
  | Original list of interatomic distances with          32 x         32 entries is created.
  | Net number of integration points:   487067
  | of which are non-zero points    :   487067
  Summing up potential from multipole expanded  density.
  Summing up the Hartree potential.
  Time summed over all CPUs for potential: real work        6.414 s, elapsed        6.681 s
  Fitting esp charges to potential.
  |
  | ESP charges fitted to the electrostatic potential :
  |
  | Atom         1: C, ESP charge:      0.46098946
  |
  | Atom         2: C, ESP charge:     -0.66766306
  |
  | Atom         3: O, ESP charge:      0.54794581
  |
  | Atom         4: H, ESP charge:     -0.10022570
  |
  | Atom         5: H, ESP charge:     -0.13340782
  |
  | Atom         6: H, ESP charge:     -0.14949663
  |
  | Atom         7: N, ESP charge:      0.59781715
  |
  | Atom         8: C, ESP charge:     -0.32385492
  |
  | Atom         9: C, ESP charge:     -0.48803641
  |
  | Atom        10: O, ESP charge:      0.48396404
  |
  | Atom        11: H, ESP charge:     -0.31699862
  |
  | Atom        12: H, ESP charge:     -0.01123277
  |
  | Atom        13: C, ESP charge:      0.46690405
  |
  | Atom        14: H, ESP charge:     -0.12065690
  |
  | Atom        15: H, ESP charge:     -0.14265186
  |
  | Atom        16: H, ESP charge:     -0.13464532
  |
  | Atom        17: N, ESP charge:      0.67834544
  |
  | Atom        18: C, ESP charge:     -0.64114452
  |
  | Atom        19: C, ESP charge:     -0.26624479
  |
  | Atom        20: O, ESP charge:      0.51951214
  |
  | Atom        21: H, ESP charge:     -0.30242303
  |
  | Atom        22: H, ESP charge:      0.01441796
  |
  | Atom        23: C, ESP charge:      0.78276763
  |
  | Atom        24: H, ESP charge:     -0.23763136
  |
  | Atom        25: H, ESP charge:     -0.21572699
  |
  | Atom        26: H, ESP charge:     -0.18907039
  |
  | Atom        27: N, ESP charge:      0.31222663
  |
  | Atom        28: C, ESP charge:     -0.04197205
  |
  | Atom        29: H, ESP charge:     -0.28066499
  |
  | Atom        30: H, ESP charge:     -0.04576514
  |
  | Atom        31: H, ESP charge:     -0.04095272
  |
  | Atom        32: H, ESP charge:     -0.01442433

  RRMS:       0.00721335

  Done.

------------------------------------------------------------------------------
  Final output of selected total energy values:

  The following output summarizes some interesting total energy values
  at the end of a run (AFTER all relaxation, molecular dynamics, etc.).

  | Total energy of the DFT / Hartree-Fock s.c.f. calculation      :         -20208.484254757 eV
  | Final zero-broadening corrected energy (caution - metals only) :         -20208.484254757 eV
  | For reference only, the value of 1 Hartree used in FHI-aims is :             27.211384500 eV

  Before relying on these values, please be sure to understand exactly which
  total energy value is referred to by a given number. Different objects may
  all carry the same name 'total energy'. Definitions:

  Total energy of the DFT / Hartree-Fock s.c.f. calculation:
  | Note that this energy does not include ANY quantities calculated after the
  | s.c.f. cycle, in particular not ANY RPA, MP2, etc. many-body perturbation terms.

  Final zero-broadening corrected energy:
  | For metallic systems only, a broadening of the occupation numbers at the Fermi
  | level can be extrapolated back to zero broadening by an electron-gas inspired
  | formula. For all systems that are not real metals, this value can be
  | meaningless and should be avoided.

------------------------------------------------------------------------------
  Methods described in the following list of references were used in this FHI-aims run.
  If you publish the results, please make sure to cite these reference if they apply.
  FHI-aims is an academic code, and for our developers (often, Ph.D. students
  and postdocs), scientific credit in the community is essential.
  Thank you for helping us!

  For any use of FHI-aims, please cite:

    Volker Blum, Ralf Gehrke, Felix Hanke, Paula Havu, Ville Havu,
    Xinguo Ren, Karsten Reuter, and Matthias Scheffler
    'Ab initio molecular simulations with numeric atom-centered orbitals'
    Computer Physics Communications 180, 2175-2196 (2009)
    http://dx.doi.org/10.1016/j.cpc.2009.06.022


  The scalable eigensolver library ELPA was used in your run.
  ELPA is essential especially for large systems on hundreds or thousands of CPUs.
  For ELPA, please cite:

    Andreas Marek, Volker Blum, Rainer Johanni, Ville Havu, Bruno Lang,
    Thomas Auckenthaler, Alexander Heinecke, Hans-Joachim Bungartz, and Hermann Lederer,
    'The ELPA Library - Scalable Parallel Eigenvalue Solutions
    for Electronic Structure Theory and Computational Science'
    The Journal of Physics: Condensed Matter 26, 213201 (2014).
    http://dx.doi.org/10.1088/0953-8984/26/21/213201


  For ELPA's efficient two-stage tridiagonalization used in your run, please cite:

    T. Auckenthaler, V. Blum, H.-J. Bungartz, T. Huckle, R. Johanni, L. Kraemer,
    B. Lang, H. Lederer, and P. R. Willems,
    'Parallel solution of partial symmetric eigenvalue problems'
    'from  electronic structure calculations'
    Parallel Computing 37, 783-794 (2011).
    http://dx.doi.org/10.1016/j.parco.2011.05.002


  For the real-space grid partitioning and parallelization used in this calculation, please cite:

    Ville Havu, Volker Blum, Paula Havu, and Matthias Scheffler,
    'Efficient O(N) integration for all-electron electronic structure calculation'
    'using numerically tabulated basis functions'
    Journal of Computational Physics 228, 8367-8379 (2009).
    http://dx.doi.org/10.1016/j.jcp.2009.08.008

  Of course, there are many other important community references, e.g., those cited in the
  above references. Our list is limited to references that describe implementations in the
  FHI-aims code. The reason is purely practical (length of this list) - please credit others as well.

------------------------------------------------------------
          Leaving FHI-aims.
          Date     :  20170309, Time     :  184813.493

          Computational steps:
          | Number of self-consistency cycles          :           14

          Detailed time accounting                     :  max(cpu_time)    wall_clock(cpu1)
          | Total time                                 :       32.558 s          32.734 s
          | Preparation time                           :        0.236 s           0.236 s
          | Grid partitioning                          :        0.244 s           0.240 s
          | Preloading free-atom quantities on grid    :        0.028 s           0.027 s
          | Free-atom superposition energy             :        0.044 s           0.042 s
          | Total time for integrations                :       12.413 s          12.388 s
          | Total time for solution of K.-S. equations :        0.528 s           0.498 s
          | Total time for density & force components  :       10.441 s          10.417 s
          | Total time for mixing                      :        0.124 s           0.106 s
          | Total time for Hartree multipole update    :        0.084 s           0.060 s
          | Total time for Hartree multipole sum       :        6.356 s           6.318 s
          | Total time for total energy evaluation     :        0.020 s           0.025 s
          | Total time for vdW correction              :        0.132 s           0.132 s

          Have a nice day.
------------------------------------------------------------
