  MPI-parallelism will be employed.
------------------------------------------------------------
          Invoking FHI-aims ...
          Version 150427
          Git rev.: 9dd23e0 BL: Update Version stamp
          Compiled on 2015/11/03 at 22:05:20 on host eos03.

          When using FHI-aims, please cite the following reference:

          Volker Blum, Ralf Gehrke, Felix Hanke, Paula Havu,
          Ville Havu, Xinguo Ren, Karsten Reuter, and Matthias Scheffler,
          'Ab Initio Molecular Simulations with Numeric Atom-Centered Orbitals: FHI-aims',
          Computer Physics Communications 180, 2175-2196 (2009)

          For any questions about FHI-aims, please visit the aimsclub website
          with its forums and wiki. Contributions to both the forums and the
          wiki are warmly encouraged - they are for you, and everyone is welcome there.

------------------------------------------------------------

  Date     :  20170309, Time     :  185510.491
  Time zero on CPU 1             :   0.380023000000000E+00  s.
  Internal wall clock time zero  :           258317710.491  s.

  Using       32 parallel tasks.
  Task        0 on host eos366 reporting.
  Task        1 on host eos366 reporting.
  Task        2 on host eos366 reporting.
  Task        3 on host eos366 reporting.
  Task        4 on host eos366 reporting.
  Task        5 on host eos366 reporting.
  Task        6 on host eos366 reporting.
  Task        7 on host eos366 reporting.
  Task        8 on host eos366 reporting.
  Task        9 on host eos366 reporting.
  Task       10 on host eos366 reporting.
  Task       11 on host eos366 reporting.
  Task       12 on host eos366 reporting.
  Task       13 on host eos366 reporting.
  Task       14 on host eos366 reporting.
  Task       15 on host eos366 reporting.
  Task       16 on host eos366 reporting.
  Task       17 on host eos366 reporting.
  Task       18 on host eos366 reporting.
  Task       19 on host eos366 reporting.
  Task       20 on host eos366 reporting.
  Task       21 on host eos366 reporting.
  Task       22 on host eos366 reporting.
  Task       23 on host eos366 reporting.
  Task       24 on host eos366 reporting.
  Task       25 on host eos366 reporting.
  Task       26 on host eos366 reporting.
  Task       27 on host eos366 reporting.
  Task       28 on host eos366 reporting.
  Task       29 on host eos366 reporting.
  Task       30 on host eos366 reporting.
  Task       31 on host eos366 reporting.

  Performing system and environment tests:
  | Environment variable OMP_NUM_THREADS correctly set to 1.
  | Stacksize not measured: no C compiler
  | Checking for scalapack...
  | Testing pdtran()...
  | All pdtran() tests passed.

  Obtaining array dimensions for all initial allocations:
  
  -----------------------------------------------------------------------
  Parsing control.in (first pass over file, find array dimensions only).
  The contents of control.in will be repeated verbatim below
  unless switched off by setting 'verbatim_writeout .false.' .
  in the first line of control.in .
  -----------------------------------------------------------------------
  
  #########################################################################################
  #
  # Input for System
  #
  #########################################################################################
  #
  #
  #  Physical model
  #
    xc                 pbe
    vdw_correction_hirshfeld
    spin               none
    charge             0.
  #
  #  SCF convergence
  #
    occupation_type    gaussian 0.05
    mixer              pulay
      n_max_pulay        10
      charge_mix_param   0.5
    sc_accuracy_rho    1E-4
    sc_accuracy_eev    1E-2
    sc_accuracy_etot   1E-5
    sc_accuracy_forces 1E-4
    sc_iter_limit      1000
  #
  #  ESP charge
  #
    output esp
    esp equal_grid_n 80 80 80
  #
  #
  ################################################################################
  #
  #  FHI-aims code project
  # Volker Blum, Fritz Haber Institute Berlin, 2009
  #
  #  Suggested "tight" defaults for H atom (to be pasted into control.in file)
  #
  ################################################################################
    species        H
  #     global species definitions
      nucleus             1
      mass                1.00794
  #
      l_hartree           6
  #
      cut_pot             4.0  2.0  1.0
      basis_dep_cutoff    1e-4
  #
      radial_base         24 7.0
      radial_multiplier   2
      angular_grids       specified
        division   0.1930   50
        division   0.3175  110
        division   0.4293  194
        division   0.5066  302
        division   0.5626  434
  #      division   0.5922  590
  #      division   0.6227  974
  #      division   0.6868 1202
  #      outer_grid  770
        outer_grid  434
  ################################################################################
  #
  #  Definition of "minimal" basis
  #
  ################################################################################
  #     valence basis states
      valence      1  s   1.
  #     ion occupancy
      ion_occ      1  s   0.5
  ################################################################################
  #
  #  Suggested additional basis functions. For production calculations,
  #  uncomment them one after another (the most important basis functions are
  #  listed first).
  #
  #  Basis constructed for dimers: 0.5 A, 0.7 A, 1.0 A, 1.5 A, 2.5 A
  #
  ################################################################################
  #  "First tier" - improvements: -1014.90 meV to -62.69 meV
       hydro 2 s 2.1
       hydro 2 p 3.5
  #  "Second tier" - improvements: -12.89 meV to -1.83 meV
       hydro 1 s 0.85
       hydro 2 p 3.7
       hydro 2 s 1.2
       hydro 3 d 7
  #  "Third tier" - improvements: -0.25 meV to -0.12 meV
  #     hydro 4 f 11.2
  #     hydro 3 p 4.8
  #     hydro 4 d 9
  #     hydro 3 s 3.2
  ################################################################################
  #
  # For methods that use the localized form of the "resolution of identity" for
  # the two-electron Coulomb operator (RI_method LVL), particularly Hartree-Fock and
  # hybrid density functional calculations, the highest accuracy can be obtained by
  # uncommenting the line beginning with "for_aux"  below, thus adding an extra g radial
  # function to the construction of the product basis set for the expansion.
  # See Ref. New J. Phys. 17, 093020 (2015) for more information, particularly Figs. 1 and 6.
  #
  ################################################################################
  #
  # for_aux hydro 5 g 6.0
  ################################################################################
  #
  #  FHI-aims code project
  # Volker Blum, Fritz Haber Institute Berlin, 2009
  #
  #  Suggested "tight" defaults for C atom (to be pasted into control.in file)
  #
  ################################################################################
    species        C
  #     global species definitions
      nucleus             6
      mass                12.0107
  #
      l_hartree           6
  #
      cut_pot             4.0  2.0  1.0
      basis_dep_cutoff    1e-4
  #
      radial_base         34 7.0
      radial_multiplier   2
      angular_grids specified
        division   0.2187   50
        division   0.4416  110
        division   0.6335  194
        division   0.7727  302
        division   0.8772  434
  #      division   0.9334  590
  #      division   0.9924  770
  #      division   1.0230  974
  #      division   1.5020 1202
  #     outer_grid  974
        outer_grid  434
  ################################################################################
  #
  #  Definition of "minimal" basis
  #
  ################################################################################
  #     valence basis states
      valence      2  s   2.
      valence      2  p   2.
  #     ion occupancy
      ion_occ      2  s   1.
      ion_occ      2  p   1.
  ################################################################################
  #
  #  Suggested additional basis functions. For production calculations,
  #  uncomment them one after another (the most important basis functions are
  #  listed first).
  #
  #  Constructed for dimers: 1.0 A, 1.25 A, 1.5 A, 2.0 A, 3.0 A
  #
  ################################################################################
  #  "First tier" - improvements: -1214.57 meV to -155.61 meV
       hydro 2 p 1.7
       hydro 3 d 6
       hydro 2 s 4.9
  #  "Second tier" - improvements: -67.75 meV to -5.23 meV
       hydro 4 f 9.8
       hydro 3 p 5.2
       hydro 3 s 4.3
       hydro 5 g 14.4
       hydro 3 d 6.2
  #  "Third tier" - improvements: -2.43 meV to -0.60 meV
  #     hydro 2 p 5.6
  #     hydro 2 s 1.4
  #     hydro 3 d 4.9
  #     hydro 4 f 11.2
  #  "Fourth tier" - improvements: -0.39 meV to -0.18 meV
  #     hydro 2 p 2.1
  #     hydro 5 g 16.4
  #     hydro 4 d 13.2
  #     hydro 3 s 13.6
  #     hydro 4 f 17.6
  #  Further basis functions - improvements: -0.08 meV and below
  #     hydro 3 s 2
  #     hydro 3 p 6
  #     hydro 4 d 20
  ################################################################################
  #
  # For methods that use the localized form of the "resolution of identity" for
  # the two-electron Coulomb operator (RI_method LVL), particularly Hartree-Fock and
  # hybrid density functional calculations, the highest accuracy can be obtained by
  # uncommenting the line beginning with "for_aux"  below, thus adding an extra g radial
  # function to the construction of the product basis set for the expansion.
  # See Ref. New J. Phys. 17, 093020 (2015) for more information, particularly Figs. 1 and 6.
  #
  ################################################################################
  #
  # for_aux hydro 5 g 6.0
  ################################################################################
  #
  #  FHI-aims code project
  # Volker Blum, Fritz Haber Institute Berlin, 2009
  #
  #  Suggested "tight" defaults for N atom (to be pasted into control.in file)
  #
  ################################################################################
    species        N
  #     global species definitions
      nucleus             7
      mass                14.0067
  #
      l_hartree           6
  #
      cut_pot             4.0  2.0  1.0
      basis_dep_cutoff    1e-4
  #
      radial_base         35 7.0
      radial_multiplier   2
      angular_grids       specified
        division   0.1841   50
        division   0.3514  110
        division   0.5126  194
        division   0.6292  302
        division   0.6939  434
  #      division   0.7396  590
  #      division   0.7632  770
  #      division   0.8122  974
  #      division   1.1604 1202
  #      outer_grid  974
        outer_grid  434
  ################################################################################
  #
  #  Definition of "minimal" basis
  #
  ################################################################################
  #     valence basis states
      valence      2  s   2.
      valence      2  p   3.
  #     ion occupancy
      ion_occ      2  s   1.
      ion_occ      2  p   2.
  ################################################################################
  #
  #  Suggested additional basis functions. For production calculations,
  #  uncomment them one after another (the most important basis functions are
  #  listed first).
  #
  #  Constructed for dimers: 1.0 A, 1.1 A, 1.5 A, 2.0 A, 3.0 A
  #
  ################################################################################
  #  "First tier" - improvements: -1193.42 meV to -220.60 meV
       hydro 2 p 1.8
       hydro 3 d 6.8
       hydro 3 s 5.8
  #  "Second tier" - improvements: -80.21 meV to -6.86 meV
       hydro 4 f 10.8
       hydro 3 p 5.8
       hydro 1 s 0.8
       hydro 5 g 16
       hydro 3 d 4.9
  #  "Third tier" - improvements: -4.29 meV to -0.53 meV
  #     hydro 3 s 16
  #     ionic 2 p auto
  #     hydro 3 d 6.6
  #     hydro 4 f 11.6
  #  "Fourth tier" - improvements: -0.75 meV to -0.25 meV
  #     hydro 2 p 4.5
  #     hydro 2 s 2.4
  #     hydro 5 g 14.4
  #     hydro 4 d 14.4
  #     hydro 4 f 16.8
  # Further basis functions - -0.21 meV and below
  #     hydro 3 p 14.8
  #     hydro 3 s 4.4
  #     hydro 3 d 19.6
  #     hydro 5 g 12.8
  ################################################################################
  #
  # For methods that use the localized form of the "resolution of identity" for
  # the two-electron Coulomb operator (RI_method LVL), particularly Hartree-Fock and
  # hybrid density functional calculations, the highest accuracy can be obtained by
  # uncommenting the line beginning with "for_aux"  below, thus adding an extra g radial
  # function to the construction of the product basis set for the expansion.
  # See Ref. New J. Phys. 17, 093020 (2015) for more information, particularly Figs. 1 and 6.
  #
  ################################################################################
  #
  # for_aux hydro 5 g 6.0
  ################################################################################
  #
  #  FHI-aims code project
  # Volker Blum, Fritz Haber Institute Berlin, 2009
  #
  #  Suggested "tight" defaults for O atom (to be pasted into control.in file)
  #
  ################################################################################
    species        O
  #     global species definitions
      nucleus             8
      mass                15.9994
  #
      l_hartree           6
  #
      cut_pot             4.0  2.0  1.0
      basis_dep_cutoff    1e-4
  #
      radial_base         36 7.0
      radial_multiplier   2
       angular_grids specified
        division   0.1817   50
        division   0.3417  110
        division   0.4949  194
        division   0.6251  302
        division   0.8014  434
  #      division   0.8507  590
  #      division   0.8762  770
  #      division   0.9023  974
  #      division   1.2339 1202
  #      outer_grid 974
        outer_grid  434
  ################################################################################
  #
  #  Definition of "minimal" basis
  #
  ################################################################################
  #     valence basis states
      valence      2  s   2.
      valence      2  p   4.
  #     ion occupancy
      ion_occ      2  s   1.
      ion_occ      2  p   3.
  ################################################################################
  #
  #  Suggested additional basis functions. For production calculations,
  #  uncomment them one after another (the most important basis functions are
  #  listed first).
  #
  #  Constructed for dimers: 1.0 A, 1.208 A, 1.5 A, 2.0 A, 3.0 A
  #
  ################################################################################
  #  "First tier" - improvements: -699.05 meV to -159.38 meV
       hydro 2 p 1.8
       hydro 3 d 7.6
       hydro 3 s 6.4
  #  "Second tier" - improvements: -49.91 meV to -5.39 meV
       hydro 4 f 11.6
       hydro 3 p 6.2
       hydro 3 d 5.6
       hydro 5 g 17.6
       hydro 1 s 0.75
  #  "Third tier" - improvements: -2.83 meV to -0.50 meV
  #     ionic 2 p auto
  #     hydro 4 f 10.8
  #     hydro 4 d 4.7
  #     hydro 2 s 6.8
  #  "Fourth tier" - improvements: -0.40 meV to -0.12 meV
  #     hydro 3 p 5
  #     hydro 3 s 3.3
  #     hydro 5 g 15.6
  #     hydro 4 f 17.6
  #     hydro 4 d 14
  # Further basis functions - -0.08 meV and below
  #     hydro 3 s 2.1
  #     hydro 4 d 11.6
  #     hydro 3 p 16
  #     hydro 2 s 17.2
  ################################################################################
  #
  # For methods that use the localized form of the "resolution of identity" for
  # the two-electron Coulomb operator (RI_method LVL), particularly Hartree-Fock and
  # hybrid density functional calculations, the highest accuracy can be obtained by
  # uncommenting the line beginning with "for_aux"  below, thus adding an extra g radial
  # function to the construction of the product basis set for the expansion.
  # See Ref. New J. Phys. 17, 093020 (2015) for more information, particularly Figs. 1 and 6.
  #
  ################################################################################
  #
  # for_aux hydro 5 g 6.0
  
  -----------------------------------------------------------------------
  Completed first pass over input file control.in .
  -----------------------------------------------------------------------
  
  
  -----------------------------------------------------------------------
  Parsing geometry.in (first pass over file, find array dimensions only).
  The contents of geometry.in will be repeated verbatim below
  unless switched off by setting 'verbatim_writeout .false.' .
  in the first line of geometry.in .
  -----------------------------------------------------------------------
  
  #
  # This is the geometry file that corresponds to the current relaxation step.
  # If you do not want this file to be written, set the "write_restart_geometry" flag to .false.
  #
  atom      -0.64366881      2.02193937      0.41891162 C
  atom      -0.05064162      1.05834384      1.43019411 C
  atom       1.11971848      1.14624011      1.79216877 O
  atom      -0.00904866      2.91218186      0.39543925 H
  atom      -1.67767791      2.31532512      0.63530530 H
  atom      -0.62982820      1.55678058     -0.57682903 H
  atom      -0.85021621      0.05420796      1.92671918 N
  atom      -2.24060447     -0.27761285      1.63289281 C
  atom      -2.46805017     -0.43819977      0.10560878 C
  atom      -1.69864150     -1.12029797     -0.56800432 O
  atom      -0.33484438     -0.59003811      2.51773054 H
  atom      -2.36874576     -1.30851594      1.99821246 H
  atom      -3.23784034      0.60391311      2.39986984 C
  atom      -2.98826393      0.58584809      3.46772932 H
  atom      -4.26746842      0.23052650      2.30055062 H
  atom      -3.20532116      1.65309841      2.07654941 H
  atom      -3.55123872      0.20041253     -0.41132341 N
  atom      -3.99810358      0.05290119     -1.80186937 C
  atom      -4.54650537     -1.38988667     -2.00702388 C
  atom      -5.59277591     -1.67221447     -1.41792688 O
  atom      -4.20052202      0.63382137      0.23243666 H
  atom      -4.92872601      0.63436364     -1.85365091 H
  atom      -3.01681164      0.67638805     -2.79763025 C
  atom      -3.37839135      0.54353450     -3.82558123 H
  atom      -2.01069140      0.25652789     -2.71835988 H
  atom      -2.95196229      1.75512619     -2.60282349 H
  atom      -3.94953244     -2.29245887     -2.83339223 N
  atom      -2.61271520     -2.32586828     -3.41778620 C
  atom      -4.48095249     -3.15819010     -2.86135203 H
  atom      -2.38603296     -3.36768219     -3.67014234 H
  atom      -1.86457373     -1.97867422     -2.69655338 H
  atom      -2.54625584     -1.73513084     -4.34253687 H
  
  -----------------------------------------------------------------------
  Completed first pass over input file geometry.in .
  -----------------------------------------------------------------------
  

  Basic array size parameters:
  | Number of species                 :        4
  | Number of atoms                   :       32
  | Max. basis fn. angular momentum   :        4
  | Max. atomic/ionic basis occupied n:        2
  | Max. number of basis fn. types    :        2
  | Max. radial fns per species/type  :        8
  | Max. logarithmic grid size        :     1301
  | Max. radial integration grid size :       73
  | Max. angular integration grid size:      434
  | Max. angular grid division number :        8
  | Radial grid for Hartree potential :     1301
  | Number of spin channels           :        1

------------------------------------------------------------
          Reading file control.in.
------------------------------------------------------------
  XC: Using PBE gradient-corrected functionals.
  Spin treatment: No spin polarisation.
  Charge =   0.000000E+00: Neutral system requested explicitly.
  Occupation type: Gaussian broadening, width =   0.500000E-01 eV.
  Using pulay charge density mixing.
  Pulay mixing - number of memorized iterations:   10
  Charge density mixing - mixing parameter:     0.5000
  Convergence accuracy of self-consistent charge density:  0.1000E-03
  Convergence accuracy of sum of eigenvalues:  0.1000E-01
  Convergence accuracy of total energy:  0.1000E-04
  Convergence accuracy of forces:  0.1000E-03
  Maximum number of s.-c. iterations  :  1000
  Fitting ESP-charges to Potential. 
  | Esp charge output options: 
  | ESP Grid method: 3, cubic grid
  | Number of points in x, ,y, z:  0080 0080 0080
  |
 
  Reading configuration options for species H                   .
  | Found nuclear charge :   1.0000
  | Found atomic mass :    1.00794000000000      amu
  | Found l_max for Hartree potential  :   6
  | Found cutoff potl. onset [A], width [A], scale factor :    4.00000    2.00000    1.00000
  | Threshold for basis-dependent cutoff potential is   0.100000E-03
  | Found data for basic radial integration grid :    24 points, outermost radius =    7.000 A
  | Found multiplier for basic radial grid :   2
  | Found angular grid specification: user-specified.
  | Specified grid contains     6 separate shells.
  | Check grid settings after all constraints further below.
  | Found free-atom valence shell :  1 s   1.000
  | No ionic wave fns used. Skipping ion_occ.
  | Found hydrogenic basis function :  2 s   2.100
  | Found hydrogenic basis function :  2 p   3.500
  | Found hydrogenic basis function :  1 s   0.850
  | Found hydrogenic basis function :  2 p   3.700
  | Found hydrogenic basis function :  2 s   1.200
  | Found hydrogenic basis function :  3 d   7.000
  Species H                   : Missing cutoff potential type.
  Defaulting to exp(1/x)/(1-x)^2 type cutoff potential.
  Species H : No 'logarithmic' tag. Using default grid for free atom:
  | Default logarithmic grid data [bohr] : 0.1000E-03 0.1000E+03 0.1012E+01
  Species H : On-site basis accuracy parameter (for Gram-Schmidt orthonormalisation) not specified.
  Using default value basis_acc =  0.1000000E-03.
  Species H                   : Using default innermost maximum threshold i_radial=  2 for radial functions.
  Species H                   : Default cutoff onset for free atom density etc. : 0.40000000E+01 AA.
  Species H                   : Basic radial grid will be enhanced according to radial_multiplier =   2, to contain    49 grid points.
 
  Reading configuration options for species C                   .
  | Found nuclear charge :   6.0000
  | Found atomic mass :    12.0107000000000      amu
  | Found l_max for Hartree potential  :   6
  | Found cutoff potl. onset [A], width [A], scale factor :    4.00000    2.00000    1.00000
  | Threshold for basis-dependent cutoff potential is   0.100000E-03
  | Found data for basic radial integration grid :    34 points, outermost radius =    7.000 A
  | Found multiplier for basic radial grid :   2
  | Found angular grid specification: user-specified.
  | Specified grid contains     6 separate shells.
  | Check grid settings after all constraints further below.
  | Found free-atom valence shell :  2 s   2.000
  | Found free-atom valence shell :  2 p   2.000
  | No ionic wave fns used. Skipping ion_occ.
  | No ionic wave fns used. Skipping ion_occ.
  | Found hydrogenic basis function :  2 p   1.700
  | Found hydrogenic basis function :  3 d   6.000
  | Found hydrogenic basis function :  2 s   4.900
  | Found hydrogenic basis function :  4 f   9.800
  | Found hydrogenic basis function :  3 p   5.200
  | Found hydrogenic basis function :  3 s   4.300
  | Found hydrogenic basis function :  5 g  14.400
  | Found hydrogenic basis function :  3 d   6.200
  Species C                   : Missing cutoff potential type.
  Defaulting to exp(1/x)/(1-x)^2 type cutoff potential.
  Species C : No 'logarithmic' tag. Using default grid for free atom:
  | Default logarithmic grid data [bohr] : 0.1000E-03 0.1000E+03 0.1012E+01
  Species C : On-site basis accuracy parameter (for Gram-Schmidt orthonormalisation) not specified.
  Using default value basis_acc =  0.1000000E-03.
  Species C                   : Using default innermost maximum threshold i_radial=  2 for radial functions.
  Species C                   : Default cutoff onset for free atom density etc. : 0.40000000E+01 AA.
  Species C                   : Basic radial grid will be enhanced according to radial_multiplier =   2, to contain    69 grid points.
 
  Reading configuration options for species N                   .
  | Found nuclear charge :   7.0000
  | Found atomic mass :    14.0067000000000      amu
  | Found l_max for Hartree potential  :   6
  | Found cutoff potl. onset [A], width [A], scale factor :    4.00000    2.00000    1.00000
  | Threshold for basis-dependent cutoff potential is   0.100000E-03
  | Found data for basic radial integration grid :    35 points, outermost radius =    7.000 A
  | Found multiplier for basic radial grid :   2
  | Found angular grid specification: user-specified.
  | Specified grid contains     6 separate shells.
  | Check grid settings after all constraints further below.
  | Found free-atom valence shell :  2 s   2.000
  | Found free-atom valence shell :  2 p   3.000
  | No ionic wave fns used. Skipping ion_occ.
  | No ionic wave fns used. Skipping ion_occ.
  | Found hydrogenic basis function :  2 p   1.800
  | Found hydrogenic basis function :  3 d   6.800
  | Found hydrogenic basis function :  3 s   5.800
  | Found hydrogenic basis function :  4 f  10.800
  | Found hydrogenic basis function :  3 p   5.800
  | Found hydrogenic basis function :  1 s   0.800
  | Found hydrogenic basis function :  5 g  16.000
  | Found hydrogenic basis function :  3 d   4.900
  Species N                   : Missing cutoff potential type.
  Defaulting to exp(1/x)/(1-x)^2 type cutoff potential.
  Species N : No 'logarithmic' tag. Using default grid for free atom:
  | Default logarithmic grid data [bohr] : 0.1000E-03 0.1000E+03 0.1012E+01
  Species N : On-site basis accuracy parameter (for Gram-Schmidt orthonormalisation) not specified.
  Using default value basis_acc =  0.1000000E-03.
  Species N                   : Using default innermost maximum threshold i_radial=  2 for radial functions.
  Species N                   : Default cutoff onset for free atom density etc. : 0.40000000E+01 AA.
  Species N                   : Basic radial grid will be enhanced according to radial_multiplier =   2, to contain    71 grid points.
 
  Reading configuration options for species O                   .
  | Found nuclear charge :   8.0000
  | Found atomic mass :    15.9994000000000      amu
  | Found l_max for Hartree potential  :   6
  | Found cutoff potl. onset [A], width [A], scale factor :    4.00000    2.00000    1.00000
  | Threshold for basis-dependent cutoff potential is   0.100000E-03
  | Found data for basic radial integration grid :    36 points, outermost radius =    7.000 A
  | Found multiplier for basic radial grid :   2
  | Found angular grid specification: user-specified.
  | Specified grid contains     6 separate shells.
  | Check grid settings after all constraints further below.
  | Found free-atom valence shell :  2 s   2.000
  | Found free-atom valence shell :  2 p   4.000
  | No ionic wave fns used. Skipping ion_occ.
  | No ionic wave fns used. Skipping ion_occ.
  | Found hydrogenic basis function :  2 p   1.800
  | Found hydrogenic basis function :  3 d   7.600
  | Found hydrogenic basis function :  3 s   6.400
  | Found hydrogenic basis function :  4 f  11.600
  | Found hydrogenic basis function :  3 p   6.200
  | Found hydrogenic basis function :  3 d   5.600
  | Found hydrogenic basis function :  5 g  17.600
  | Found hydrogenic basis function :  1 s   0.750
  Species O                   : Missing cutoff potential type.
  Defaulting to exp(1/x)/(1-x)^2 type cutoff potential.
  Species O : No 'logarithmic' tag. Using default grid for free atom:
  | Default logarithmic grid data [bohr] : 0.1000E-03 0.1000E+03 0.1012E+01
  Species O : On-site basis accuracy parameter (for Gram-Schmidt orthonormalisation) not specified.
  Using default value basis_acc =  0.1000000E-03.
  Species O                   : Using default innermost maximum threshold i_radial=  2 for radial functions.
  Species O                   : Default cutoff onset for free atom density etc. : 0.40000000E+01 AA.
  Species O                   : Basic radial grid will be enhanced according to radial_multiplier =   2, to contain    73 grid points.
 
  Finished reading input file 'control.in'. Consistency checks are next.
 
  Target number of points in a grid batch is not set. Defaulting to  100
  Method for grid partitioning is not set. Defaulting to parallel hash+maxmin partitioning.
  Batch size limit is not set. Defaulting to    200
  By default, will store active basis functions for each batch.
  If in need of memory, prune_basis_once .false. can be used to disable this option.
  communication_type for Hartree potential was not specified.
  Defaulting to calc_hartree .
  Pulay mixer: Number of initial linear mixing iterations not set.
  Defaulting to    0 iterations.
  Work space size for distributed Hartree potential not set.
  Defaulting to   0.200000E+03 MB.
  Algorithm-dependent basis array size parameters:
  | n_max_pulay                         :       10
  Geometry relaxation not requested: no relaxation will be performed.
  Handling of forces: Unphysical translation and rotation will be removed from forces.
  No accuracy limit for integral partition fn. given. Defaulting to  0.1000E-14.
  No threshold value for u(r) in integrations given. Defaulting to  0.1000E-05.
  No accuracy for occupation numbers given. Defaulting to  0.1000E-07.
  No threshold value for occupation numbers given. Defaulting to  0.0000E+00.
  No accuracy for fermi level given. Defaulting to  0.1000E-19.
  Maximum # of iterations to find E_F not set. Defaulting to  200.
  Preferred method for the eigenvalue solver ('KS_method') not specified in 'control.in'.
  Calling blacs routine to test compilation state
  Since scalapack support is enabled, defaulting to 'elpa'.
  Preferred method for the MBD eigenvalue solver ('mbd_eigensolver') not specified in 'control.in'.
  Calling blacs routine to test compilation state
  Since scalapack support is enabled, defaulting to 'scaLAPACK'.
  Will not use alltoall communication since running on < 1024 CPUs.
  Threshold for basis singularities not set.
  Default threshold for basis singularities:  0.1000E-04
  partition_type (choice of integration weights) for integrals was not specified.
  | Using a version of the partition function of Stratmann and coworkers ('stratmann_smoother').
  | At each grid point, the set of atoms used to build the partition table is smoothly restricted to
  | only those atoms whose free-atom density would be non-zero at that grid point.
  Partitioning for Hartree potential was not defined. Using partition_type for integrals.
  | Adjusted default value of keyword multip_moments_threshold to:       0.10000000E-11
  | This value may affect high angular momentum components of the Hartree potential in periodic systems.
  No q(lm)/r^(l+1) cutoff set for long-range Hartree potential.
  | Using default value of  0.100000E-09 .
  | Verify using the multipole_threshold keyword.
  Defaulting to new monopole extrapolation.
  Density update method: automatic selection selected.
------------------------------------------------------------


------------------------------------------------------------
          Reading geometry description geometry.in.
------------------------------------------------------------
 * Warning! You did not set the 'relativistic' flag in input file 'control.in'.
 * Since you are not attempting to treat any elements beyond Ca(Z=20), FHI-aims
 * will default to 'relativistic none'.
 * You must ensure that this is really what you want!!
 * For example, DO NOT compute total-energy differences between results from
 * different settings of the 'relativistic' flag.
  Input structure read successfully.
  The structure contains       32 atoms,  and a total of        116.000 electrons.

  Input geometry:
  | No unit cell requested.
  | Atomic structure:
  |       Atom                x [A]            y [A]            z [A]
  |    1: Species C             -0.643669         2.021939         0.418912
  |    2: Species C             -0.050642         1.058344         1.430194
  |    3: Species O              1.119718         1.146240         1.792169
  |    4: Species H             -0.009049         2.912182         0.395439
  |    5: Species H             -1.677678         2.315325         0.635305
  |    6: Species H             -0.629828         1.556781        -0.576829
  |    7: Species N             -0.850216         0.054208         1.926719
  |    8: Species C             -2.240604        -0.277613         1.632893
  |    9: Species C             -2.468050        -0.438200         0.105609
  |   10: Species O             -1.698641        -1.120298        -0.568004
  |   11: Species H             -0.334844        -0.590038         2.517731
  |   12: Species H             -2.368746        -1.308516         1.998212
  |   13: Species C             -3.237840         0.603913         2.399870
  |   14: Species H             -2.988264         0.585848         3.467729
  |   15: Species H             -4.267468         0.230526         2.300551
  |   16: Species H             -3.205321         1.653098         2.076549
  |   17: Species N             -3.551239         0.200413        -0.411323
  |   18: Species C             -3.998104         0.052901        -1.801869
  |   19: Species C             -4.546505        -1.389887        -2.007024
  |   20: Species O             -5.592776        -1.672214        -1.417927
  |   21: Species H             -4.200522         0.633821         0.232437
  |   22: Species H             -4.928726         0.634364        -1.853651
  |   23: Species C             -3.016812         0.676388        -2.797630
  |   24: Species H             -3.378391         0.543535        -3.825581
  |   25: Species H             -2.010691         0.256528        -2.718360
  |   26: Species H             -2.951962         1.755126        -2.602823
  |   27: Species N             -3.949532        -2.292459        -2.833392
  |   28: Species C             -2.612715        -2.325868        -3.417786
  |   29: Species H             -4.480952        -3.158190        -2.861352
  |   30: Species H             -2.386033        -3.367682        -3.670142
  |   31: Species H             -1.864574        -1.978674        -2.696553
  |   32: Species H             -2.546256        -1.735131        -4.342537
  |

  | The smallest distance between any two atoms is         1.01184932 AA.
  |
  | The first atom of this pair is atom number                     17 .
  | The second atom of this pair is atom number                    21 .

  Number of empty states per atom not set in control.in - providing a guess from actual geometry.
  | Total number of empty states used during s.c.f. cycle:       71
  If you use a very high smearing, use empty_states (per atom!) in control.in to increase this value.

  Structure-dependent array size parameters: 
  | Maximum number of distinct radial functions  :       40
  | Maximum number of basis functions            :      840
  | Number of Kohn-Sham states (occupied + empty):      129
------------------------------------------------------------

------------------------------------------------------------
          Preparing all fixed parts of the calculation.
------------------------------------------------------------
  Determining machine precision:
    2.225073858507201E-308
  Setting up grids for atomic and cluster calculations.

  Creating wave function, potential, and density for free atoms.

  Species: H

  List of occupied orbitals and eigenvalues:
    n    l              occ      energy [Ha]    energy [eV]
    1    0           1.0000        -0.238382        -6.4867


  Species: C

  List of occupied orbitals and eigenvalues:
    n    l              occ      energy [Ha]    energy [eV]
    1    0           2.0000       -10.041232      -273.2358
    2    0           2.0000        -0.504327       -13.7234
    2    1           2.0000        -0.193750        -5.2722


  Species: N

  List of occupied orbitals and eigenvalues:
    n    l              occ      energy [Ha]    energy [eV]
    1    0           2.0000       -14.129007      -384.4699
    2    0           2.0000        -0.681802       -18.5528
    2    1           3.0000        -0.260543        -7.0897


  Species: O

  List of occupied orbitals and eigenvalues:
    n    l              occ      energy [Ha]    energy [eV]
    1    0           2.0000       -18.898576      -514.2564
    2    0           2.0000        -0.878795       -23.9132
    2    1           4.0000        -0.332075        -9.0362

  Creating fixed part of basis set: Ionic, confined, hydrogenic.
 
  H                    hydrogenic:
 
  List of hydrogenic basis orbitals: 
    n    l      effective z      eigenvalue [eV]  inner max. [A]     outer max. [A]     outer radius [A]   
    2    0         2.100000       -14.9965           0.193243           1.317208           5.373006
    2    1         3.500000       -41.6672           0.602369           0.602369           4.056063
    1    0         0.850000        -9.8292           0.624871           0.624871           5.373006
    2    1         3.700000       -46.5653           0.573622           0.573622           3.910002
    2    0         1.200000        -4.5995           0.334980           2.228188           5.505995
    3    2         7.000000       -74.0753           0.680699           0.680699           3.769201
 
 
  C                    hydrogenic:
 
  List of hydrogenic basis orbitals: 
    n    l      effective z      eigenvalue [eV]  inner max. [A]     outer max. [A]     outer radius [A]   
    2    1         1.700000        -9.8152           1.245706           1.245706           5.401630
    3    2         6.000000       -54.4226           0.792453           0.792453           4.178599
    2    0         4.900000       -81.6681           0.082559           0.562749           3.353238
    4    3         9.800000       -81.6681           0.863254           0.863254           4.028125
    3    1         5.200000       -40.8774           0.305389           1.215618           4.898362
    3    0         4.300000       -27.9508           0.091041           1.610311           5.401630
    5    4        14.400000      -112.8510           0.917666           0.917666           3.883070
    3    2         6.200000       -58.1113           0.763917           0.763917           4.077671
 
 
  N                    hydrogenic:
 
  List of hydrogenic basis orbitals: 
    n    l      effective z      eigenvalue [eV]  inner max. [A]     outer max. [A]     outer radius [A]   
    2    1         1.800000       -11.0118           1.177451           1.177451           5.427479
    3    2         6.800000       -69.9029           0.704619           0.704619           3.854246
    3    0         5.800000       -50.8549           0.067388           1.191934           4.629968
    4    3        10.800000       -99.1854           0.786571           0.786571           3.761152
    3    1         5.800000       -50.8549           0.274880           1.094176           4.518138
    1    0         0.800000        -8.7059           0.662839           0.662839           5.361532
    5    4        16.000000      -139.3222           0.825990           0.825990           3.625711
    3    2         4.900000       -36.2967           0.968267           0.968267           4.862000
 
 
  O                    hydrogenic:
 
  List of hydrogenic basis orbitals: 
    n    l      effective z      eigenvalue [eV]  inner max. [A]     outer max. [A]     outer radius [A]   
    2    1         1.800000       -11.0118           1.178562           1.178562           5.432602
    3    2         7.600000       -87.3182           0.624125           0.624125           3.541477
    3    0         6.400000       -61.9209           0.061167           1.081902           4.306578
    4    3        11.600000      -114.4238           0.731631           0.731631           3.585037
    3    1         6.200000       -58.1113           0.255680           1.030270           4.306578
    3    2         5.600000       -47.4081           0.847233           0.847233           4.413171
    5    4        17.600000      -168.5799           0.749740           0.749740           3.372465
    1    0         0.750000        -7.6499           0.705284           0.705284           5.366593
 

  Adding cutoff potential to free-atom effective potential.
  Creating atomic-like basis functions for current effective potential.

  Species H                   :

  List of atomic basis orbitals and eigenvalues:
    n    l      energy [Ha]    energy [eV]    outer radius [A]
    1    0        -0.238382        -6.4867       5.373006


  Species C                   :

  List of atomic basis orbitals and eigenvalues:
    n    l      energy [Ha]    energy [eV]    outer radius [A]
    1    0       -10.041232      -273.2358       1.934409
    2    0        -0.504327       -13.7234       5.271162
    2    1        -0.193750        -5.2722       5.401630


  Species N                   :

  List of atomic basis orbitals and eigenvalues:
    n    l      energy [Ha]    energy [eV]    outer radius [A]
    1    0       -14.129007      -384.4699       1.637919
    2    0        -0.681802       -18.5528       5.168461
    2    1        -0.260543        -7.0897       5.361532


  Species O                   :

  List of atomic basis orbitals and eigenvalues:
    n    l      energy [Ha]    energy [eV]    outer radius [A]
    1    0       -18.898576      -514.2564       1.415765
    2    0        -0.878795       -23.9132       5.048385
    2    1        -0.332075        -9.0362       5.301386

  Assembling full basis from fixed parts.
  | Species H :   atomic orbital   1 s accepted.
  | Species H :    hydro orbital   2 s accepted.
  | Species H :    hydro orbital   1 s accepted.
  | Species H :    hydro orbital   2 s accepted.
  | Species H :    hydro orbital   2 p accepted.
  | Species H :    hydro orbital   2 p accepted.
  | Species H :    hydro orbital   3 d accepted.
  | Species C :   atomic orbital   1 s accepted.
  | Species C :    hydro orbital   2 s accepted.
  | Species C :   atomic orbital   2 s accepted.
  | Species C :    hydro orbital   3 s accepted.
  | Species C :    hydro orbital   3 p accepted.
  | Species C :   atomic orbital   2 p accepted.
  | Species C :    hydro orbital   2 p accepted.
  | Species C :    hydro orbital   3 d accepted.
  | Species C :    hydro orbital   3 d accepted.
  | Species C :    hydro orbital   4 f accepted.
  | Species C :    hydro orbital   5 g accepted.
  | Species N :   atomic orbital   1 s accepted.
  | Species N :    hydro orbital   3 s accepted.
  | Species N :   atomic orbital   2 s accepted.
  | Species N :    hydro orbital   1 s accepted.
  | Species N :    hydro orbital   3 p accepted.
  | Species N :   atomic orbital   2 p accepted.
  | Species N :    hydro orbital   2 p accepted.
  | Species N :    hydro orbital   3 d accepted.
  | Species N :    hydro orbital   3 d accepted.
  | Species N :    hydro orbital   4 f accepted.
  | Species N :    hydro orbital   5 g accepted.
  | Species O :   atomic orbital   1 s accepted.
  | Species O :    hydro orbital   3 s accepted.
  | Species O :   atomic orbital   2 s accepted.
  | Species O :    hydro orbital   1 s accepted.
  | Species O :    hydro orbital   3 p accepted.
  | Species O :   atomic orbital   2 p accepted.
  | Species O :    hydro orbital   2 p accepted.
  | Species O :    hydro orbital   3 d accepted.
  | Species O :    hydro orbital   3 d accepted.
  | Species O :    hydro orbital   4 f accepted.
  | Species O :    hydro orbital   5 g accepted.
 
  Basis size parameters after reduction:
  | Total number of radial functions:       40
  | Total number of basis functions :      840
 
  Testing on-site integration grid accuracy.
  |  Species  Function  <phi|h_atom|phi> (log., in eV)  <phi|h_atom|phi> (rad., in eV)
           1        1                 -6.4869821809                 -6.4870742227
           1        2                 13.5044133542                 13.5041049177
           1        3                 32.7854418792                 32.7779770519
           1        4                 33.7995553101                 33.7152624900 ***
           1        5                 28.8558651799                 28.8558652046
           1        6                 59.6361831893                 59.6362535845
           1        7                 60.2733718049                 60.2733715484
           2        8               -273.2358277112               -273.2358261765
           2        9                -10.7624923123                -10.7625144012
           2       10                 17.4634079027                 17.4634252127
           2       11                 53.0363661832                 53.0366180446
           2       12                 15.0981351967                 15.0981317714
           2       13                  3.8522181899                  3.8522770949
           2       14                 12.1181835661                 12.1206868578
           2       15                 29.4320778347                 29.4320780959
           2       16                 54.8753777694                 54.8752901936
           2       17                 59.3533975461                 59.3533974833
           2       18                 93.4537491195                 93.4537492066
           3       19               -384.4698526889               -384.4698499465
           3       20                 12.5691022037                 12.5690910168
           3       21                -15.7489097511                -15.7489165588
           3       22                 27.0978334940                 27.0985589490
           3       23                 18.5949116966                 18.5949125562
           3       24                  1.2212828291                  1.2212855301
           3       25                 13.4428926797                 13.4434051125
           3       26                 35.9380614500                 35.9380613666
           3       27                 39.9231532098                 39.9231654735
           3       28                 72.9957335806                 72.9957336833
           3       29                116.4231321147                116.4231321431
           4       30               -514.2564144315               -514.2564099626
           4       31                 15.1726678541                 15.1726530877
           4       32                -21.5447785304                -21.5447874973
           4       33                 14.4944558459                 14.4944698284
           4       34                 20.8882174564                 20.8882178906
           4       35                 -2.4850315908                 -2.4850322289
           4       36                 13.8600193195                 13.8599826966
           4       37                 45.8243383616                 45.8243383675
           4       38                 52.1840606465                 52.1840622440
           4       39                 85.4074185510                 85.4074185819
           4       40                142.0983717302                142.0983717339
 * Note: Onsite integrals marked "***" above are less accurate than
 * onsite_accuracy_threshold =    0.03000 eV. Usually, this is harmless.
 * When in doubt, tighten the "radial" and/or "radial_multiplier" flags to check.

  Preparing densities etc. for the partition functions (integrals / Hartree potential).

  Preparations completed.
  max(cpu_time)          :      0.236 s.
  Wall clock time (cpu1) :      0.233 s.
------------------------------------------------------------

------------------------------------------------------------
          Begin self-consistency loop: Initialization.

          Date     :  20170309, Time     :  185511.576
------------------------------------------------------------

  Initializing index lists of integration centers etc. from given atomic structure:
  | Number of centers in hartree potential         :        32
  | Number of centers in hartree multipole         :        32
  | Number of centers in electron density summation:        32
  | Number of centers in basis integrals           :        32
  | Number of centers in integrals                 :        32
  | Number of centers in hamiltonian               :        32
  Using modified Scalapack Eigenvalue solver (ELPA)
  * Using 32 tasks for Scalapack Eigenvalue solver.
  Detailed listing of tasks and assigned k-points:
  (for non-periodic systems, the "k-point" denotes an internal label only)
   Task     0 k-point     1 on eos366
   Task     1 k-point     1 on eos366
   Task     2 k-point     1 on eos366
   Task     3 k-point     1 on eos366
   Task     4 k-point     1 on eos366
   Task     5 k-point     1 on eos366
   Task     6 k-point     1 on eos366
   Task     7 k-point     1 on eos366
   Task     8 k-point     1 on eos366
   Task     9 k-point     1 on eos366
   Task    10 k-point     1 on eos366
   Task    11 k-point     1 on eos366
   Task    12 k-point     1 on eos366
   Task    13 k-point     1 on eos366
   Task    14 k-point     1 on eos366
   Task    15 k-point     1 on eos366
   Task    16 k-point     1 on eos366
   Task    17 k-point     1 on eos366
   Task    18 k-point     1 on eos366
   Task    19 k-point     1 on eos366
   Task    20 k-point     1 on eos366
   Task    21 k-point     1 on eos366
   Task    22 k-point     1 on eos366
   Task    23 k-point     1 on eos366
   Task    24 k-point     1 on eos366
   Task    25 k-point     1 on eos366
   Task    26 k-point     1 on eos366
   Task    27 k-point     1 on eos366
   Task    28 k-point     1 on eos366
   Task    29 k-point     1 on eos366
   Task    30 k-point     1 on eos366
   Task    31 k-point     1 on eos366
  Tasks:    32 split into      8 X      4 BLACS grid
  Calculating blocksize based on n_basis =          840 max_nprow =            8 max_npcol =            4
  Scalapack blocksize set to:           16
  Required Scalapack workspace - INTEGER:            1 REAL:             1
  Partitioning the integration grid into batches with parallel hashing+maxmin method.
  | Number of batches:     5023
  | Maximal batch size:     197
  | Minimal batch size:      39
  | Average batch size:     105.062
  | Standard deviation of batch sizes:      33.482

  Integration load balanced across    32 MPI tasks.
  Work distribution over tasks is as follows:
  Task     0 has      16515 integration points.
  Task     1 has      16527 integration points.
  Task     2 has      16443 integration points.
  Task     3 has      16461 integration points.
  Task     4 has      16517 integration points.
  Task     5 has      16532 integration points.
  Task     6 has      16511 integration points.
  Task     7 has      16534 integration points.
  Task     8 has      16443 integration points.
  Task     9 has      16446 integration points.
  Task    10 has      16522 integration points.
  Task    11 has      16445 integration points.
  Task    12 has      16526 integration points.
  Task    13 has      16534 integration points.
  Task    14 has      16557 integration points.
  Task    15 has      16519 integration points.
  Task    16 has      16522 integration points.
  Task    17 has      16448 integration points.
  Task    18 has      16550 integration points.
  Task    19 has      16516 integration points.
  Task    20 has      16534 integration points.
  Task    21 has      16445 integration points.
  Task    22 has      16448 integration points.
  Task    23 has      16450 integration points.
  Task    24 has      16451 integration points.
  Task    25 has      16443 integration points.
  Task    26 has      16437 integration points.
  Task    27 has      16424 integration points.
  Task    28 has      16530 integration points.
  Task    29 has      16434 integration points.
  Task    30 has      16530 integration points.
  Task    31 has      16534 integration points.
  Initializing partition tables, free-atom densities, potentials, etc. across the integration grid (initialize_grid_storage).
  | initialize_grid_storage: Actual outermost partition radius vs. multipole_radius_free
  | (-- VB: in principle, multipole_radius_free should be larger, hence this output)
  | Species        1: Confinement radius =              6.000000000000000 AA, multipole_radius_free =              6.071692442739658 AA.
  | Species        1: outer_partition_radius set to              6.071692442739658 AA .
  | Species        2: Confinement radius =              6.000000000000000 AA, multipole_radius_free =              6.029870734432609 AA.
  | Species        2: outer_partition_radius set to              6.029870734432609 AA .
  | Species        3: Confinement radius =              6.000000000000000 AA, multipole_radius_free =              6.058726835495003 AA.
  | Species        3: outer_partition_radius set to              6.058726835495003 AA .
  | Species        4: Confinement radius =              6.000000000000000 AA, multipole_radius_free =              6.064445521808699 AA.
  | Species        4: outer_partition_radius set to              6.064445521808699 AA .
  | Original list of interatomic distances with          32 x         32 entries is created.
  | Net number of integration points:   527728
  | of which are non-zero points    :   413387
  Obtaining max. number of non-zero basis functions in each batch (get_n_compute_maxes).
  | Maximal number of non-zero basis functions:      771 in task     0
  | Maximal number of non-zero basis functions:      783 in task     1
  | Maximal number of non-zero basis functions:      791 in task     2
  | Maximal number of non-zero basis functions:      778 in task     3
  | Maximal number of non-zero basis functions:      792 in task     4
  | Maximal number of non-zero basis functions:      779 in task     5
  | Maximal number of non-zero basis functions:      787 in task     6
  | Maximal number of non-zero basis functions:      785 in task     7
  | Maximal number of non-zero basis functions:      800 in task     8
  | Maximal number of non-zero basis functions:      793 in task     9
  | Maximal number of non-zero basis functions:      794 in task    10
  | Maximal number of non-zero basis functions:      789 in task    11
  | Maximal number of non-zero basis functions:      781 in task    12
  | Maximal number of non-zero basis functions:      788 in task    13
  | Maximal number of non-zero basis functions:      780 in task    14
  | Maximal number of non-zero basis functions:      776 in task    15
  | Maximal number of non-zero basis functions:      797 in task    16
  | Maximal number of non-zero basis functions:      793 in task    17
  | Maximal number of non-zero basis functions:      785 in task    18
  | Maximal number of non-zero basis functions:      772 in task    19
  | Maximal number of non-zero basis functions:      785 in task    20
  | Maximal number of non-zero basis functions:      778 in task    21
  | Maximal number of non-zero basis functions:      788 in task    22
  | Maximal number of non-zero basis functions:      763 in task    23
  | Maximal number of non-zero basis functions:      778 in task    24
  | Maximal number of non-zero basis functions:      778 in task    25
  | Maximal number of non-zero basis functions:      790 in task    26
  | Maximal number of non-zero basis functions:      769 in task    27
  | Maximal number of non-zero basis functions:      772 in task    28
  | Maximal number of non-zero basis functions:      783 in task    29
  | Maximal number of non-zero basis functions:      793 in task    30
  | Maximal number of non-zero basis functions:      792 in task    31
  Selecting the method for density update.
  Loop over occupied states selected for charge density update.
  Integrating Hamiltonian matrix: batch-based integration.
  Time summed over all CPUs for integration: real work       22.276 s, elapsed       23.323 s
  Integrating overlap matrix.
  Time summed over all CPUs for integration: real work       13.563 s, elapsed       14.054 s
  Deallocating overlap matrix.

  Updating Kohn-Sham eigenvalues, eigenvectors, occupation numbers, and Fermi level.
  Solving generalized eigenproblem
  Solving real symmetric generalised eigenvalue problem by standard ScaLAPACK.
  Transforming overlap matrix with ScaLAPACK and checking for singularities.
  : Overlap matrix is nonsingular, using Cholesky decomposition
  | Lowest eigenvalue:  0.853100E-04
  Factoring overlap matrix with Cholesky decomposition
  Using Cholesky factor for transformation
  Using 1-stage real ELPA solver
  Determining occupation numbers for Kohn-Sham eigenstates.
  | Chemical potential (Fermi level) in eV                 : -.95394820E+01
  | Error in electron count due to remaining E_F inaccuracy: 0.00000000E+00
  | Maximum occupation number of highest empty state:  0.00E+00

  Writing Kohn-Sham eigenvalues.

  State    Occupation    Eigenvalue [Ha]    Eigenvalue [eV]
      1       2.00000         -18.974693         -516.32765
      2       2.00000         -18.974156         -516.31306
      3       2.00000         -18.972974         -516.28090
      4       2.00000         -14.255517         -387.91235
      5       2.00000         -14.254535         -387.88564
      6       2.00000         -14.252829         -387.83920
      7       2.00000         -10.171316         -276.77559
      8       2.00000         -10.171199         -276.77241
      9       2.00000         -10.170452         -276.75208
     10       2.00000         -10.166514         -276.64492
     11       2.00000         -10.147202         -276.11943
     12       2.00000         -10.146883         -276.11072
     13       2.00000         -10.135531         -275.80183
     14       2.00000         -10.134404         -275.77118
     15       2.00000         -10.132864         -275.72925
     16       2.00000          -1.134575          -30.87337
     17       2.00000          -1.131417          -30.78742
     18       2.00000          -1.128150          -30.69853
     19       2.00000          -1.016122          -27.65010
     20       2.00000          -1.009648          -27.47392
     21       2.00000          -1.008164          -27.43355
     22       2.00000          -0.887983          -24.16326
     23       2.00000          -0.866218          -23.57099
     24       2.00000          -0.847837          -23.07081
     25       2.00000          -0.818383          -22.26934
     26       2.00000          -0.781933          -21.27749
     27       2.00000          -0.762873          -20.75884
     28       2.00000          -0.707306          -19.24677
     29       2.00000          -0.682463          -18.57076
     30       2.00000          -0.666503          -18.13648
     31       2.00000          -0.643001          -17.49694
     32       2.00000          -0.619035          -16.84479
     33       2.00000          -0.615166          -16.73953
     34       2.00000          -0.601977          -16.38063
     35       2.00000          -0.593394          -16.14707
     36       2.00000          -0.589305          -16.03581
     37       2.00000          -0.566364          -15.41155
     38       2.00000          -0.561008          -15.26579
     39       2.00000          -0.557550          -15.17170
     40       2.00000          -0.554173          -15.07981
     41       2.00000          -0.545891          -14.85446
     42       2.00000          -0.535579          -14.57386
     43       2.00000          -0.533521          -14.51784
     44       2.00000          -0.527816          -14.36261
     45       2.00000          -0.522680          -14.22285
     46       2.00000          -0.520667          -14.16807
     47       2.00000          -0.519351          -14.13226
     48       2.00000          -0.502232          -13.66642
     49       2.00000          -0.493425          -13.42677
     50       2.00000          -0.482531          -13.13033
     51       2.00000          -0.473457          -12.88343
     52       2.00000          -0.471406          -12.82761
     53       2.00000          -0.410324          -11.16548
     54       2.00000          -0.403847          -10.98922
     55       2.00000          -0.400932          -10.90992
     56       2.00000          -0.386934          -10.52901
     57       2.00000          -0.385428          -10.48803
     58       2.00000          -0.382066          -10.39655
     59       0.00000          -0.168630           -4.58865
     60       0.00000          -0.160691           -4.37262
     61       0.00000          -0.155800           -4.23953
     62       0.00000          -0.082920           -2.25637
     63       0.00000          -0.066205           -1.80154
     64       0.00000          -0.059933           -1.63087
     65       0.00000          -0.057023           -1.55167
     66       0.00000          -0.046823           -1.27413
     67       0.00000          -0.043920           -1.19512
     68       0.00000          -0.034209           -0.93088
     69       0.00000          -0.033375           -0.90818
     70       0.00000          -0.021764           -0.59222
     71       0.00000          -0.019849           -0.54012
     72       0.00000          -0.018396           -0.50058
     73       0.00000          -0.012216           -0.33241
     74       0.00000          -0.011985           -0.32612
     75       0.00000          -0.005907           -0.16073
     76       0.00000           0.000973            0.02648
     77       0.00000           0.003755            0.10217
     78       0.00000           0.012133            0.33016
     79       0.00000           0.015028            0.40893
     80       0.00000           0.019095            0.51960
     81       0.00000           0.026034            0.70841
     82       0.00000           0.032310            0.87919
     83       0.00000           0.033726            0.91773
     84       0.00000           0.040170            1.09308
     85       0.00000           0.046276            1.25924
     86       0.00000           0.052401            1.42589
     87       0.00000           0.054153            1.47358
     88       0.00000           0.060824            1.65510
     89       0.00000           0.065546            1.78361
     90       0.00000           0.072082            1.96145
     91       0.00000           0.083023            2.25917
     92       0.00000           0.085206            2.31858
     93       0.00000           0.092688            2.52218
     94       0.00000           0.094502            2.57154
     95       0.00000           0.097308            2.64788
     96       0.00000           0.100405            2.73217
     97       0.00000           0.108206            2.94444
     98       0.00000           0.113263            3.08205
     99       0.00000           0.120183            3.27035
    100       0.00000           0.122783            3.34108
    101       0.00000           0.129012            3.51061
    102       0.00000           0.131044            3.56589
    103       0.00000           0.137077            3.73005
    104       0.00000           0.141081            3.83902
    105       0.00000           0.151095            4.11151
    106       0.00000           0.154333            4.19961
    107       0.00000           0.155358            4.22751
    108       0.00000           0.157024            4.27283
    109       0.00000           0.168734            4.59148
    110       0.00000           0.171646            4.67072
    111       0.00000           0.174385            4.74526
    112       0.00000           0.175829            4.78455
    113       0.00000           0.185413            5.04533
    114       0.00000           0.188479            5.12876
    115       0.00000           0.190849            5.19327
    116       0.00000           0.199468            5.42779
    117       0.00000           0.202398            5.50754
    118       0.00000           0.209997            5.71430
    119       0.00000           0.212218            5.77474
    120       0.00000           0.217385            5.91533
    121       0.00000           0.220076            5.98856
    122       0.00000           0.228218            6.21014
    123       0.00000           0.236227            6.42806
    124       0.00000           0.241520            6.57209
    125       0.00000           0.244067            6.64141
    126       0.00000           0.249596            6.79185
    127       0.00000           0.258193            7.02578
    128       0.00000           0.266783            7.25954
    129       0.00000           0.269912            7.34468

  Highest occupied state (VBM) at    -10.39654577 eV
  | Occupation number:      2.00000000

  Lowest unoccupied state (CBM) at    -4.58864979 eV
  | Occupation number:      0.00000000

  Overall HOMO-LUMO gap:      5.80789597 eV.
  Calculating total energy contributions from superposition of free atom densities.

  Total energy components:
  | Sum of eigenvalues            :        -437.81941088 Ha      -11913.67233110 eV
  | XC energy correction          :         -98.81643867 Ha       -2688.93210744 eV
  | XC potential correction       :         127.01693479 Ha        3456.30665045 eV
  | Free-atom electrostatic energy:        -333.65382863 Ha       -9079.18262068 eV
  | Hartree energy correction     :           0.00000000 Ha           0.00000000 eV
  | vdW energy correction         :           0.00000000 Ha           0.00000000 eV
  | Entropy correction            :          -0.00000000 Ha          -0.00000000 eV
  | ---------------------------
  | Total energy                  :        -743.27274339 Ha      -20225.48040877 eV
  | Total energy, T -> 0          :        -743.27274339 Ha      -20225.48040877 eV  <-- do not rely on this value for anything but (periodic) metals
  | Electronic free energy        :        -743.27274339 Ha      -20225.48040877 eV

  Derived energy quantities:
  | Kinetic energy                :         735.15235331 Ha       20004.51335203 eV
  | Electrostatic energy          :       -1379.60865804 Ha      -37541.06165336 eV
  | Energy correction for multipole
  | error in Hartree potential    :           0.00000000 Ha           0.00000000 eV
  | Sum of eigenvalues per atom                           :        -372.30226035 eV
  | Total energy (T->0) per atom                          :        -632.04626277 eV  <-- do not rely on this value for anything but (periodic) metals
  | Electronic free energy per atom                       :        -632.04626277 eV
  Initialize hartree_potential_storage
  Max. number of atoms included in rho_multipole:           32

  End scf initialization - timings             :  max(cpu_time)    wall_clock(cpu1)
  | Time for scf. initialization               :        1.928 s           1.926 s
  | Boundary condition initialization          :        0.004 s           0.000 s
  | Integration                                :        1.192 s           1.190 s
  | Solution of K.-S. eqns.                    :        0.076 s           0.074 s
  | Grid partitioning                          :        0.320 s           0.310 s
  | Preloading free-atom quantities on grid    :        0.028 s           0.027 s
  | Free-atom superposition energy             :        0.040 s           0.039 s
  | Total energy evaluation                    :        0.000 s           0.001 s
------------------------------------------------------------

------------------------------------------------------------
          Begin self-consistency iteration #    1

  Date     :  20170309, Time     :  185513.503
------------------------------------------------------------
  Evaluating new KS density.
  Integration grid: deviation in total charge (<rho> - N_e) =   4.263256E-14
  Pulay mixing of updated and previous charge densities.

  Evaluating partitioned Hartree potential by multipole expansion.
  | Analytical far-field extrapolation by fixed multipoles:
  | Hartree multipole sum: apparent total charge =   0.379701E-04
  Summing up the Hartree potential.
  Time summed over all CPUs for potential: real work        9.569 s, elapsed        9.828 s
  | RMS charge density error from multipole expansion :   0.105855E-01

  Integrating Hamiltonian matrix: batch-based integration.
  Time summed over all CPUs for integration: real work       21.982 s, elapsed       22.996 s

  Updating Kohn-Sham eigenvalues, eigenvectors, occupation numbers, and Fermi level.
  Solving generalized eigenproblem
  Solving real symmetric generalised eigenvalue problem by standard ScaLAPACK.
  Using Cholesky factor for transformation
  Using 2-stage real ELPA solver
  K-Point:    1, Trafo times: 1-stage=     0.021 s, 2-stage=     0.019 s ==> Using 2-stage solver
  Determining occupation numbers for Kohn-Sham eigenstates.
  | Chemical potential (Fermi level) in eV                 : -.28107697E+01
  | Error in electron count due to remaining E_F inaccuracy: 0.00000000E+00
  | Maximum occupation number of highest empty state:  0.00E+00

  Writing Kohn-Sham eigenvalues.

  State    Occupation    Eigenvalue [Ha]    Eigenvalue [eV]
      1       2.00000         -18.627480         -506.87951
      2       2.00000         -18.610201         -506.40933
      3       2.00000         -18.599287         -506.11236
      4       2.00000         -14.003518         -381.05512
      5       2.00000         -13.979447         -380.40010
      6       2.00000         -13.978967         -380.38706
      7       2.00000         -10.063438         -273.84009
      8       2.00000         -10.052403         -273.53979
      9       2.00000         -10.041590         -273.24556
     10       2.00000          -9.974323         -271.41515
     11       2.00000          -9.965026         -271.16215
     12       2.00000          -9.883431         -268.94183
     13       2.00000          -9.853072         -268.11574
     14       2.00000          -9.842234         -267.82082
     15       2.00000          -9.836485         -267.66437
     16       2.00000          -0.972644          -26.46699
     17       2.00000          -0.956356          -26.02376
     18       2.00000          -0.946110          -25.74496
     19       2.00000          -0.874892          -23.80702
     20       2.00000          -0.856534          -23.30748
     21       2.00000          -0.849516          -23.11652
     22       2.00000          -0.746936          -20.32518
     23       2.00000          -0.715915          -19.48105
     24       2.00000          -0.691541          -18.81780
     25       2.00000          -0.666769          -18.14370
     26       2.00000          -0.642180          -17.47461
     27       2.00000          -0.625181          -17.01205
     28       2.00000          -0.583393          -15.87492
     29       2.00000          -0.554628          -15.09220
     30       2.00000          -0.540519          -14.70827
     31       2.00000          -0.512258          -13.93926
     32       2.00000          -0.489501          -13.31999
     33       2.00000          -0.466689          -12.69926
     34       2.00000          -0.456181          -12.41331
     35       2.00000          -0.445175          -12.11383
     36       2.00000          -0.439865          -11.96934
     37       2.00000          -0.425015          -11.56526
     38       2.00000          -0.421571          -11.47152
     39       2.00000          -0.412770          -11.23203
     40       2.00000          -0.400072          -10.88651
     41       2.00000          -0.394552          -10.73632
     42       2.00000          -0.390129          -10.61596
     43       2.00000          -0.387904          -10.55540
     44       2.00000          -0.385521          -10.49055
     45       2.00000          -0.374277          -10.18459
     46       2.00000          -0.366172           -9.96404
     47       2.00000          -0.362214           -9.85634
     48       2.00000          -0.356488           -9.70054
     49       2.00000          -0.349418           -9.50815
     50       2.00000          -0.338565           -9.21283
     51       2.00000          -0.337211           -9.17598
     52       2.00000          -0.331085           -9.00928
     53       2.00000          -0.249247           -6.78237
     54       2.00000          -0.225643           -6.14007
     55       2.00000          -0.224593           -6.11149
     56       2.00000          -0.217532           -5.91933
     57       2.00000          -0.208592           -5.67609
     58       2.00000          -0.199026           -5.41576
     59       0.00000          -0.062578           -1.70282
     60       0.00000          -0.049955           -1.35934
     61       0.00000          -0.038363           -1.04391
     62       0.00000          -0.034116           -0.92835
     63       0.00000          -0.019764           -0.53781
     64       0.00000          -0.015615           -0.42491
     65       0.00000          -0.008801           -0.23949
     66       0.00000          -0.001500           -0.04082
     67       0.00000           0.004529            0.12324
     68       0.00000           0.017427            0.47422
     69       0.00000           0.020638            0.56158
     70       0.00000           0.027075            0.73676
     71       0.00000           0.031232            0.84987
     72       0.00000           0.038074            1.03605
     73       0.00000           0.042017            1.14335
     74       0.00000           0.047597            1.29517
     75       0.00000           0.061540            1.67458
     76       0.00000           0.068814            1.87252
     77       0.00000           0.071053            1.93344
     78       0.00000           0.077668            2.11346
     79       0.00000           0.085748            2.33332
     80       0.00000           0.091538            2.49088
     81       0.00000           0.093023            2.53128
     82       0.00000           0.096659            2.63021
     83       0.00000           0.101088            2.75075
     84       0.00000           0.105881            2.88116
     85       0.00000           0.109859            2.98942
     86       0.00000           0.123937            3.37248
     87       0.00000           0.125215            3.40728
     88       0.00000           0.127334            3.46494
     89       0.00000           0.130419            3.54888
     90       0.00000           0.134870            3.67000
     91       0.00000           0.145825            3.96809
     92       0.00000           0.151746            4.12921
     93       0.00000           0.156260            4.25204
     94       0.00000           0.161574            4.39664
     95       0.00000           0.167811            4.56636
     96       0.00000           0.169605            4.61518
     97       0.00000           0.174867            4.75838
     98       0.00000           0.177767            4.83728
     99       0.00000           0.181236            4.93169
    100       0.00000           0.188040            5.11682
    101       0.00000           0.191009            5.19761
    102       0.00000           0.195975            5.33275
    103       0.00000           0.200337            5.45145
    104       0.00000           0.201192            5.47472
    105       0.00000           0.207021            5.63332
    106       0.00000           0.211046            5.74285
    107       0.00000           0.217479            5.91791
    108       0.00000           0.218874            5.95585
    109       0.00000           0.228359            6.21396
    110       0.00000           0.235670            6.41291
    111       0.00000           0.237795            6.47072
    112       0.00000           0.241931            6.58327
    113       0.00000           0.245568            6.68225
    114       0.00000           0.248886            6.77254
    115       0.00000           0.258748            7.04088
    116       0.00000           0.262608            7.14592
    117       0.00000           0.263862            7.18006
    118       0.00000           0.273642            7.44618
    119       0.00000           0.276022            7.51094
    120       0.00000           0.284728            7.74783
    121       0.00000           0.287016            7.81010
    122       0.00000           0.296810            8.07661
    123       0.00000           0.302718            8.23737
    124       0.00000           0.305116            8.30264
    125       0.00000           0.308469            8.39387
    126       0.00000           0.318990            8.68015
    127       0.00000           0.329724            8.97224
    128       0.00000           0.333135            9.06505
    129       0.00000           0.341324            9.28790

  Highest occupied state (VBM) at     -5.41576201 eV
  | Occupation number:      2.00000000

  Lowest unoccupied state (CBM) at    -1.70282061 eV
  | Occupation number:      0.00000000

  Overall HOMO-LUMO gap:      3.71294141 eV.

  Total energy components:
  | Sum of eigenvalues            :        -417.40256686 Ha      -11358.10173814 eV
  | XC energy correction          :        -100.74836923 Ha       -2741.50261288 eV
  | XC potential correction       :         129.52211338 Ha        3524.47602831 eV
  | Free-atom electrostatic energy:        -333.65382863 Ha       -9079.18262068 eV
  | Hartree energy correction     :         -20.41923293 Ha        -555.63559843 eV
  | vdW energy correction         :           0.00000000 Ha           0.00000000 eV
  | Entropy correction            :          -0.00000000 Ha          -0.00000000 eV
  | ---------------------------
  | Total energy                  :        -742.70188427 Ha      -20209.94654182 eV
  | Total energy, T -> 0          :        -742.70188427 Ha      -20209.94654182 eV  <-- do not rely on this value for anything but (periodic) metals
  | Electronic free energy        :        -742.70188427 Ha      -20209.94654182 eV

  Derived energy quantities:
  | Kinetic energy                :         744.02871885 Ha       20246.05154769 eV
  | Electrostatic energy          :       -1385.98223389 Ha      -37714.49547663 eV
  | Energy correction for multipole
  | error in Hartree potential    :          -0.04177429 Ha          -1.13673615 eV
  | Sum of eigenvalues per atom                           :        -354.94067932 eV
  | Total energy (T->0) per atom                          :        -631.56082943 eV  <-- do not rely on this value for anything but (periodic) metals
  | Electronic free energy per atom                       :        -631.56082943 eV

  Self-consistency convergence accuracy:
  | Change of charge density      :  0.9042E+00
  | Change of sum of eigenvalues  :  0.5556E+03 eV
  | Change of total energy        :  0.1553E+02 eV

  End self-consistency iteration #     1       :  max(cpu_time)    wall_clock(cpu1)
  | Time for this iteration                    :        1.576 s           1.576 s
  | Charge density update                      :        0.496 s           0.496 s
[...]
   ----------------------------------------------------------------
   Total forces(  20)            :  0.276667E-02  0.276593E-03 -0.193729E-02
  atom #   21
   Hellmann-Feynman              :  0.136602E-01 -0.317818E-01 -0.264122E-01
   Ionic forces                  :  0.000000E+00  0.000000E+00  0.000000E+00
   Multipole                     :  0.758702E-02 -0.564838E-02 -0.190338E-01
   Pulay + GGA                   : -0.300757E-01  0.359308E-01  0.491188E-01
   Van der Waals                 :  0.115871E-01  0.126247E-02 -0.639216E-02
   ----------------------------------------------------------------
   Total forces(  21)            :  0.275861E-02 -0.236935E-03 -0.271942E-02
  atom #   22
   Hellmann-Feynman              :  0.313462E-01 -0.397805E-01  0.168218E-01
   Ionic forces                  :  0.000000E+00  0.000000E+00  0.000000E+00
   Multipole                     :  0.789139E-02 -0.614359E-02 -0.225506E-01
   Pulay + GGA                   : -0.429199E-01  0.515861E-01  0.823780E-03
   Van der Waals                 :  0.414139E-02 -0.694623E-02  0.545559E-02
   ----------------------------------------------------------------
   Total forces(  22)            :  0.459071E-03 -0.128428E-02  0.550564E-03
  atom #   23
   Hellmann-Feynman              :  0.955870E+00  0.455911E+00 -0.645154E+00
   Ionic forces                  :  0.000000E+00  0.000000E+00  0.000000E+00
   Multipole                     : -0.318789E+00 -0.170437E+00  0.236757E+00
   Pulay + GGA                   : -0.635459E+00 -0.329381E+00  0.404836E+00
   Van der Waals                 : -0.253197E-02  0.433409E-01  0.427593E-02
   ----------------------------------------------------------------
   Total forces(  23)            : -0.909954E-03 -0.566977E-03  0.714343E-03
  atom #   24
   Hellmann-Feynman              : -0.186396E-01 -0.304235E-02  0.477185E-01
   Ionic forces                  :  0.000000E+00  0.000000E+00  0.000000E+00
   Multipole                     :  0.309538E-01  0.681180E-02  0.580665E-02
   Pulay + GGA                   : -0.165099E-01 -0.910026E-02 -0.543615E-01
   Van der Waals                 :  0.479759E-02  0.618069E-02  0.948974E-03
   ----------------------------------------------------------------
   Total forces(  24)            :  0.601941E-03  0.849886E-03  0.112580E-03
  atom #   25
   Hellmann-Feynman              : -0.348493E-01 -0.147488E-01  0.234200E-01
   Ionic forces                  :  0.000000E+00  0.000000E+00  0.000000E+00
   Multipole                     : -0.167705E-01  0.134017E-01 -0.122767E-01
   Pulay + GGA                   :  0.451297E-01 -0.139620E-01 -0.672530E-02
   Van der Waals                 :  0.549995E-02  0.156411E-01 -0.484813E-02
   ----------------------------------------------------------------
   Total forces(  25)            : -0.990114E-03  0.332074E-03 -0.430186E-03
  atom #   26
   Hellmann-Feynman              : -0.353142E-01 -0.513260E-01  0.121225E-01
   Ionic forces                  :  0.000000E+00  0.000000E+00  0.000000E+00
   Multipole                     :  0.260943E-01 -0.448586E-02 -0.243012E-01
   Pulay + GGA                   :  0.231610E-03  0.609550E-01  0.604503E-02
   Van der Waals                 :  0.865840E-02 -0.560840E-02  0.644727E-02
   ----------------------------------------------------------------
   Total forces(  26)            : -0.329902E-03 -0.465225E-03  0.313649E-03
  atom #   27
   Hellmann-Feynman              : -0.167687E+01  0.574346E+00 -0.603504E+00
   Ionic forces                  :  0.000000E+00  0.000000E+00  0.000000E+00
   Multipole                     : -0.148158E+00  0.434035E-01  0.113023E+00
   Pulay + GGA                   :  0.181849E+01 -0.624193E+00  0.475900E+00
   Van der Waals                 :  0.370719E-02  0.613741E-02  0.143569E-01
   ----------------------------------------------------------------
   Total forces(  27)            : -0.283000E-02 -0.306226E-03 -0.224102E-03
  atom #   28
   Hellmann-Feynman              :  0.242449E+01 -0.113719E+00 -0.696788E+00
   Ionic forces                  :  0.000000E+00  0.000000E+00  0.000000E+00
   Multipole                     : -0.157444E+00  0.157776E-01  0.821594E-01
   Pulay + GGA                   : -0.226671E+01  0.120376E+00  0.615155E+00
   Van der Waals                 :  0.894929E-03 -0.223466E-01 -0.642462E-03
   ----------------------------------------------------------------
   Total forces(  28)            :  0.123652E-02  0.875408E-04 -0.116267E-03
  atom #   29
   Hellmann-Feynman              : -0.516939E-02  0.669334E-01  0.456007E-01
   Ionic forces                  :  0.000000E+00  0.000000E+00  0.000000E+00
   Multipole                     :  0.306095E-01 -0.151043E-01 -0.334661E-01
   Pulay + GGA                   : -0.267942E-01 -0.609946E-01 -0.139374E-01
   Van der Waals                 :  0.275229E-02  0.917011E-02  0.277232E-02
   ----------------------------------------------------------------
   Total forces(  29)            :  0.139824E-02  0.462526E-05  0.969532E-03
  atom #   30
   Hellmann-Feynman              : -0.389252E-01  0.375778E-01  0.244720E-01
   Ionic forces                  :  0.000000E+00  0.000000E+00  0.000000E+00
   Multipole                     :  0.328775E-01  0.205775E-01 -0.109095E-01
   Pulay + GGA                   :  0.563916E-02 -0.640828E-01 -0.186697E-01
   Van der Waals                 : -0.461686E-03  0.673970E-02  0.409974E-02
   ----------------------------------------------------------------
   Total forces(  30)            : -0.870211E-03  0.812258E-03 -0.100743E-02
  atom #   31
   Hellmann-Feynman              : -0.522145E-01 -0.202796E-01  0.252470E-01
   Ionic forces                  :  0.000000E+00  0.000000E+00  0.000000E+00
   Multipole                     : -0.478267E-03  0.441929E-02 -0.352155E-01
   Pulay + GGA                   :  0.454283E-01  0.207449E-01  0.737782E-02
   Van der Waals                 :  0.665599E-02 -0.571424E-02  0.198058E-02
   ----------------------------------------------------------------
   Total forces(  31)            : -0.608478E-03 -0.829631E-03 -0.610078E-03
  atom #   32
   Hellmann-Feynman              : -0.307697E-01 -0.147916E-01  0.383582E-01
   Ionic forces                  :  0.000000E+00  0.000000E+00  0.000000E+00
   Multipole                     :  0.146419E-01 -0.915868E-02  0.221385E-01
   Pulay + GGA                   :  0.160239E-01  0.335760E-01 -0.573969E-01
   Van der Waals                 : -0.121986E-03 -0.991164E-02 -0.135767E-02
   ----------------------------------------------------------------
   Total forces(  32)            : -0.225897E-03 -0.285880E-03  0.174212E-02

  Timings for VdW correction (Tkatchenko-Scheffler 2009 or later):
  | CPU time:        0.124 s, Wall clock time:        0.125 s.
  Removing unitary transformations (pure translations, rotations) from forces on atoms.
  Atomic forces before filtering:
  | Net force on center of mass :  -0.641545E-03  0.780055E-03  0.162256E-03 eV/A
  | Net torque on center of mass:   0.125778E-02  0.212740E-02  0.450521E-04 eV
  Atomic forces after filtering:
  | Net force on center of mass :   0.566230E-18  0.609787E-18  0.000000E+00 eV/A
  | Net torque on center of mass:   0.184392E-17  0.567580E-18 -0.138294E-17 eV

  Energy and forces in a compact form:
  | Total energy uncorrected      :         -0.202082890245119E+05 eV
  | Total energy corrected        :         -0.202082890245119E+05 eV  <-- do not rely on this value for anything but (periodic) metals
  | Electronic free energy        :         -0.202082890245119E+05 eV
  Total atomic forces (unitary forces cleaned) [eV/Ang]:
  |   1         -0.176425516056198E-03         -0.685376558503120E-03          0.104567689447127E-02
  |   2          0.421081502301785E-02          0.320377559317423E-03          0.163032565266847E-02
  |   3         -0.320032300117618E-02         -0.817684781168276E-03         -0.137255866992925E-02
  |   4         -0.126663315541939E-03         -0.177710378321078E-03         -0.545165942548381E-03
  |   5          0.122914401187840E-02         -0.214311146874096E-03          0.376578878135380E-03
  |   6          0.242355137010601E-03         -0.734749685923838E-04          0.686288560837004E-03
  |   7         -0.347789473606481E-03          0.284815171099018E-02          0.800743855767442E-03
  |   8         -0.415796351873479E-03         -0.542154694541150E-03          0.250341192114989E-02
  |   9          0.206839509194246E-02         -0.755290557261381E-03         -0.270391357093219E-02
  |  10         -0.207447845732642E-02          0.167987238455893E-02          0.219783560980407E-02
  |  11         -0.115789234860291E-02          0.600950470573907E-03         -0.126194620879544E-02
  |  12          0.532607686554056E-03          0.102287257581501E-02         -0.547384091856305E-03
  |  13          0.540085774663981E-03         -0.213058476385111E-03         -0.212618446054120E-03
  |  14          0.186200733005423E-03         -0.503921071839638E-03         -0.322450572454358E-03
  |  15          0.185930544117726E-03          0.280817082523445E-03          0.136035005328543E-03
  |  16         -0.513094791478207E-03         -0.390237454796181E-03          0.679201334454252E-03
  |  17         -0.135257232156542E-02         -0.910669309229413E-03          0.269630568708193E-02
  |  18         -0.627779506179851E-03          0.171844817016037E-02         -0.270930291430922E-02
  |  19         -0.216726809134341E-02         -0.110778390806312E-02         -0.332424380977405E-03
  |  20          0.278731094585705E-02          0.263245466343191E-03         -0.196418544076496E-02
  |  21          0.277431958975174E-02         -0.245767063638424E-03         -0.274846186391165E-02
  |  22          0.498082880671279E-03         -0.130485618197895E-02          0.513383045818105E-03
  |  23         -0.860152946427368E-03         -0.605989178036238E-03          0.698193731988849E-03
  |  24          0.662445820700018E-03          0.805102364707259E-03          0.934123632775553E-04
  |  25         -0.943655671770936E-03          0.287780814750299E-03         -0.431875601247385E-03
  |  26         -0.275962495815168E-03         -0.503122484691390E-03          0.289946315278674E-03
  |  27         -0.279717475479431E-02         -0.340052887717302E-03         -0.227886264111249E-03
  |  28          0.127567016680114E-02          0.414043369754326E-04         -0.104864394483451E-03
  |  29          0.142630375575339E-02         -0.263061117395497E-04          0.966454833005444E-03
  |  30         -0.834335731175541E-03          0.762858404883077E-03         -0.985504188145165E-03
  |  31         -0.575346728852731E-03         -0.874612316692331E-03         -0.592983731656150E-03
  |  32         -0.172955658138568E-03         -0.339501811529375E-03          0.174973259310980E-02

  ------------------------------------ 
  Start decomposition of the XC Energy 
  ------------------------------------ 
  Hartree-Fock part   :          0.000000000 Ha              0.000000000 eV
  ------------------------------------ 
  X Energy            :        -96.979630253 Ha          -2638.950007491 eV
  C Energy GGA        :         -3.869004882 Ha           -105.280979483 eV
  Total XC Energy     :       -100.848635136 Ha          -2744.230986973 eV
  LDA X and C from self-consistent density 
  X Energy LDA        :        -87.997035551 Ha          -2394.521169233 eV
  C Energy LDA        :         -7.531989040 Ha           -204.955849827 eV
  ------------------------------------ 
  End decomposition of the XC Energy 
  ------------------------------------ 
   
  ESP charge fitting starts.
  | Calculation :  00000001  of  00000001
  | Full density
  Computing multipole expansion for total density.
  Generating points for esp charges.
  Partitioning the integration grid into batches with parallel hashing+maxmin method.
  | Number of batches:     3916
  | Maximal batch size:     200
  | Minimal batch size:      51
  | Average batch size:     124.533
  | Standard deviation of batch sizes:      16.633

  Integration load balanced across    32 MPI tasks.
  Work distribution over tasks is as follows:
  Initializing partition tables, free-atom densities, potentials, etc. across the integration grid (initialize_grid_storage).
  | Original list of interatomic distances with          32 x         32 entries is created.
  | Net number of integration points:   487673
  | of which are non-zero points    :   487673
  Summing up potential from multipole expanded  density.
  Summing up the Hartree potential.
  Time summed over all CPUs for potential: real work        6.396 s, elapsed        6.711 s
  Fitting esp charges to potential.
  |
  | ESP charges fitted to the electrostatic potential :
  |
  | Atom         1: C, ESP charge:      0.18348669
  |
  | Atom         2: C, ESP charge:     -0.60057809
  |
  | Atom         3: O, ESP charge:      0.54447819
  |
  | Atom         4: H, ESP charge:     -0.07884530
  |
  | Atom         5: H, ESP charge:     -0.02427773
  |
  | Atom         6: H, ESP charge:     -0.06027528
  |
  | Atom         7: N, ESP charge:      0.69050747
  |
  | Atom         8: C, ESP charge:     -0.41683493
  |
  | Atom         9: C, ESP charge:     -0.65458438
  |
  | Atom        10: O, ESP charge:      0.60616960
  |
  | Atom        11: H, ESP charge:     -0.34143787
  |
  | Atom        12: H, ESP charge:     -0.02217082
  |
  | Atom        13: C, ESP charge:      0.48993663
  |
  | Atom        14: H, ESP charge:     -0.14350559
  |
  | Atom        15: H, ESP charge:     -0.10146817
  |
  | Atom        16: H, ESP charge:     -0.13602242
  |
  | Atom        17: N, ESP charge:      0.61660030
  |
  | Atom        18: C, ESP charge:     -0.59526859
  |
  | Atom        19: C, ESP charge:     -0.12396706
  |
  | Atom        20: O, ESP charge:      0.50107041
  |
  | Atom        21: H, ESP charge:     -0.27077642
  |
  | Atom        22: H, ESP charge:     -0.04903105
  |
  | Atom        23: C, ESP charge:      0.85432052
  |
  | Atom        24: H, ESP charge:     -0.22193010
  |
  | Atom        25: H, ESP charge:     -0.28163554
  |
  | Atom        26: H, ESP charge:     -0.18369570
  |
  | Atom        27: N, ESP charge:      0.14095996
  |
  | Atom        28: C, ESP charge:      0.54564877
  |
  | Atom        29: H, ESP charge:     -0.29120500
  |
  | Atom        30: H, ESP charge:     -0.19460566
  |
  | Atom        31: H, ESP charge:     -0.23413062
  |
  | Atom        32: H, ESP charge:     -0.14693222

  RRMS:       0.00566011

  Done.

------------------------------------------------------------------------------
  Final output of selected total energy values:

  The following output summarizes some interesting total energy values
  at the end of a run (AFTER all relaxation, molecular dynamics, etc.).

  | Total energy of the DFT / Hartree-Fock s.c.f. calculation      :         -20208.289024512 eV
  | Final zero-broadening corrected energy (caution - metals only) :         -20208.289024512 eV
  | For reference only, the value of 1 Hartree used in FHI-aims is :             27.211384500 eV

  Before relying on these values, please be sure to understand exactly which
  total energy value is referred to by a given number. Different objects may
  all carry the same name 'total energy'. Definitions:

  Total energy of the DFT / Hartree-Fock s.c.f. calculation:
  | Note that this energy does not include ANY quantities calculated after the
  | s.c.f. cycle, in particular not ANY RPA, MP2, etc. many-body perturbation terms.

  Final zero-broadening corrected energy:
  | For metallic systems only, a broadening of the occupation numbers at the Fermi
  | level can be extrapolated back to zero broadening by an electron-gas inspired
  | formula. For all systems that are not real metals, this value can be
  | meaningless and should be avoided.

------------------------------------------------------------------------------
  Methods described in the following list of references were used in this FHI-aims run.
  If you publish the results, please make sure to cite these reference if they apply.
  FHI-aims is an academic code, and for our developers (often, Ph.D. students
  and postdocs), scientific credit in the community is essential.
  Thank you for helping us!

  For any use of FHI-aims, please cite:

    Volker Blum, Ralf Gehrke, Felix Hanke, Paula Havu, Ville Havu,
    Xinguo Ren, Karsten Reuter, and Matthias Scheffler
    'Ab initio molecular simulations with numeric atom-centered orbitals'
    Computer Physics Communications 180, 2175-2196 (2009)
    http://dx.doi.org/10.1016/j.cpc.2009.06.022


  The scalable eigensolver library ELPA was used in your run.
  ELPA is essential especially for large systems on hundreds or thousands of CPUs.
  For ELPA, please cite:

    Andreas Marek, Volker Blum, Rainer Johanni, Ville Havu, Bruno Lang,
    Thomas Auckenthaler, Alexander Heinecke, Hans-Joachim Bungartz, and Hermann Lederer,
    'The ELPA Library - Scalable Parallel Eigenvalue Solutions
    for Electronic Structure Theory and Computational Science'
    The Journal of Physics: Condensed Matter 26, 213201 (2014).
    http://dx.doi.org/10.1088/0953-8984/26/21/213201


  For ELPA's efficient two-stage tridiagonalization used in your run, please cite:

    T. Auckenthaler, V. Blum, H.-J. Bungartz, T. Huckle, R. Johanni, L. Kraemer,
    B. Lang, H. Lederer, and P. R. Willems,
    'Parallel solution of partial symmetric eigenvalue problems'
    'from  electronic structure calculations'
    Parallel Computing 37, 783-794 (2011).
    http://dx.doi.org/10.1016/j.parco.2011.05.002


  For the real-space grid partitioning and parallelization used in this calculation, please cite:

    Ville Havu, Volker Blum, Paula Havu, and Matthias Scheffler,
    'Efficient O(N) integration for all-electron electronic structure calculation'
    'using numerically tabulated basis functions'
    Journal of Computational Physics 228, 8367-8379 (2009).
    http://dx.doi.org/10.1016/j.jcp.2009.08.008

  Of course, there are many other important community references, e.g., those cited in the
  above references. Our list is limited to references that describe implementations in the
  FHI-aims code. The reason is purely practical (length of this list) - please credit others as well.

------------------------------------------------------------
          Leaving FHI-aims.
          Date     :  20170309, Time     :  185541.741

          Computational steps:
          | Number of self-consistency cycles          :           14

          Detailed time accounting                     :  max(cpu_time)    wall_clock(cpu1)
          | Total time                                 :       31.110 s          31.250 s
          | Preparation time                           :        0.236 s           0.233 s
          | Grid partitioning                          :        0.320 s           0.310 s
          | Preloading free-atom quantities on grid    :        0.028 s           0.027 s
          | Free-atom superposition energy             :        0.040 s           0.039 s
          | Total time for integrations                :       11.413 s          11.395 s
          | Total time for solution of K.-S. equations :        0.528 s           0.495 s
          | Total time for density & force components  :        9.845 s           9.819 s
          | Total time for mixing                      :        0.128 s           0.105 s
          | Total time for Hartree multipole update    :        0.064 s           0.060 s
          | Total time for Hartree multipole sum       :        6.372 s           6.352 s
          | Total time for total energy evaluation     :        0.024 s           0.019 s
          | Total time for vdW correction              :        0.124 s           0.125 s

          Have a nice day.
------------------------------------------------------------
