  MPI-parallelism will be employed.
------------------------------------------------------------
          Invoking FHI-aims ...
          Version 150427
          Git rev.: 9dd23e0 BL: Update Version stamp
          Compiled on 2015/11/03 at 22:05:20 on host eos03.

          When using FHI-aims, please cite the following reference:

          Volker Blum, Ralf Gehrke, Felix Hanke, Paula Havu,
          Ville Havu, Xinguo Ren, Karsten Reuter, and Matthias Scheffler,
          'Ab Initio Molecular Simulations with Numeric Atom-Centered Orbitals: FHI-aims',
          Computer Physics Communications 180, 2175-2196 (2009)

          For any questions about FHI-aims, please visit the aimsclub website
          with its forums and wiki. Contributions to both the forums and the
          wiki are warmly encouraged - they are for you, and everyone is welcome there.

------------------------------------------------------------

  Date     :  20170309, Time     :  180325.294
  Time zero on CPU 1             :   0.352022000000000E+00  s.
  Internal wall clock time zero  :           258314605.294  s.

  Using       32 parallel tasks.
  Task        0 on host eos383 reporting.
  Task        1 on host eos383 reporting.
  Task        2 on host eos383 reporting.
  Task        3 on host eos383 reporting.
  Task        4 on host eos383 reporting.
  Task        5 on host eos383 reporting.
  Task        6 on host eos383 reporting.
  Task        7 on host eos383 reporting.
  Task        8 on host eos383 reporting.
  Task        9 on host eos383 reporting.
  Task       10 on host eos383 reporting.
  Task       11 on host eos383 reporting.
  Task       12 on host eos383 reporting.
  Task       13 on host eos383 reporting.
  Task       14 on host eos383 reporting.
  Task       15 on host eos383 reporting.
  Task       16 on host eos383 reporting.
  Task       17 on host eos383 reporting.
  Task       18 on host eos383 reporting.
  Task       19 on host eos383 reporting.
  Task       20 on host eos383 reporting.
  Task       21 on host eos383 reporting.
  Task       22 on host eos383 reporting.
  Task       23 on host eos383 reporting.
  Task       24 on host eos383 reporting.
  Task       25 on host eos383 reporting.
  Task       26 on host eos383 reporting.
  Task       27 on host eos383 reporting.
  Task       28 on host eos383 reporting.
  Task       29 on host eos383 reporting.
  Task       30 on host eos383 reporting.
  Task       31 on host eos383 reporting.

  Performing system and environment tests:
  | Environment variable OMP_NUM_THREADS correctly set to 1.
  | Stacksize not measured: no C compiler
  | Checking for scalapack...
  | Testing pdtran()...
  | All pdtran() tests passed.

  Obtaining array dimensions for all initial allocations:
  
  -----------------------------------------------------------------------
  Parsing control.in (first pass over file, find array dimensions only).
  The contents of control.in will be repeated verbatim below
  unless switched off by setting 'verbatim_writeout .false.' .
  in the first line of control.in .
  -----------------------------------------------------------------------
  
  #########################################################################################
  #
  # Input for System
  #
  #########################################################################################
  #
  #
  #  Physical model
  #
    xc                 pbe
    vdw_correction_hirshfeld
    spin               none
    charge             0.
  #
  #  SCF convergence
  #
    occupation_type    gaussian 0.05
    mixer              pulay
      n_max_pulay        10
      charge_mix_param   0.5
    sc_accuracy_rho    1E-4
    sc_accuracy_eev    1E-2
    sc_accuracy_etot   1E-5
    sc_accuracy_forces 1E-4
    sc_iter_limit      1000
  #
  #  ESP charge
  #
    output esp
    esp equal_grid_n 80 80 80
  #
  #
  ################################################################################
  #
  #  FHI-aims code project
  # Volker Blum, Fritz Haber Institute Berlin, 2009
  #
  #  Suggested "tight" defaults for H atom (to be pasted into control.in file)
  #
  ################################################################################
    species        H
  #     global species definitions
      nucleus             1
      mass                1.00794
  #
      l_hartree           6
  #
      cut_pot             4.0  2.0  1.0
      basis_dep_cutoff    1e-4
  #
      radial_base         24 7.0
      radial_multiplier   2
      angular_grids       specified
        division   0.1930   50
        division   0.3175  110
        division   0.4293  194
        division   0.5066  302
        division   0.5626  434
  #      division   0.5922  590
  #      division   0.6227  974
  #      division   0.6868 1202
  #      outer_grid  770
        outer_grid  434
  ################################################################################
  #
  #  Definition of "minimal" basis
  #
  ################################################################################
  #     valence basis states
      valence      1  s   1.
  #     ion occupancy
      ion_occ      1  s   0.5
  ################################################################################
  #
  #  Suggested additional basis functions. For production calculations,
  #  uncomment them one after another (the most important basis functions are
  #  listed first).
  #
  #  Basis constructed for dimers: 0.5 A, 0.7 A, 1.0 A, 1.5 A, 2.5 A
  #
  ################################################################################
  #  "First tier" - improvements: -1014.90 meV to -62.69 meV
       hydro 2 s 2.1
       hydro 2 p 3.5
  #  "Second tier" - improvements: -12.89 meV to -1.83 meV
       hydro 1 s 0.85
       hydro 2 p 3.7
       hydro 2 s 1.2
       hydro 3 d 7
  #  "Third tier" - improvements: -0.25 meV to -0.12 meV
  #     hydro 4 f 11.2
  #     hydro 3 p 4.8
  #     hydro 4 d 9
  #     hydro 3 s 3.2
  ################################################################################
  #
  # For methods that use the localized form of the "resolution of identity" for
  # the two-electron Coulomb operator (RI_method LVL), particularly Hartree-Fock and
  # hybrid density functional calculations, the highest accuracy can be obtained by
  # uncommenting the line beginning with "for_aux"  below, thus adding an extra g radial
  # function to the construction of the product basis set for the expansion.
  # See Ref. New J. Phys. 17, 093020 (2015) for more information, particularly Figs. 1 and 6.
  #
  ################################################################################
  #
  # for_aux hydro 5 g 6.0
  ################################################################################
  #
  #  FHI-aims code project
  # Volker Blum, Fritz Haber Institute Berlin, 2009
  #
  #  Suggested "tight" defaults for C atom (to be pasted into control.in file)
  #
  ################################################################################
    species        C
  #     global species definitions
      nucleus             6
      mass                12.0107
  #
      l_hartree           6
  #
      cut_pot             4.0  2.0  1.0
      basis_dep_cutoff    1e-4
  #
      radial_base         34 7.0
      radial_multiplier   2
      angular_grids specified
        division   0.2187   50
        division   0.4416  110
        division   0.6335  194
        division   0.7727  302
        division   0.8772  434
  #      division   0.9334  590
  #      division   0.9924  770
  #      division   1.0230  974
  #      division   1.5020 1202
  #     outer_grid  974
        outer_grid  434
  ################################################################################
  #
  #  Definition of "minimal" basis
  #
  ################################################################################
  #     valence basis states
      valence      2  s   2.
      valence      2  p   2.
  #     ion occupancy
      ion_occ      2  s   1.
      ion_occ      2  p   1.
  ################################################################################
  #
  #  Suggested additional basis functions. For production calculations,
  #  uncomment them one after another (the most important basis functions are
  #  listed first).
  #
  #  Constructed for dimers: 1.0 A, 1.25 A, 1.5 A, 2.0 A, 3.0 A
  #
  ################################################################################
  #  "First tier" - improvements: -1214.57 meV to -155.61 meV
       hydro 2 p 1.7
       hydro 3 d 6
       hydro 2 s 4.9
  #  "Second tier" - improvements: -67.75 meV to -5.23 meV
       hydro 4 f 9.8
       hydro 3 p 5.2
       hydro 3 s 4.3
       hydro 5 g 14.4
       hydro 3 d 6.2
  #  "Third tier" - improvements: -2.43 meV to -0.60 meV
  #     hydro 2 p 5.6
  #     hydro 2 s 1.4
  #     hydro 3 d 4.9
  #     hydro 4 f 11.2
  #  "Fourth tier" - improvements: -0.39 meV to -0.18 meV
  #     hydro 2 p 2.1
  #     hydro 5 g 16.4
  #     hydro 4 d 13.2
  #     hydro 3 s 13.6
  #     hydro 4 f 17.6
  #  Further basis functions - improvements: -0.08 meV and below
  #     hydro 3 s 2
  #     hydro 3 p 6
  #     hydro 4 d 20
  ################################################################################
  #
  # For methods that use the localized form of the "resolution of identity" for
  # the two-electron Coulomb operator (RI_method LVL), particularly Hartree-Fock and
  # hybrid density functional calculations, the highest accuracy can be obtained by
  # uncommenting the line beginning with "for_aux"  below, thus adding an extra g radial
  # function to the construction of the product basis set for the expansion.
  # See Ref. New J. Phys. 17, 093020 (2015) for more information, particularly Figs. 1 and 6.
  #
  ################################################################################
  #
  # for_aux hydro 5 g 6.0
  ################################################################################
  #
  #  FHI-aims code project
  # Volker Blum, Fritz Haber Institute Berlin, 2009
  #
  #  Suggested "tight" defaults for N atom (to be pasted into control.in file)
  #
  ################################################################################
    species        N
  #     global species definitions
      nucleus             7
      mass                14.0067
  #
      l_hartree           6
  #
      cut_pot             4.0  2.0  1.0
      basis_dep_cutoff    1e-4
  #
      radial_base         35 7.0
      radial_multiplier   2
      angular_grids       specified
        division   0.1841   50
        division   0.3514  110
        division   0.5126  194
        division   0.6292  302
        division   0.6939  434
  #      division   0.7396  590
  #      division   0.7632  770
  #      division   0.8122  974
  #      division   1.1604 1202
  #      outer_grid  974
        outer_grid  434
  ################################################################################
  #
  #  Definition of "minimal" basis
  #
  ################################################################################
  #     valence basis states
      valence      2  s   2.
      valence      2  p   3.
  #     ion occupancy
      ion_occ      2  s   1.
      ion_occ      2  p   2.
  ################################################################################
  #
  #  Suggested additional basis functions. For production calculations,
  #  uncomment them one after another (the most important basis functions are
  #  listed first).
  #
  #  Constructed for dimers: 1.0 A, 1.1 A, 1.5 A, 2.0 A, 3.0 A
  #
  ################################################################################
  #  "First tier" - improvements: -1193.42 meV to -220.60 meV
       hydro 2 p 1.8
       hydro 3 d 6.8
       hydro 3 s 5.8
  #  "Second tier" - improvements: -80.21 meV to -6.86 meV
       hydro 4 f 10.8
       hydro 3 p 5.8
       hydro 1 s 0.8
       hydro 5 g 16
       hydro 3 d 4.9
  #  "Third tier" - improvements: -4.29 meV to -0.53 meV
  #     hydro 3 s 16
  #     ionic 2 p auto
  #     hydro 3 d 6.6
  #     hydro 4 f 11.6
  #  "Fourth tier" - improvements: -0.75 meV to -0.25 meV
  #     hydro 2 p 4.5
  #     hydro 2 s 2.4
  #     hydro 5 g 14.4
  #     hydro 4 d 14.4
  #     hydro 4 f 16.8
  # Further basis functions - -0.21 meV and below
  #     hydro 3 p 14.8
  #     hydro 3 s 4.4
  #     hydro 3 d 19.6
  #     hydro 5 g 12.8
  ################################################################################
  #
  # For methods that use the localized form of the "resolution of identity" for
  # the two-electron Coulomb operator (RI_method LVL), particularly Hartree-Fock and
  # hybrid density functional calculations, the highest accuracy can be obtained by
  # uncommenting the line beginning with "for_aux"  below, thus adding an extra g radial
  # function to the construction of the product basis set for the expansion.
  # See Ref. New J. Phys. 17, 093020 (2015) for more information, particularly Figs. 1 and 6.
  #
  ################################################################################
  #
  # for_aux hydro 5 g 6.0
  ################################################################################
  #
  #  FHI-aims code project
  # Volker Blum, Fritz Haber Institute Berlin, 2009
  #
  #  Suggested "tight" defaults for O atom (to be pasted into control.in file)
  #
  ################################################################################
    species        O
  #     global species definitions
      nucleus             8
      mass                15.9994
  #
      l_hartree           6
  #
      cut_pot             4.0  2.0  1.0
      basis_dep_cutoff    1e-4
  #
      radial_base         36 7.0
      radial_multiplier   2
       angular_grids specified
        division   0.1817   50
        division   0.3417  110
        division   0.4949  194
        division   0.6251  302
        division   0.8014  434
  #      division   0.8507  590
  #      division   0.8762  770
  #      division   0.9023  974
  #      division   1.2339 1202
  #      outer_grid 974
        outer_grid  434
  ################################################################################
  #
  #  Definition of "minimal" basis
  #
  ################################################################################
  #     valence basis states
      valence      2  s   2.
      valence      2  p   4.
  #     ion occupancy
      ion_occ      2  s   1.
      ion_occ      2  p   3.
  ################################################################################
  #
  #  Suggested additional basis functions. For production calculations,
  #  uncomment them one after another (the most important basis functions are
  #  listed first).
  #
  #  Constructed for dimers: 1.0 A, 1.208 A, 1.5 A, 2.0 A, 3.0 A
  #
  ################################################################################
  #  "First tier" - improvements: -699.05 meV to -159.38 meV
       hydro 2 p 1.8
       hydro 3 d 7.6
       hydro 3 s 6.4
  #  "Second tier" - improvements: -49.91 meV to -5.39 meV
       hydro 4 f 11.6
       hydro 3 p 6.2
       hydro 3 d 5.6
       hydro 5 g 17.6
       hydro 1 s 0.75
  #  "Third tier" - improvements: -2.83 meV to -0.50 meV
  #     ionic 2 p auto
  #     hydro 4 f 10.8
  #     hydro 4 d 4.7
  #     hydro 2 s 6.8
  #  "Fourth tier" - improvements: -0.40 meV to -0.12 meV
  #     hydro 3 p 5
  #     hydro 3 s 3.3
  #     hydro 5 g 15.6
  #     hydro 4 f 17.6
  #     hydro 4 d 14
  # Further basis functions - -0.08 meV and below
  #     hydro 3 s 2.1
  #     hydro 4 d 11.6
  #     hydro 3 p 16
  #     hydro 2 s 17.2
  ################################################################################
  #
  # For methods that use the localized form of the "resolution of identity" for
  # the two-electron Coulomb operator (RI_method LVL), particularly Hartree-Fock and
  # hybrid density functional calculations, the highest accuracy can be obtained by
  # uncommenting the line beginning with "for_aux"  below, thus adding an extra g radial
  # function to the construction of the product basis set for the expansion.
  # See Ref. New J. Phys. 17, 093020 (2015) for more information, particularly Figs. 1 and 6.
  #
  ################################################################################
  #
  # for_aux hydro 5 g 6.0
  
  -----------------------------------------------------------------------
  Completed first pass over input file control.in .
  -----------------------------------------------------------------------
  
  
  -----------------------------------------------------------------------
  Parsing geometry.in (first pass over file, find array dimensions only).
  The contents of geometry.in will be repeated verbatim below
  unless switched off by setting 'verbatim_writeout .false.' .
  in the first line of geometry.in .
  -----------------------------------------------------------------------
  
  #
  # This is the geometry file that corresponds to the current relaxation step.
  # If you do not want this file to be written, set the "write_restart_geometry" flag to .false.
  #
  atom       0.71816060     -0.80885677      1.05173038 C
  atom       0.08483530      0.37969060      1.75079570 C
  atom       0.67695385      1.44981853      1.89638286 O
  atom       1.66290513     -1.05028784      1.55420199 H
  atom       0.96025161     -0.52280275      0.02030443 H
  atom       0.08023365     -1.70100067      1.03382606 H
  atom      -1.19015835      0.18538946      2.19793901 N
  atom      -1.90722194      1.19907169      2.94218851 C
  atom      -2.88757757      0.46553445      3.87119305 C
  atom      -3.27634292     -0.67745595      3.63125860 O
  atom      -1.64280427     -0.72529391      2.16094945 H
  atom      -1.16828018      1.76329340      3.53329655 H
  atom      -2.65522824      2.17852860      2.01761135 C
  atom      -3.16793057      2.96384469      2.59011454 H
  atom      -3.40213724      1.64314871      1.41733470 H
  atom      -1.93473457      2.65907146      1.34538339 H
  atom      -3.29740648      1.18291924      4.95457193 N
  atom      -4.40491744      0.74646744      5.81680097 C
  atom      -4.97215006      1.93762846      6.60664394 C
  atom      -6.17455804      2.18060923      6.57469196 O
  atom      -3.03051047      2.16084908      4.99501281 H
  atom      -5.23556420      0.43319902      5.16964397 H
  atom      -4.04354954     -0.44045422      6.72418922 C
  atom      -4.91261250     -0.70364887      7.34096628 H
  atom      -3.19901664     -0.21997539      7.38756226 H
  atom      -3.78317302     -1.30545104      6.10460900 H
  atom      -4.11163830      2.74543568      7.31454383 N
  atom      -2.76327011      2.47460592      7.79939582 C
  atom      -4.62208964      3.47826426      7.80197464 H
  atom      -2.22505315      3.42374271      7.91436521 H
  atom      -2.20535748      1.85875420      7.08770702 H
  atom      -2.76701823      1.95673658      8.77164255 H
  
  -----------------------------------------------------------------------
  Completed first pass over input file geometry.in .
  -----------------------------------------------------------------------
  

  Basic array size parameters:
  | Number of species                 :        4
  | Number of atoms                   :       32
  | Max. basis fn. angular momentum   :        4
  | Max. atomic/ionic basis occupied n:        2
  | Max. number of basis fn. types    :        2
  | Max. radial fns per species/type  :        8
  | Max. logarithmic grid size        :     1301
  | Max. radial integration grid size :       73
  | Max. angular integration grid size:      434
  | Max. angular grid division number :        8
  | Radial grid for Hartree potential :     1301
  | Number of spin channels           :        1

------------------------------------------------------------
          Reading file control.in.
------------------------------------------------------------
  XC: Using PBE gradient-corrected functionals.
  Spin treatment: No spin polarisation.
  Charge =   0.000000E+00: Neutral system requested explicitly.
  Occupation type: Gaussian broadening, width =   0.500000E-01 eV.
  Using pulay charge density mixing.
  Pulay mixing - number of memorized iterations:   10
  Charge density mixing - mixing parameter:     0.5000
  Convergence accuracy of self-consistent charge density:  0.1000E-03
  Convergence accuracy of sum of eigenvalues:  0.1000E-01
  Convergence accuracy of total energy:  0.1000E-04
  Convergence accuracy of forces:  0.1000E-03
  Maximum number of s.-c. iterations  :  1000
  Fitting ESP-charges to Potential. 
  | Esp charge output options: 
  | ESP Grid method: 3, cubic grid
  | Number of points in x, ,y, z:  0080 0080 0080
  |
 
  Reading configuration options for species H                   .
  | Found nuclear charge :   1.0000
  | Found atomic mass :    1.00794000000000      amu
  | Found l_max for Hartree potential  :   6
  | Found cutoff potl. onset [A], width [A], scale factor :    4.00000    2.00000    1.00000
  | Threshold for basis-dependent cutoff potential is   0.100000E-03
  | Found data for basic radial integration grid :    24 points, outermost radius =    7.000 A
  | Found multiplier for basic radial grid :   2
  | Found angular grid specification: user-specified.
  | Specified grid contains     6 separate shells.
  | Check grid settings after all constraints further below.
  | Found free-atom valence shell :  1 s   1.000
  | No ionic wave fns used. Skipping ion_occ.
  | Found hydrogenic basis function :  2 s   2.100
  | Found hydrogenic basis function :  2 p   3.500
  | Found hydrogenic basis function :  1 s   0.850
  | Found hydrogenic basis function :  2 p   3.700
  | Found hydrogenic basis function :  2 s   1.200
  | Found hydrogenic basis function :  3 d   7.000
  Species H                   : Missing cutoff potential type.
  Defaulting to exp(1/x)/(1-x)^2 type cutoff potential.
  Species H : No 'logarithmic' tag. Using default grid for free atom:
  | Default logarithmic grid data [bohr] : 0.1000E-03 0.1000E+03 0.1012E+01
  Species H : On-site basis accuracy parameter (for Gram-Schmidt orthonormalisation) not specified.
  Using default value basis_acc =  0.1000000E-03.
  Species H                   : Using default innermost maximum threshold i_radial=  2 for radial functions.
  Species H                   : Default cutoff onset for free atom density etc. : 0.40000000E+01 AA.
  Species H                   : Basic radial grid will be enhanced according to radial_multiplier =   2, to contain    49 grid points.
 
  Reading configuration options for species C                   .
  | Found nuclear charge :   6.0000
  | Found atomic mass :    12.0107000000000      amu
  | Found l_max for Hartree potential  :   6
  | Found cutoff potl. onset [A], width [A], scale factor :    4.00000    2.00000    1.00000
  | Threshold for basis-dependent cutoff potential is   0.100000E-03
  | Found data for basic radial integration grid :    34 points, outermost radius =    7.000 A
  | Found multiplier for basic radial grid :   2
  | Found angular grid specification: user-specified.
  | Specified grid contains     6 separate shells.
  | Check grid settings after all constraints further below.
  | Found free-atom valence shell :  2 s   2.000
  | Found free-atom valence shell :  2 p   2.000
  | No ionic wave fns used. Skipping ion_occ.
  | No ionic wave fns used. Skipping ion_occ.
  | Found hydrogenic basis function :  2 p   1.700
  | Found hydrogenic basis function :  3 d   6.000
  | Found hydrogenic basis function :  2 s   4.900
  | Found hydrogenic basis function :  4 f   9.800
  | Found hydrogenic basis function :  3 p   5.200
  | Found hydrogenic basis function :  3 s   4.300
  | Found hydrogenic basis function :  5 g  14.400
  | Found hydrogenic basis function :  3 d   6.200
  Species C                   : Missing cutoff potential type.
  Defaulting to exp(1/x)/(1-x)^2 type cutoff potential.
  Species C : No 'logarithmic' tag. Using default grid for free atom:
  | Default logarithmic grid data [bohr] : 0.1000E-03 0.1000E+03 0.1012E+01
  Species C : On-site basis accuracy parameter (for Gram-Schmidt orthonormalisation) not specified.
  Using default value basis_acc =  0.1000000E-03.
  Species C                   : Using default innermost maximum threshold i_radial=  2 for radial functions.
  Species C                   : Default cutoff onset for free atom density etc. : 0.40000000E+01 AA.
  Species C                   : Basic radial grid will be enhanced according to radial_multiplier =   2, to contain    69 grid points.
 
  Reading configuration options for species N                   .
  | Found nuclear charge :   7.0000
  | Found atomic mass :    14.0067000000000      amu
  | Found l_max for Hartree potential  :   6
  | Found cutoff potl. onset [A], width [A], scale factor :    4.00000    2.00000    1.00000
  | Threshold for basis-dependent cutoff potential is   0.100000E-03
  | Found data for basic radial integration grid :    35 points, outermost radius =    7.000 A
  | Found multiplier for basic radial grid :   2
  | Found angular grid specification: user-specified.
  | Specified grid contains     6 separate shells.
  | Check grid settings after all constraints further below.
  | Found free-atom valence shell :  2 s   2.000
  | Found free-atom valence shell :  2 p   3.000
  | No ionic wave fns used. Skipping ion_occ.
  | No ionic wave fns used. Skipping ion_occ.
  | Found hydrogenic basis function :  2 p   1.800
  | Found hydrogenic basis function :  3 d   6.800
  | Found hydrogenic basis function :  3 s   5.800
  | Found hydrogenic basis function :  4 f  10.800
  | Found hydrogenic basis function :  3 p   5.800
  | Found hydrogenic basis function :  1 s   0.800
  | Found hydrogenic basis function :  5 g  16.000
  | Found hydrogenic basis function :  3 d   4.900
  Species N                   : Missing cutoff potential type.
  Defaulting to exp(1/x)/(1-x)^2 type cutoff potential.
  Species N : No 'logarithmic' tag. Using default grid for free atom:
  | Default logarithmic grid data [bohr] : 0.1000E-03 0.1000E+03 0.1012E+01
  Species N : On-site basis accuracy parameter (for Gram-Schmidt orthonormalisation) not specified.
  Using default value basis_acc =  0.1000000E-03.
  Species N                   : Using default innermost maximum threshold i_radial=  2 for radial functions.
  Species N                   : Default cutoff onset for free atom density etc. : 0.40000000E+01 AA.
  Species N                   : Basic radial grid will be enhanced according to radial_multiplier =   2, to contain    71 grid points.
 
  Reading configuration options for species O                   .
  | Found nuclear charge :   8.0000
  | Found atomic mass :    15.9994000000000      amu
  | Found l_max for Hartree potential  :   6
  | Found cutoff potl. onset [A], width [A], scale factor :    4.00000    2.00000    1.00000
  | Threshold for basis-dependent cutoff potential is   0.100000E-03
  | Found data for basic radial integration grid :    36 points, outermost radius =    7.000 A
  | Found multiplier for basic radial grid :   2
  | Found angular grid specification: user-specified.
  | Specified grid contains     6 separate shells.
  | Check grid settings after all constraints further below.
  | Found free-atom valence shell :  2 s   2.000
  | Found free-atom valence shell :  2 p   4.000
  | No ionic wave fns used. Skipping ion_occ.
  | No ionic wave fns used. Skipping ion_occ.
  | Found hydrogenic basis function :  2 p   1.800
  | Found hydrogenic basis function :  3 d   7.600
  | Found hydrogenic basis function :  3 s   6.400
  | Found hydrogenic basis function :  4 f  11.600
  | Found hydrogenic basis function :  3 p   6.200
  | Found hydrogenic basis function :  3 d   5.600
  | Found hydrogenic basis function :  5 g  17.600
  | Found hydrogenic basis function :  1 s   0.750
  Species O                   : Missing cutoff potential type.
  Defaulting to exp(1/x)/(1-x)^2 type cutoff potential.
  Species O : No 'logarithmic' tag. Using default grid for free atom:
  | Default logarithmic grid data [bohr] : 0.1000E-03 0.1000E+03 0.1012E+01
  Species O : On-site basis accuracy parameter (for Gram-Schmidt orthonormalisation) not specified.
  Using default value basis_acc =  0.1000000E-03.
  Species O                   : Using default innermost maximum threshold i_radial=  2 for radial functions.
  Species O                   : Default cutoff onset for free atom density etc. : 0.40000000E+01 AA.
  Species O                   : Basic radial grid will be enhanced according to radial_multiplier =   2, to contain    73 grid points.
 
  Finished reading input file 'control.in'. Consistency checks are next.
 
  Target number of points in a grid batch is not set. Defaulting to  100
  Method for grid partitioning is not set. Defaulting to parallel hash+maxmin partitioning.
  Batch size limit is not set. Defaulting to    200
  By default, will store active basis functions for each batch.
  If in need of memory, prune_basis_once .false. can be used to disable this option.
  communication_type for Hartree potential was not specified.
  Defaulting to calc_hartree .
  Pulay mixer: Number of initial linear mixing iterations not set.
  Defaulting to    0 iterations.
  Work space size for distributed Hartree potential not set.
  Defaulting to   0.200000E+03 MB.
  Algorithm-dependent basis array size parameters:
  | n_max_pulay                         :       10
  Geometry relaxation not requested: no relaxation will be performed.
  Handling of forces: Unphysical translation and rotation will be removed from forces.
  No accuracy limit for integral partition fn. given. Defaulting to  0.1000E-14.
  No threshold value for u(r) in integrations given. Defaulting to  0.1000E-05.
  No accuracy for occupation numbers given. Defaulting to  0.1000E-07.
  No threshold value for occupation numbers given. Defaulting to  0.0000E+00.
  No accuracy for fermi level given. Defaulting to  0.1000E-19.
  Maximum # of iterations to find E_F not set. Defaulting to  200.
  Preferred method for the eigenvalue solver ('KS_method') not specified in 'control.in'.
  Calling blacs routine to test compilation state
  Since scalapack support is enabled, defaulting to 'elpa'.
  Preferred method for the MBD eigenvalue solver ('mbd_eigensolver') not specified in 'control.in'.
  Calling blacs routine to test compilation state
  Since scalapack support is enabled, defaulting to 'scaLAPACK'.
  Will not use alltoall communication since running on < 1024 CPUs.
  Threshold for basis singularities not set.
  Default threshold for basis singularities:  0.1000E-04
  partition_type (choice of integration weights) for integrals was not specified.
  | Using a version of the partition function of Stratmann and coworkers ('stratmann_smoother').
  | At each grid point, the set of atoms used to build the partition table is smoothly restricted to
  | only those atoms whose free-atom density would be non-zero at that grid point.
  Partitioning for Hartree potential was not defined. Using partition_type for integrals.
  | Adjusted default value of keyword multip_moments_threshold to:       0.10000000E-11
  | This value may affect high angular momentum components of the Hartree potential in periodic systems.
  No q(lm)/r^(l+1) cutoff set for long-range Hartree potential.
  | Using default value of  0.100000E-09 .
  | Verify using the multipole_threshold keyword.
  Defaulting to new monopole extrapolation.
  Density update method: automatic selection selected.
------------------------------------------------------------


------------------------------------------------------------
          Reading geometry description geometry.in.
------------------------------------------------------------
 * Warning! You did not set the 'relativistic' flag in input file 'control.in'.
 * Since you are not attempting to treat any elements beyond Ca(Z=20), FHI-aims
 * will default to 'relativistic none'.
 * You must ensure that this is really what you want!!
 * For example, DO NOT compute total-energy differences between results from
 * different settings of the 'relativistic' flag.
  Input structure read successfully.
  The structure contains       32 atoms,  and a total of        116.000 electrons.

  Input geometry:
  | No unit cell requested.
  | Atomic structure:
  |       Atom                x [A]            y [A]            z [A]
  |    1: Species C              0.718161        -0.808857         1.051730
  |    2: Species C              0.084835         0.379691         1.750796
  |    3: Species O              0.676954         1.449819         1.896383
  |    4: Species H              1.662905        -1.050288         1.554202
  |    5: Species H              0.960252        -0.522803         0.020304
  |    6: Species H              0.080234        -1.701001         1.033826
  |    7: Species N             -1.190158         0.185389         2.197939
  |    8: Species C             -1.907222         1.199072         2.942189
  |    9: Species C             -2.887578         0.465534         3.871193
  |   10: Species O             -3.276343        -0.677456         3.631259
  |   11: Species H             -1.642804        -0.725294         2.160949
  |   12: Species H             -1.168280         1.763293         3.533297
  |   13: Species C             -2.655228         2.178529         2.017611
  |   14: Species H             -3.167931         2.963845         2.590115
  |   15: Species H             -3.402137         1.643149         1.417335
  |   16: Species H             -1.934735         2.659071         1.345383
  |   17: Species N             -3.297406         1.182919         4.954572
  |   18: Species C             -4.404917         0.746467         5.816801
  |   19: Species C             -4.972150         1.937628         6.606644
  |   20: Species O             -6.174558         2.180609         6.574692
  |   21: Species H             -3.030510         2.160849         4.995013
  |   22: Species H             -5.235564         0.433199         5.169644
  |   23: Species C             -4.043550        -0.440454         6.724189
  |   24: Species H             -4.912612        -0.703649         7.340966
  |   25: Species H             -3.199017        -0.219975         7.387562
  |   26: Species H             -3.783173        -1.305451         6.104609
  |   27: Species N             -4.111638         2.745436         7.314544
  |   28: Species C             -2.763270         2.474606         7.799396
  |   29: Species H             -4.622090         3.478264         7.801975
  |   30: Species H             -2.225053         3.423743         7.914365
  |   31: Species H             -2.205357         1.858754         7.087707
  |   32: Species H             -2.767018         1.956737         8.771643
  |

  | The smallest distance between any two atoms is         1.01450269 AA.
  |
  | The first atom of this pair is atom number                     17 .
  | The second atom of this pair is atom number                    21 .

  Number of empty states per atom not set in control.in - providing a guess from actual geometry.
  | Total number of empty states used during s.c.f. cycle:       71
  If you use a very high smearing, use empty_states (per atom!) in control.in to increase this value.

  Structure-dependent array size parameters: 
  | Maximum number of distinct radial functions  :       40
  | Maximum number of basis functions            :      840
  | Number of Kohn-Sham states (occupied + empty):      129
------------------------------------------------------------

------------------------------------------------------------
          Preparing all fixed parts of the calculation.
------------------------------------------------------------
  Determining machine precision:
    2.225073858507201E-308
  Setting up grids for atomic and cluster calculations.

  Creating wave function, potential, and density for free atoms.

  Species: H

  List of occupied orbitals and eigenvalues:
    n    l              occ      energy [Ha]    energy [eV]
    1    0           1.0000        -0.238382        -6.4867


  Species: C

  List of occupied orbitals and eigenvalues:
    n    l              occ      energy [Ha]    energy [eV]
    1    0           2.0000       -10.041232      -273.2358
    2    0           2.0000        -0.504327       -13.7234
    2    1           2.0000        -0.193750        -5.2722


  Species: N

  List of occupied orbitals and eigenvalues:
    n    l              occ      energy [Ha]    energy [eV]
    1    0           2.0000       -14.129007      -384.4699
    2    0           2.0000        -0.681802       -18.5528
    2    1           3.0000        -0.260543        -7.0897


  Species: O

  List of occupied orbitals and eigenvalues:
    n    l              occ      energy [Ha]    energy [eV]
    1    0           2.0000       -18.898576      -514.2564
    2    0           2.0000        -0.878795       -23.9132
    2    1           4.0000        -0.332075        -9.0362

  Creating fixed part of basis set: Ionic, confined, hydrogenic.
 
  H                    hydrogenic:
 
  List of hydrogenic basis orbitals: 
    n    l      effective z      eigenvalue [eV]  inner max. [A]     outer max. [A]     outer radius [A]   
    2    0         2.100000       -14.9965           0.193243           1.317208           5.373006
    2    1         3.500000       -41.6672           0.602369           0.602369           4.056063
    1    0         0.850000        -9.8292           0.624871           0.624871           5.373006
    2    1         3.700000       -46.5653           0.573622           0.573622           3.910002
    2    0         1.200000        -4.5995           0.334980           2.228188           5.505995
    3    2         7.000000       -74.0753           0.680699           0.680699           3.769201
 
 
  C                    hydrogenic:
 
  List of hydrogenic basis orbitals: 
    n    l      effective z      eigenvalue [eV]  inner max. [A]     outer max. [A]     outer radius [A]   
    2    1         1.700000        -9.8152           1.245706           1.245706           5.401630
    3    2         6.000000       -54.4226           0.792453           0.792453           4.178599
    2    0         4.900000       -81.6681           0.082559           0.562749           3.353238
    4    3         9.800000       -81.6681           0.863254           0.863254           4.028125
    3    1         5.200000       -40.8774           0.305389           1.215618           4.898362
    3    0         4.300000       -27.9508           0.091041           1.610311           5.401630
    5    4        14.400000      -112.8510           0.917666           0.917666           3.883070
    3    2         6.200000       -58.1113           0.763917           0.763917           4.077671
 
 
  N                    hydrogenic:
 
  List of hydrogenic basis orbitals: 
    n    l      effective z      eigenvalue [eV]  inner max. [A]     outer max. [A]     outer radius [A]   
    2    1         1.800000       -11.0118           1.177451           1.177451           5.427479
    3    2         6.800000       -69.9029           0.704619           0.704619           3.854246
    3    0         5.800000       -50.8549           0.067388           1.191934           4.629968
    4    3        10.800000       -99.1854           0.786571           0.786571           3.761152
    3    1         5.800000       -50.8549           0.274880           1.094176           4.518138
    1    0         0.800000        -8.7059           0.662839           0.662839           5.361532
    5    4        16.000000      -139.3222           0.825990           0.825990           3.625711
    3    2         4.900000       -36.2967           0.968267           0.968267           4.862000
 
 
  O                    hydrogenic:
 
  List of hydrogenic basis orbitals: 
    n    l      effective z      eigenvalue [eV]  inner max. [A]     outer max. [A]     outer radius [A]   
    2    1         1.800000       -11.0118           1.178562           1.178562           5.432602
    3    2         7.600000       -87.3182           0.624125           0.624125           3.541477
    3    0         6.400000       -61.9209           0.061167           1.081902           4.306578
    4    3        11.600000      -114.4238           0.731631           0.731631           3.585037
    3    1         6.200000       -58.1113           0.255680           1.030270           4.306578
    3    2         5.600000       -47.4081           0.847233           0.847233           4.413171
    5    4        17.600000      -168.5799           0.749740           0.749740           3.372465
    1    0         0.750000        -7.6499           0.705284           0.705284           5.366593
 

  Adding cutoff potential to free-atom effective potential.
  Creating atomic-like basis functions for current effective potential.

  Species H                   :

  List of atomic basis orbitals and eigenvalues:
    n    l      energy [Ha]    energy [eV]    outer radius [A]
    1    0        -0.238382        -6.4867       5.373006


  Species C                   :

  List of atomic basis orbitals and eigenvalues:
    n    l      energy [Ha]    energy [eV]    outer radius [A]
    1    0       -10.041232      -273.2358       1.934409
    2    0        -0.504327       -13.7234       5.271162
    2    1        -0.193750        -5.2722       5.401630


  Species N                   :

  List of atomic basis orbitals and eigenvalues:
    n    l      energy [Ha]    energy [eV]    outer radius [A]
    1    0       -14.129007      -384.4699       1.637919
    2    0        -0.681802       -18.5528       5.168461
    2    1        -0.260543        -7.0897       5.361532


  Species O                   :

  List of atomic basis orbitals and eigenvalues:
    n    l      energy [Ha]    energy [eV]    outer radius [A]
    1    0       -18.898576      -514.2564       1.415765
    2    0        -0.878795       -23.9132       5.048385
    2    1        -0.332075        -9.0362       5.301386

  Assembling full basis from fixed parts.
  | Species H :   atomic orbital   1 s accepted.
  | Species H :    hydro orbital   2 s accepted.
  | Species H :    hydro orbital   1 s accepted.
  | Species H :    hydro orbital   2 s accepted.
  | Species H :    hydro orbital   2 p accepted.
  | Species H :    hydro orbital   2 p accepted.
  | Species H :    hydro orbital   3 d accepted.
  | Species C :   atomic orbital   1 s accepted.
  | Species C :    hydro orbital   2 s accepted.
  | Species C :   atomic orbital   2 s accepted.
  | Species C :    hydro orbital   3 s accepted.
  | Species C :    hydro orbital   3 p accepted.
  | Species C :   atomic orbital   2 p accepted.
  | Species C :    hydro orbital   2 p accepted.
  | Species C :    hydro orbital   3 d accepted.
  | Species C :    hydro orbital   3 d accepted.
  | Species C :    hydro orbital   4 f accepted.
  | Species C :    hydro orbital   5 g accepted.
  | Species N :   atomic orbital   1 s accepted.
  | Species N :    hydro orbital   3 s accepted.
  | Species N :   atomic orbital   2 s accepted.
  | Species N :    hydro orbital   1 s accepted.
  | Species N :    hydro orbital   3 p accepted.
  | Species N :   atomic orbital   2 p accepted.
  | Species N :    hydro orbital   2 p accepted.
  | Species N :    hydro orbital   3 d accepted.
  | Species N :    hydro orbital   3 d accepted.
  | Species N :    hydro orbital   4 f accepted.
  | Species N :    hydro orbital   5 g accepted.
  | Species O :   atomic orbital   1 s accepted.
  | Species O :    hydro orbital   3 s accepted.
  | Species O :   atomic orbital   2 s accepted.
  | Species O :    hydro orbital   1 s accepted.
  | Species O :    hydro orbital   3 p accepted.
  | Species O :   atomic orbital   2 p accepted.
  | Species O :    hydro orbital   2 p accepted.
  | Species O :    hydro orbital   3 d accepted.
  | Species O :    hydro orbital   3 d accepted.
  | Species O :    hydro orbital   4 f accepted.
  | Species O :    hydro orbital   5 g accepted.
 
  Basis size parameters after reduction:
  | Total number of radial functions:       40
  | Total number of basis functions :      840
 
  Testing on-site integration grid accuracy.
  |  Species  Function  <phi|h_atom|phi> (log., in eV)  <phi|h_atom|phi> (rad., in eV)
           1        1                 -6.4869821809                 -6.4870742227
           1        2                 13.5044133542                 13.5041049177
           1        3                 32.7854418792                 32.7779770519
           1        4                 33.7995553101                 33.7152624900 ***
           1        5                 28.8558651799                 28.8558652046
           1        6                 59.6361831893                 59.6362535845
           1        7                 60.2733718049                 60.2733715484
           2        8               -273.2358277112               -273.2358261765
           2        9                -10.7624923123                -10.7625144012
           2       10                 17.4634079027                 17.4634252127
           2       11                 53.0363661832                 53.0366180446
           2       12                 15.0981351967                 15.0981317714
           2       13                  3.8522181899                  3.8522770949
           2       14                 12.1181835661                 12.1206868578
           2       15                 29.4320778347                 29.4320780959
           2       16                 54.8753777694                 54.8752901936
           2       17                 59.3533975461                 59.3533974833
           2       18                 93.4537491195                 93.4537492066
           3       19               -384.4698526889               -384.4698499465
           3       20                 12.5691022037                 12.5690910168
           3       21                -15.7489097511                -15.7489165588
           3       22                 27.0978334940                 27.0985589490
           3       23                 18.5949116966                 18.5949125562
           3       24                  1.2212828291                  1.2212855301
           3       25                 13.4428926797                 13.4434051125
           3       26                 35.9380614500                 35.9380613666
           3       27                 39.9231532098                 39.9231654735
           3       28                 72.9957335806                 72.9957336833
           3       29                116.4231321147                116.4231321431
           4       30               -514.2564144315               -514.2564099626
           4       31                 15.1726678541                 15.1726530877
           4       32                -21.5447785304                -21.5447874973
           4       33                 14.4944558459                 14.4944698284
           4       34                 20.8882174564                 20.8882178906
           4       35                 -2.4850315908                 -2.4850322289
           4       36                 13.8600193195                 13.8599826966
           4       37                 45.8243383616                 45.8243383675
           4       38                 52.1840606465                 52.1840622440
           4       39                 85.4074185510                 85.4074185819
           4       40                142.0983717302                142.0983717339
 * Note: Onsite integrals marked "***" above are less accurate than
 * onsite_accuracy_threshold =    0.03000 eV. Usually, this is harmless.
 * When in doubt, tighten the "radial" and/or "radial_multiplier" flags to check.

  Preparing densities etc. for the partition functions (integrals / Hartree potential).

  Preparations completed.
  max(cpu_time)          :      0.240 s.
  Wall clock time (cpu1) :      0.235 s.
------------------------------------------------------------

------------------------------------------------------------
          Begin self-consistency loop: Initialization.

          Date     :  20170309, Time     :  180326.314
------------------------------------------------------------

  Initializing index lists of integration centers etc. from given atomic structure:
  | Number of centers in hartree potential         :        32
  | Number of centers in hartree multipole         :        32
  | Number of centers in electron density summation:        32
  | Number of centers in basis integrals           :        32
  | Number of centers in integrals                 :        32
  | Number of centers in hamiltonian               :        32
  Using modified Scalapack Eigenvalue solver (ELPA)
  * Using 32 tasks for Scalapack Eigenvalue solver.
  Detailed listing of tasks and assigned k-points:
  (for non-periodic systems, the "k-point" denotes an internal label only)
   Task     0 k-point     1 on eos383
   Task     1 k-point     1 on eos383
   Task     2 k-point     1 on eos383
   Task     3 k-point     1 on eos383
   Task     4 k-point     1 on eos383
   Task     5 k-point     1 on eos383
   Task     6 k-point     1 on eos383
   Task     7 k-point     1 on eos383
   Task     8 k-point     1 on eos383
   Task     9 k-point     1 on eos383
   Task    10 k-point     1 on eos383
   Task    11 k-point     1 on eos383
   Task    12 k-point     1 on eos383
   Task    13 k-point     1 on eos383
   Task    14 k-point     1 on eos383
   Task    15 k-point     1 on eos383
   Task    16 k-point     1 on eos383
   Task    17 k-point     1 on eos383
   Task    18 k-point     1 on eos383
   Task    19 k-point     1 on eos383
   Task    20 k-point     1 on eos383
   Task    21 k-point     1 on eos383
   Task    22 k-point     1 on eos383
   Task    23 k-point     1 on eos383
   Task    24 k-point     1 on eos383
   Task    25 k-point     1 on eos383
   Task    26 k-point     1 on eos383
   Task    27 k-point     1 on eos383
   Task    28 k-point     1 on eos383
   Task    29 k-point     1 on eos383
   Task    30 k-point     1 on eos383
   Task    31 k-point     1 on eos383
  Tasks:    32 split into      8 X      4 BLACS grid
  Calculating blocksize based on n_basis =          840 max_nprow =            8 max_npcol =            4
  Scalapack blocksize set to:           16
  Required Scalapack workspace - INTEGER:            1 REAL:             1
  Partitioning the integration grid into batches with parallel hashing+maxmin method.
  | Number of batches:     4974
  | Maximal batch size:     200
  | Minimal batch size:      11
  | Average batch size:     106.097
  | Standard deviation of batch sizes:      32.240

  Integration load balanced across    32 MPI tasks.
  Work distribution over tasks is as follows:
  Task     0 has      16433 integration points.
  Task     1 has      16494 integration points.
  Task     2 has      16447 integration points.
  Task     3 has      16479 integration points.
  Task     4 has      16504 integration points.
  Task     5 has      16467 integration points.
  Task     6 has      16525 integration points.
  Task     7 has      16487 integration points.
  Task     8 has      16502 integration points.
  Task     9 has      16472 integration points.
  Task    10 has      16454 integration points.
  Task    11 has      16582 integration points.
  Task    12 has      16469 integration points.
  Task    13 has      16504 integration points.
  Task    14 has      16520 integration points.
  Task    15 has      16457 integration points.
  Task    16 has      16466 integration points.
  Task    17 has      16452 integration points.
  Task    18 has      16468 integration points.
  Task    19 has      16518 integration points.
  Task    20 has      16451 integration points.
  Task    21 has      16521 integration points.
  Task    22 has      16498 integration points.
  Task    23 has      16472 integration points.
  Task    24 has      16481 integration points.
  Task    25 has      16575 integration points.
  Task    26 has      16577 integration points.
  Task    27 has      16463 integration points.
  Task    28 has      16513 integration points.
  Task    29 has      16470 integration points.
  Task    30 has      16539 integration points.
  Task    31 has      16468 integration points.
  Initializing partition tables, free-atom densities, potentials, etc. across the integration grid (initialize_grid_storage).
  | initialize_grid_storage: Actual outermost partition radius vs. multipole_radius_free
  | (-- VB: in principle, multipole_radius_free should be larger, hence this output)
  | Species        1: Confinement radius =              6.000000000000000 AA, multipole_radius_free =              6.071692442739658 AA.
  | Species        1: outer_partition_radius set to              6.071692442739658 AA .
  | Species        2: Confinement radius =              6.000000000000000 AA, multipole_radius_free =              6.029870734432609 AA.
  | Species        2: outer_partition_radius set to              6.029870734432609 AA .
  | Species        3: Confinement radius =              6.000000000000000 AA, multipole_radius_free =              6.058726835495003 AA.
  | Species        3: outer_partition_radius set to              6.058726835495003 AA .
  | Species        4: Confinement radius =              6.000000000000000 AA, multipole_radius_free =              6.064445521808699 AA.
  | Species        4: outer_partition_radius set to              6.064445521808699 AA .
  | Original list of interatomic distances with          32 x         32 entries is created.
  | Net number of integration points:   527728
  | of which are non-zero points    :   417726
  Obtaining max. number of non-zero basis functions in each batch (get_n_compute_maxes).
  | Maximal number of non-zero basis functions:      709 in task     0
  | Maximal number of non-zero basis functions:      716 in task     1
  | Maximal number of non-zero basis functions:      720 in task     2
  | Maximal number of non-zero basis functions:      713 in task     3
  | Maximal number of non-zero basis functions:      713 in task     4
  | Maximal number of non-zero basis functions:      705 in task     5
  | Maximal number of non-zero basis functions:      709 in task     6
  | Maximal number of non-zero basis functions:      711 in task     7
  | Maximal number of non-zero basis functions:      714 in task     8
  | Maximal number of non-zero basis functions:      714 in task     9
  | Maximal number of non-zero basis functions:      702 in task    10
  | Maximal number of non-zero basis functions:      705 in task    11
  | Maximal number of non-zero basis functions:      709 in task    12
  | Maximal number of non-zero basis functions:      713 in task    13
  | Maximal number of non-zero basis functions:      706 in task    14
  | Maximal number of non-zero basis functions:      706 in task    15
  | Maximal number of non-zero basis functions:      712 in task    16
  | Maximal number of non-zero basis functions:      703 in task    17
  | Maximal number of non-zero basis functions:      713 in task    18
  | Maximal number of non-zero basis functions:      717 in task    19
  | Maximal number of non-zero basis functions:      714 in task    20
  | Maximal number of non-zero basis functions:      710 in task    21
  | Maximal number of non-zero basis functions:      714 in task    22
  | Maximal number of non-zero basis functions:      707 in task    23
  | Maximal number of non-zero basis functions:      707 in task    24
  | Maximal number of non-zero basis functions:      714 in task    25
  | Maximal number of non-zero basis functions:      718 in task    26
  | Maximal number of non-zero basis functions:      719 in task    27
  | Maximal number of non-zero basis functions:      717 in task    28
  | Maximal number of non-zero basis functions:      706 in task    29
  | Maximal number of non-zero basis functions:      708 in task    30
  | Maximal number of non-zero basis functions:      703 in task    31
  Selecting the method for density update.
  Loop over occupied states selected for charge density update.
  Integrating Hamiltonian matrix: batch-based integration.
  Time summed over all CPUs for integration: real work       19.348 s, elapsed       20.072 s
  Integrating overlap matrix.
  Time summed over all CPUs for integration: real work       11.522 s, elapsed       12.005 s
  Deallocating overlap matrix.

  Updating Kohn-Sham eigenvalues, eigenvectors, occupation numbers, and Fermi level.
  Solving generalized eigenproblem
  Solving real symmetric generalised eigenvalue problem by standard ScaLAPACK.
  Transforming overlap matrix with ScaLAPACK and checking for singularities.
  : Overlap matrix is nonsingular, using Cholesky decomposition
  | Lowest eigenvalue:  0.853676E-04
  Factoring overlap matrix with Cholesky decomposition
  Using Cholesky factor for transformation
  Using 1-stage real ELPA solver
  Determining occupation numbers for Kohn-Sham eigenstates.
  | Chemical potential (Fermi level) in eV                 : -.89683335E+01
  | Error in electron count due to remaining E_F inaccuracy: 0.00000000E+00
  | Maximum occupation number of highest empty state:  0.00E+00

  Writing Kohn-Sham eigenvalues.

  State    Occupation    Eigenvalue [Ha]    Eigenvalue [eV]
      1       2.00000         -18.974545         -516.32365
      2       2.00000         -18.974256         -516.31578
      3       2.00000         -18.973340         -516.29086
      4       2.00000         -14.256040         -387.92658
      5       2.00000         -14.254354         -387.88071
      6       2.00000         -14.252301         -387.82485
      7       2.00000         -10.170863         -276.76326
      8       2.00000         -10.170696         -276.75872
      9       2.00000         -10.169966         -276.73885
     10       2.00000         -10.166381         -276.64130
     11       2.00000         -10.149380         -276.17868
     12       2.00000         -10.147906         -276.13858
     13       2.00000         -10.136328         -275.82351
     14       2.00000         -10.135225         -275.79351
     15       2.00000         -10.134003         -275.76024
     16       2.00000          -1.134439          -30.86965
     17       2.00000          -1.132139          -30.80708
     18       2.00000          -1.128060          -30.69606
     19       2.00000          -1.018496          -27.71468
     20       2.00000          -1.016268          -27.65405
     21       2.00000          -1.002805          -27.28770
     22       2.00000          -0.891764          -24.26612
     23       2.00000          -0.872308          -23.73672
     24       2.00000          -0.841045          -22.88599
     25       2.00000          -0.815560          -22.19252
     26       2.00000          -0.782523          -21.29353
     27       2.00000          -0.757341          -20.60830
     28       2.00000          -0.694088          -18.88709
     29       2.00000          -0.690631          -18.79304
     30       2.00000          -0.680811          -18.52580
     31       2.00000          -0.647207          -17.61139
     32       2.00000          -0.616309          -16.77061
     33       2.00000          -0.612548          -16.66827
     34       2.00000          -0.599008          -16.29983
     35       2.00000          -0.587139          -15.97685
     36       2.00000          -0.575850          -15.66969
     37       2.00000          -0.572299          -15.57304
     38       2.00000          -0.567737          -15.44892
     39       2.00000          -0.556307          -15.13789
     40       2.00000          -0.552935          -15.04611
     41       2.00000          -0.549266          -14.94630
     42       2.00000          -0.545547          -14.84508
     43       2.00000          -0.536899          -14.60977
     44       2.00000          -0.530596          -14.43825
     45       2.00000          -0.522692          -14.22316
     46       2.00000          -0.519966          -14.14901
     47       2.00000          -0.510010          -13.87808
     48       2.00000          -0.502471          -13.67292
     49       2.00000          -0.492642          -13.40547
     50       2.00000          -0.486945          -13.25046
     51       2.00000          -0.477723          -12.99950
     52       2.00000          -0.470686          -12.80801
     53       2.00000          -0.409209          -11.13515
     54       2.00000          -0.402829          -10.96154
     55       2.00000          -0.398717          -10.84965
     56       2.00000          -0.392568          -10.68233
     57       2.00000          -0.386648          -10.52121
     58       2.00000          -0.381161          -10.37191
     59       0.00000          -0.172756           -4.70092
     60       0.00000          -0.161290           -4.38892
     61       0.00000          -0.150728           -4.10151
     62       0.00000          -0.081277           -2.21166
     63       0.00000          -0.064883           -1.76556
     64       0.00000          -0.058415           -1.58955
     65       0.00000          -0.050089           -1.36299
     66       0.00000          -0.044564           -1.21265
     67       0.00000          -0.044177           -1.20213
     68       0.00000          -0.030836           -0.83910
     69       0.00000          -0.027812           -0.75681
     70       0.00000          -0.025772           -0.70130
     71       0.00000          -0.022247           -0.60537
     72       0.00000          -0.011615           -0.31606
     73       0.00000          -0.009306           -0.25323
     74       0.00000          -0.005364           -0.14597
     75       0.00000          -0.003272           -0.08903
     76       0.00000           0.000604            0.01643
     77       0.00000           0.000858            0.02334
     78       0.00000           0.004965            0.13511
     79       0.00000           0.006826            0.18574
     80       0.00000           0.012608            0.34307
     81       0.00000           0.019051            0.51840
     82       0.00000           0.022722            0.61830
     83       0.00000           0.025166            0.68481
     84       0.00000           0.034354            0.93483
     85       0.00000           0.040801            1.11025
     86       0.00000           0.050380            1.37090
     87       0.00000           0.053475            1.45514
     88       0.00000           0.059713            1.62486
     89       0.00000           0.062872            1.71083
     90       0.00000           0.066630            1.81310
     91       0.00000           0.076258            2.07509
     92       0.00000           0.080008            2.17712
     93       0.00000           0.081207            2.20976
     94       0.00000           0.091207            2.48186
     95       0.00000           0.092171            2.50811
     96       0.00000           0.102409            2.78670
     97       0.00000           0.107680            2.93013
     98       0.00000           0.119652            3.25589
     99       0.00000           0.122141            3.32363
    100       0.00000           0.123413            3.35824
    101       0.00000           0.124094            3.37677
    102       0.00000           0.129903            3.53484
    103       0.00000           0.133323            3.62790
    104       0.00000           0.140451            3.82186
    105       0.00000           0.144378            3.92872
    106       0.00000           0.151193            4.11416
    107       0.00000           0.152159            4.14046
    108       0.00000           0.157063            4.27391
    109       0.00000           0.161303            4.38927
    110       0.00000           0.167925            4.56948
    111       0.00000           0.176695            4.80811
    112       0.00000           0.178273            4.85106
    113       0.00000           0.181215            4.93111
    114       0.00000           0.189980            5.16962
    115       0.00000           0.194601            5.29537
    116       0.00000           0.196094            5.33599
    117       0.00000           0.203952            5.54981
    118       0.00000           0.208392            5.67064
    119       0.00000           0.214555            5.83834
    120       0.00000           0.216912            5.90248
    121       0.00000           0.222810            6.06297
    122       0.00000           0.223481            6.08122
    123       0.00000           0.229653            6.24917
    124       0.00000           0.233075            6.34229
    125       0.00000           0.238443            6.48835
    126       0.00000           0.245016            6.66723
    127       0.00000           0.249481            6.78873
    128       0.00000           0.250984            6.82963
    129       0.00000           0.258851            7.04369

  Highest occupied state (VBM) at    -10.37190729 eV
  | Occupation number:      2.00000000

  Lowest unoccupied state (CBM) at    -4.70092010 eV
  | Occupation number:      0.00000000

  Overall HOMO-LUMO gap:      5.67098719 eV.
  Calculating total energy contributions from superposition of free atom densities.

  Total energy components:
  | Sum of eigenvalues            :        -437.85554632 Ha      -11914.65562643 eV
  | XC energy correction          :         -98.80952567 Ha       -2688.74399526 eV
  | XC potential correction       :         127.00614752 Ha        3456.01311393 eV
  | Free-atom electrostatic energy:        -333.62996705 Ha       -9078.53331400 eV
  | Hartree energy correction     :           0.00000000 Ha           0.00000000 eV
  | vdW energy correction         :           0.00000000 Ha           0.00000000 eV
  | Entropy correction            :           0.00000000 Ha           0.00000000 eV
  | ---------------------------
  | Total energy                  :        -743.28889152 Ha      -20225.91982176 eV
  | Total energy, T -> 0          :        -743.28889152 Ha      -20225.91982176 eV  <-- do not rely on this value for anything but (periodic) metals
  | Electronic free energy        :        -743.28889152 Ha      -20225.91982176 eV

  Derived energy quantities:
  | Kinetic energy                :         735.13929458 Ha       20004.15800585 eV
  | Electrostatic energy          :       -1379.61866043 Ha      -37541.33383235 eV
  | Energy correction for multipole
  | error in Hartree potential    :           0.00000000 Ha           0.00000000 eV
  | Sum of eigenvalues per atom                           :        -372.33298833 eV
  | Total energy (T->0) per atom                          :        -632.05999443 eV  <-- do not rely on this value for anything but (periodic) metals
  | Electronic free energy per atom                       :        -632.05999443 eV
  Initialize hartree_potential_storage
  Max. number of atoms included in rho_multipole:           32

  End scf initialization - timings             :  max(cpu_time)    wall_clock(cpu1)
  | Time for scf. initialization               :        1.780 s           1.775 s
  | Boundary condition initialization          :        0.004 s           0.000 s
  | Integration                                :        1.028 s           1.023 s
  | Solution of K.-S. eqns.                    :        0.076 s           0.074 s
  | Grid partitioning                          :        0.360 s           0.358 s
  | Preloading free-atom quantities on grid    :        0.028 s           0.028 s
  | Free-atom superposition energy             :        0.040 s           0.036 s
  | Total energy evaluation                    :        0.004 s           0.002 s
------------------------------------------------------------

------------------------------------------------------------
          Begin self-consistency iteration #    1

  Date     :  20170309, Time     :  180328.090
------------------------------------------------------------
  Evaluating new KS density.
  Integration grid: deviation in total charge (<rho> - N_e) =   1.421085E-14
  Pulay mixing of updated and previous charge densities.

  Evaluating partitioned Hartree potential by multipole expansion.
  | Analytical far-field extrapolation by fixed multipoles:
  | Hartree multipole sum: apparent total charge =  -0.381617E-04
  Summing up the Hartree potential.
  Time summed over all CPUs for potential: real work        9.454 s, elapsed        9.746 s
  | RMS charge density error from multipole expansion :   0.105510E-01

  Integrating Hamiltonian matrix: batch-based integration.
  Time summed over all CPUs for integration: real work       19.111 s, elapsed       19.854 s

  Updating Kohn-Sham eigenvalues, eigenvectors, occupation numbers, and Fermi level.
  Solving generalized eigenproblem
  Solving real symmetric generalised eigenvalue problem by standard ScaLAPACK.
  Using Cholesky factor for transformation
  Using 2-stage real ELPA solver
  K-Point:    1, Trafo times: 1-stage=     0.021 s, 2-stage=     0.019 s ==> Using 2-stage solver
  Determining occupation numbers for Kohn-Sham eigenstates.
  | Chemical potential (Fermi level) in eV                 : -.37695365E+01
  | Error in electron count due to remaining E_F inaccuracy: 0.00000000E+00
  | Maximum occupation number of highest empty state:  0.00E+00

  Writing Kohn-Sham eigenvalues.

  State    Occupation    Eigenvalue [Ha]    Eigenvalue [eV]
      1       2.00000         -18.636537         -507.12597
      2       2.00000         -18.621782         -506.72448
      3       2.00000         -18.603801         -506.23517
      4       2.00000         -14.008040         -381.17817
      5       2.00000         -13.994945         -380.82183
      6       2.00000         -13.977700         -380.35257
      7       2.00000         -10.065403         -273.89355
      8       2.00000         -10.064330         -273.86435
      9       2.00000         -10.042388         -273.26729
     10       2.00000          -9.963124         -271.11040
     11       2.00000          -9.959252         -271.00504
     12       2.00000          -9.905968         -269.55511
     13       2.00000          -9.842810         -267.83649
     14       2.00000          -9.833813         -267.59167
     15       2.00000          -9.833478         -267.58256
     16       2.00000          -0.977230          -26.59177
     17       2.00000          -0.967517          -26.32747
     18       2.00000          -0.947330          -25.77816
     19       2.00000          -0.881499          -23.98680
     20       2.00000          -0.862433          -23.46800
     21       2.00000          -0.856295          -23.30097
     22       2.00000          -0.749401          -20.39224
     23       2.00000          -0.719618          -19.58179
     24       2.00000          -0.683224          -18.59148
     25       2.00000          -0.680697          -18.52272
     26       2.00000          -0.638734          -17.38083
     27       2.00000          -0.617186          -16.79448
     28       2.00000          -0.572359          -15.57467
     29       2.00000          -0.564665          -15.36533
     30       2.00000          -0.550590          -14.98231
     31       2.00000          -0.521010          -14.17739
     32       2.00000          -0.477637          -12.99718
     33       2.00000          -0.472035          -12.84472
     34       2.00000          -0.459661          -12.50801
     35       2.00000          -0.446213          -12.14208
     36       2.00000          -0.439120          -11.94905
     37       2.00000          -0.434927          -11.83498
     38       2.00000          -0.427185          -11.62429
     39       2.00000          -0.420888          -11.45296
     40       2.00000          -0.406625          -11.06482
     41       2.00000          -0.402156          -10.94323
     42       2.00000          -0.393679          -10.71256
     43       2.00000          -0.390514          -10.62643
     44       2.00000          -0.377267          -10.26596
     45       2.00000          -0.373845          -10.17284
     46       2.00000          -0.364991           -9.93190
     47       2.00000          -0.361083           -9.82556
     48       2.00000          -0.358229           -9.74790
     49       2.00000          -0.347688           -9.46107
     50       2.00000          -0.346347           -9.42458
     51       2.00000          -0.338059           -9.19905
     52       2.00000          -0.321751           -8.75528
     53       2.00000          -0.252196           -6.86259
     54       2.00000          -0.240766           -6.55157
     55       2.00000          -0.232288           -6.32088
     56       2.00000          -0.224361           -6.10517
     57       2.00000          -0.213678           -5.81449
     58       2.00000          -0.201123           -5.47284
     59       0.00000          -0.061606           -1.67639
     60       0.00000          -0.049740           -1.35348
     61       0.00000          -0.042703           -1.16200
     62       0.00000          -0.032533           -0.88527
     63       0.00000          -0.019268           -0.52432
     64       0.00000          -0.014523           -0.39520
     65       0.00000          -0.011843           -0.32227
     66       0.00000          -0.000289           -0.00786
     67       0.00000           0.011881            0.32331
     68       0.00000           0.014176            0.38574
     69       0.00000           0.021082            0.57366
     70       0.00000           0.030212            0.82212
     71       0.00000           0.031741            0.86371
     72       0.00000           0.036975            1.00614
     73       0.00000           0.043712            1.18947
     74       0.00000           0.048335            1.31525
     75       0.00000           0.051704            1.40693
     76       0.00000           0.056015            1.52426
     77       0.00000           0.067109            1.82612
     78       0.00000           0.067496            1.83666
     79       0.00000           0.073903            2.01102
     80       0.00000           0.079714            2.16912
     81       0.00000           0.084731            2.30564
     82       0.00000           0.091656            2.49410
     83       0.00000           0.096089            2.61471
     84       0.00000           0.101785            2.76972
     85       0.00000           0.107160            2.91596
     86       0.00000           0.108168            2.94340
     87       0.00000           0.117851            3.20689
     88       0.00000           0.120386            3.27588
     89       0.00000           0.128335            3.49217
     90       0.00000           0.135707            3.69276
     91       0.00000           0.140499            3.82318
     92       0.00000           0.146808            3.99485
     93       0.00000           0.152779            4.15732
     94       0.00000           0.155932            4.24313
     95       0.00000           0.156857            4.26829
     96       0.00000           0.162461            4.42080
     97       0.00000           0.168253            4.57839
     98       0.00000           0.173706            4.72678
     99       0.00000           0.184415            5.01820
    100       0.00000           0.187539            5.10319
    101       0.00000           0.189948            5.16875
    102       0.00000           0.199668            5.43325
    103       0.00000           0.200411            5.45346
    104       0.00000           0.206147            5.60954
    105       0.00000           0.207173            5.63747
    106       0.00000           0.211037            5.74261
    107       0.00000           0.212514            5.78279
    108       0.00000           0.216763            5.89843
    109       0.00000           0.219929            5.98458
    110       0.00000           0.227141            6.18083
    111       0.00000           0.233701            6.35933
    112       0.00000           0.236935            6.44732
    113       0.00000           0.240367            6.54071
    114       0.00000           0.247001            6.72123
    115       0.00000           0.249290            6.78352
    116       0.00000           0.254593            6.92783
    117       0.00000           0.262042            7.13052
    118       0.00000           0.264655            7.20162
    119       0.00000           0.272339            7.41073
    120       0.00000           0.275738            7.50322
    121       0.00000           0.285185            7.76028
    122       0.00000           0.293223            7.97901
    123       0.00000           0.298237            8.11544
    124       0.00000           0.301916            8.21554
    125       0.00000           0.307505            8.36764
    126       0.00000           0.309220            8.41429
    127       0.00000           0.319686            8.69911
    128       0.00000           0.326065            8.87269
    129       0.00000           0.334515            9.10263

  Highest occupied state (VBM) at     -5.47283755 eV
  | Occupation number:      2.00000000

  Lowest unoccupied state (CBM) at    -1.67639027 eV
  | Occupation number:      0.00000000

  Overall HOMO-LUMO gap:      3.79644728 eV.

  Total energy components:
  | Sum of eigenvalues            :        -417.73493468 Ha      -11367.14592677 eV
  | XC energy correction          :        -100.74748624 Ha       -2741.47858559 eV
  | XC potential correction       :         129.51996770 Ha        3524.41764160 eV
  | Free-atom electrostatic energy:        -333.62996705 Ha       -9078.53331400 eV
  | Hartree energy correction     :         -20.12549581 Ha        -547.64260482 eV
  | vdW energy correction         :           0.00000000 Ha           0.00000000 eV
  | Entropy correction            :           0.00000000 Ha           0.00000000 eV
  | ---------------------------
  | Total energy                  :        -742.71791608 Ha      -20210.38278958 eV
  | Total energy, T -> 0          :        -742.71791608 Ha      -20210.38278958 eV  <-- do not rely on this value for anything but (periodic) metals
  | Electronic free energy        :        -742.71791608 Ha      -20210.38278958 eV

  Derived energy quantities:
  | Kinetic energy                :         744.02705981 Ha       20246.00640297 eV
  | Electrostatic energy          :       -1385.99748965 Ha      -37714.91060696 eV
  | Energy correction for multipole
  | error in Hartree potential    :          -0.04075335 Ha          -1.10895513 eV
  | Sum of eigenvalues per atom                           :        -355.22331021 eV
  | Total energy (T->0) per atom                          :        -631.57446217 eV  <-- do not rely on this value for anything but (periodic) metals
  | Electronic free energy per atom                       :        -631.57446217 eV

  Self-consistency convergence accuracy:
  | Change of charge density      :  0.9032E+00
  | Change of sum of eigenvalues  :  0.5475E+03 eV
  | Change of total energy        :  0.1554E+02 eV

  End self-consistency iteration #     1       :  max(cpu_time)    wall_clock(cpu1)
  | Time for this iteration                    :        1.432 s           1.431 s
  | Charge density update                      :        0.456 s           0.450 s
[...]
   ----------------------------------------------------------------
   Total forces(  20)            : -0.325733E-02  0.630569E-04 -0.485769E-03
  atom #   21
   Hellmann-Feynman              : -0.189146E-01 -0.268247E-01 -0.176416E-01
   Ionic forces                  :  0.000000E+00  0.000000E+00  0.000000E+00
   Multipole                     : -0.266134E-03 -0.135077E-01  0.163245E-01
   Pulay + GGA                   :  0.233412E-01  0.483077E-01 -0.204516E-03
   Van der Waals                 : -0.307599E-02 -0.831383E-02  0.128130E-02
   ----------------------------------------------------------------
   Total forces(  21)            :  0.108446E-02 -0.338551E-03 -0.240299E-03
  atom #   22
   Hellmann-Feynman              :  0.368763E-01  0.244901E-01  0.356023E-01
   Ionic forces                  :  0.000000E+00  0.000000E+00  0.000000E+00
   Multipole                     :  0.133965E-01 -0.162360E-01  0.274976E-03
   Pulay + GGA                   : -0.461174E-01 -0.184796E-01 -0.386309E-01
   Van der Waals                 : -0.447756E-02  0.100448E-01  0.186125E-02
   ----------------------------------------------------------------
   Total forces(  22)            : -0.322173E-03 -0.180656E-03 -0.892408E-03
  atom #   23
   Hellmann-Feynman              :  0.304352E+00 -0.111716E+01  0.508024E+00
   Ionic forces                  :  0.000000E+00  0.000000E+00  0.000000E+00
   Multipole                     : -0.121787E+00  0.256771E+00 -0.258268E+00
   Pulay + GGA                   : -0.177312E+00  0.868406E+00 -0.262351E+00
   Van der Waals                 : -0.504716E-02 -0.938235E-02  0.136912E-01
   ----------------------------------------------------------------
   Total forces(  23)            :  0.205619E-03 -0.136291E-02  0.109657E-02
  atom #   24
   Hellmann-Feynman              : -0.107132E-02  0.290388E-01 -0.462292E-01
   Ionic forces                  :  0.000000E+00  0.000000E+00  0.000000E+00
   Multipole                     :  0.361827E-01 -0.149996E-01  0.441805E-02
   Pulay + GGA                   : -0.406701E-01 -0.171232E-01  0.404755E-01
   Van der Waals                 :  0.511852E-02  0.337315E-02  0.119629E-02
   ----------------------------------------------------------------
   Total forces(  24)            : -0.440223E-03  0.289062E-03 -0.139401E-03
  atom #   25
   Hellmann-Feynman              : -0.226270E-01  0.660272E-02 -0.262465E-01
   Ionic forces                  :  0.000000E+00  0.000000E+00  0.000000E+00
   Multipole                     : -0.204708E-01 -0.151431E-01 -0.909009E-02
   Pulay + GGA                   :  0.443419E-01  0.235676E-01  0.397846E-01
   Van der Waals                 : -0.568240E-03 -0.151428E-01 -0.451409E-02
   ----------------------------------------------------------------
   Total forces(  25)            :  0.675925E-03 -0.115567E-03 -0.661225E-04
  atom #   26
   Hellmann-Feynman              : -0.241232E-01  0.541780E-01 -0.454737E-01
   Ionic forces                  :  0.000000E+00  0.000000E+00  0.000000E+00
   Multipole                     :  0.777589E-02  0.204410E-02  0.394383E-01
   Pulay + GGA                   :  0.174739E-01 -0.516917E-01 -0.821198E-02
   Van der Waals                 : -0.111024E-02 -0.481567E-02  0.134797E-01
   ----------------------------------------------------------------
   Total forces(  26)            :  0.163744E-04 -0.285332E-03 -0.767656E-03
  atom #   27
   Hellmann-Feynman              : -0.599757E+00  0.160627E+01 -0.238438E+01
   Ionic forces                  :  0.000000E+00  0.000000E+00  0.000000E+00
   Multipole                     : -0.137134E+00 -0.712404E-01 -0.210051E-01
   Pulay + GGA                   :  0.743344E+00 -0.153866E+01  0.239719E+01
   Van der Waals                 : -0.573375E-02  0.367787E-02  0.715977E-02
   ----------------------------------------------------------------
   Total forces(  27)            :  0.719027E-03  0.501301E-04 -0.103109E-02
  atom #   28
   Hellmann-Feynman              :  0.220529E+01 -0.307567E+00  0.717517E+00
   Ionic forces                  :  0.000000E+00  0.000000E+00  0.000000E+00
   Multipole                     : -0.188744E+00  0.657813E-01 -0.544207E-01
   Pulay + GGA                   : -0.202244E+01  0.227120E+00 -0.678835E+00
   Van der Waals                 :  0.636526E-02  0.149613E-01  0.163073E-01
   ----------------------------------------------------------------
   Total forces(  28)            :  0.465202E-03  0.296309E-03  0.568416E-03
  atom #   29
   Hellmann-Feynman              : -0.206553E-01 -0.505193E-01 -0.388446E-01
   Ionic forces                  :  0.000000E+00  0.000000E+00  0.000000E+00
   Multipole                     :  0.424021E-01  0.319185E-02  0.120928E-01
   Pulay + GGA                   : -0.203623E-01  0.539474E-01  0.354146E-01
   Van der Waals                 : -0.242790E-02 -0.566738E-02 -0.763242E-02
   ----------------------------------------------------------------
   Total forces(  29)            : -0.104341E-02  0.952575E-03  0.103043E-02
  atom #   30
   Hellmann-Feynman              : -0.502335E-01 -0.975112E-02 -0.179047E-01
   Ionic forces                  :  0.000000E+00  0.000000E+00  0.000000E+00
   Multipole                     :  0.152783E-01 -0.360316E-01  0.144216E-01
   Pulay + GGA                   :  0.356532E-01  0.527128E-01  0.105737E-01
   Van der Waals                 : -0.770239E-03 -0.629890E-02 -0.679421E-02
   ----------------------------------------------------------------
   Total forces(  30)            : -0.722576E-04  0.631218E-03  0.296400E-03
  atom #   31
   Hellmann-Feynman              : -0.371047E-01  0.695068E-02  0.788252E-02
   Ionic forces                  :  0.000000E+00  0.000000E+00  0.000000E+00
   Multipole                     : -0.125041E-02  0.100341E-01  0.320070E-01
   Pulay + GGA                   :  0.241594E-01 -0.246564E-01 -0.415487E-01
   Van der Waals                 :  0.147681E-01  0.732563E-02  0.170699E-02
   ----------------------------------------------------------------
   Total forces(  31)            :  0.572458E-03 -0.346006E-03  0.478190E-04
  atom #   32
   Hellmann-Feynman              : -0.324134E-01  0.269931E-01 -0.265583E-01
   Ionic forces                  :  0.000000E+00  0.000000E+00  0.000000E+00
   Multipole                     :  0.138002E-01  0.110054E-01 -0.235663E-01
   Pulay + GGA                   :  0.190855E-01 -0.325214E-01  0.559496E-01
   Van der Waals                 : -0.719145E-03 -0.562963E-02 -0.481237E-02
   ----------------------------------------------------------------
   Total forces(  32)            : -0.246901E-03 -0.152544E-03  0.101266E-02

  Timings for VdW correction (Tkatchenko-Scheffler 2009 or later):
  | CPU time:        0.120 s, Wall clock time:        0.119 s.
  Removing unitary transformations (pure translations, rotations) from forces on atoms.
  Atomic forces before filtering:
  | Net force on center of mass :   0.540983E-03  0.424221E-03 -0.172608E-03 eV/A
  | Net torque on center of mass:   0.112649E-02  0.557864E-03 -0.134909E-02 eV
  Atomic forces after filtering:
  | Net force on center of mass :   0.261337E-18  0.113246E-17  0.000000E+00 eV/A
  | Net torque on center of mass:   0.829762E-18 -0.921958E-18 -0.479418E-17 eV

  Energy and forces in a compact form:
  | Total energy uncorrected      :         -0.202086354939298E+05 eV
  | Total energy corrected        :         -0.202086354939298E+05 eV  <-- do not rely on this value for anything but (periodic) metals
  | Electronic free energy        :         -0.202086354939298E+05 eV
  Total atomic forces (unitary forces cleaned) [eV/Ang]:
  |   1          0.362813154022179E-04         -0.125067742888194E-03         -0.179536032716160E-03
  |   2         -0.106758410136295E-02         -0.195649761961354E-02         -0.236363535129567E-02
  |   3          0.192088774606976E-02          0.231220411337699E-02          0.570085757044517E-04
  |   4          0.314423096966112E-04         -0.566951669280766E-03          0.391205767453395E-03
  |   5          0.690054167575642E-04         -0.123469004936941E-03         -0.241745383428070E-03
  |   6         -0.654637987958448E-03         -0.258744970309631E-03          0.267420563546705E-03
  |   7          0.784630164793320E-03          0.343293521366602E-03          0.178470783571329E-02
  |   8         -0.586228730546235E-03         -0.123132443546249E-02          0.323730061606811E-03
  |   9          0.164524019336657E-02          0.189170772946532E-02          0.521294816593867E-03
  |  10         -0.493582345236173E-03         -0.288535671897550E-02         -0.519319996259225E-03
  |  11         -0.660082363839113E-03         -0.566170483803810E-03         -0.906135395834801E-03
  |  12          0.103850327872296E-02          0.567546099766540E-03          0.189485126971425E-03
  |  13         -0.563894483348969E-03          0.907157190108464E-03         -0.936552595441725E-03
  |  14         -0.363300486608867E-03         -0.215374741864870E-04          0.299025923818438E-03
  |  15         -0.258467315697819E-03         -0.449050610959712E-03         -0.161689865207439E-03
  |  16          0.341955106900521E-03          0.244176133490149E-03         -0.144356042269972E-03
  |  17         -0.124820539995027E-02          0.326110482172010E-02          0.782837150999225E-03
  |  18          0.364497828011560E-03          0.400095975877007E-03         -0.117707263646112E-02
  |  19          0.156646654567664E-02         -0.117058688549154E-02          0.154869660281251E-02
  |  20         -0.328781114162272E-02          0.228182688234380E-04         -0.488306815215209E-03
  |  21          0.105290084386057E-02         -0.353000341190451E-03         -0.245299322135689E-03
  |  22         -0.331467147026663E-03         -0.221732840829486E-03         -0.879744597934666E-03
  |  23          0.208815400503060E-03         -0.137449923297491E-02          0.111622654007240E-02
  |  24         -0.433138934646531E-03          0.271989180980475E-03         -0.116606462142695E-03
  |  25          0.676856931461089E-03         -0.110278949370800E-03         -0.491947039676119E-04
  |  26          0.301218072759130E-04         -0.299261989873351E-03         -0.740304180391049E-03
  |  27          0.681939012428740E-03          0.430677071541289E-04         -0.104052787300166E-02
  |  28          0.431988435890154E-03          0.310942671719920E-03          0.560319516497442E-03
  |  29         -0.108946932781510E-02          0.943438693125110E-03          0.101471211025868E-02
  |  30         -0.117523399612496E-03          0.653792908223771E-03          0.279165496530418E-03
  |  31          0.546529009330825E-03         -0.330742973666061E-03          0.448890363122000E-04
  |  32         -0.272668180875717E-03         -0.129061071384347E-03          0.100930212881152E-02

  ------------------------------------ 
  Start decomposition of the XC Energy 
  ------------------------------------ 
  Hartree-Fock part   :          0.000000000 Ha              0.000000000 eV
  ------------------------------------ 
  X Energy            :        -96.984560007 Ha          -2639.084152908 eV
  C Energy GGA        :         -3.866671374 Ha           -105.217481501 eV
  Total XC Energy     :       -100.851231381 Ha          -2744.301634408 eV
  LDA X and C from self-consistent density 
  X Energy LDA        :        -87.997434022 Ha          -2394.532012180 eV
  C Energy LDA        :         -7.531271960 Ha           -204.936337071 eV
  ------------------------------------ 
  End decomposition of the XC Energy 
  ------------------------------------ 
   
  ESP charge fitting starts.
  | Calculation :  00000001  of  00000001
  | Full density
  Computing multipole expansion for total density.
  Generating points for esp charges.
  Partitioning the integration grid into batches with parallel hashing+maxmin method.
  | Number of batches:     3852
  | Maximal batch size:     200
  | Minimal batch size:      56
  | Average batch size:     126.388
  | Standard deviation of batch sizes:      17.278

  Integration load balanced across    32 MPI tasks.
  Work distribution over tasks is as follows:
  Initializing partition tables, free-atom densities, potentials, etc. across the integration grid (initialize_grid_storage).
  | Original list of interatomic distances with          32 x         32 entries is created.
  | Net number of integration points:   486847
  | of which are non-zero points    :   486847
  Summing up potential from multipole expanded  density.
  Summing up the Hartree potential.
  Time summed over all CPUs for potential: real work        6.348 s, elapsed        6.590 s
  Fitting esp charges to potential.
  |
  | ESP charges fitted to the electrostatic potential :
  |
  | Atom         1: C, ESP charge:      0.83326513
  |
  | Atom         2: C, ESP charge:     -0.75957418
  |
  | Atom         3: O, ESP charge:      0.58091973
  |
  | Atom         4: H, ESP charge:     -0.22695396
  |
  | Atom         5: H, ESP charge:     -0.23572410
  |
  | Atom         6: H, ESP charge:     -0.22182003
  |
  | Atom         7: N, ESP charge:      0.63097777
  |
  | Atom         8: C, ESP charge:     -0.48738116
  |
  | Atom         9: C, ESP charge:     -0.40755270
  |
  | Atom        10: O, ESP charge:      0.47793084
  |
  | Atom        11: H, ESP charge:     -0.27956514
  |
  | Atom        12: H, ESP charge:     -0.01981860
  |
  | Atom        13: C, ESP charge:      0.43391717
  |
  | Atom        14: H, ESP charge:     -0.08771512
  |
  | Atom        15: H, ESP charge:     -0.11734027
  |
  | Atom        16: H, ESP charge:     -0.13687507
  |
  | Atom        17: N, ESP charge:      0.52269500
  |
  | Atom        18: C, ESP charge:     -0.57402206
  |
  | Atom        19: C, ESP charge:     -0.32203145
  |
  | Atom        20: O, ESP charge:      0.50953735
  |
  | Atom        21: H, ESP charge:     -0.17252242
  |
  | Atom        22: H, ESP charge:      0.02151484
  |
  | Atom        23: C, ESP charge:      0.55206457
  |
  | Atom        24: H, ESP charge:     -0.13777486
  |
  | Atom        25: H, ESP charge:     -0.14802061
  |
  | Atom        26: H, ESP charge:     -0.15322839
  |
  | Atom        27: N, ESP charge:      0.31937141
  |
  | Atom        28: C, ESP charge:     -0.03696278
  |
  | Atom        29: H, ESP charge:     -0.26661831
  |
  | Atom        30: H, ESP charge:     -0.06262745
  |
  | Atom        31: H, ESP charge:      0.00588592
  |
  | Atom        32: H, ESP charge:     -0.03395105

  RRMS:       0.00641038

  Done.

------------------------------------------------------------------------------
  Final output of selected total energy values:

  The following output summarizes some interesting total energy values
  at the end of a run (AFTER all relaxation, molecular dynamics, etc.).

  | Total energy of the DFT / Hartree-Fock s.c.f. calculation      :         -20208.635493930 eV
  | Final zero-broadening corrected energy (caution - metals only) :         -20208.635493930 eV
  | For reference only, the value of 1 Hartree used in FHI-aims is :             27.211384500 eV

  Before relying on these values, please be sure to understand exactly which
  total energy value is referred to by a given number. Different objects may
  all carry the same name 'total energy'. Definitions:

  Total energy of the DFT / Hartree-Fock s.c.f. calculation:
  | Note that this energy does not include ANY quantities calculated after the
  | s.c.f. cycle, in particular not ANY RPA, MP2, etc. many-body perturbation terms.

  Final zero-broadening corrected energy:
  | For metallic systems only, a broadening of the occupation numbers at the Fermi
  | level can be extrapolated back to zero broadening by an electron-gas inspired
  | formula. For all systems that are not real metals, this value can be
  | meaningless and should be avoided.

------------------------------------------------------------------------------
  Methods described in the following list of references were used in this FHI-aims run.
  If you publish the results, please make sure to cite these reference if they apply.
  FHI-aims is an academic code, and for our developers (often, Ph.D. students
  and postdocs), scientific credit in the community is essential.
  Thank you for helping us!

  For any use of FHI-aims, please cite:

    Volker Blum, Ralf Gehrke, Felix Hanke, Paula Havu, Ville Havu,
    Xinguo Ren, Karsten Reuter, and Matthias Scheffler
    'Ab initio molecular simulations with numeric atom-centered orbitals'
    Computer Physics Communications 180, 2175-2196 (2009)
    http://dx.doi.org/10.1016/j.cpc.2009.06.022


  The scalable eigensolver library ELPA was used in your run.
  ELPA is essential especially for large systems on hundreds or thousands of CPUs.
  For ELPA, please cite:

    Andreas Marek, Volker Blum, Rainer Johanni, Ville Havu, Bruno Lang,
    Thomas Auckenthaler, Alexander Heinecke, Hans-Joachim Bungartz, and Hermann Lederer,
    'The ELPA Library - Scalable Parallel Eigenvalue Solutions
    for Electronic Structure Theory and Computational Science'
    The Journal of Physics: Condensed Matter 26, 213201 (2014).
    http://dx.doi.org/10.1088/0953-8984/26/21/213201


  For ELPA's efficient two-stage tridiagonalization used in your run, please cite:

    T. Auckenthaler, V. Blum, H.-J. Bungartz, T. Huckle, R. Johanni, L. Kraemer,
    B. Lang, H. Lederer, and P. R. Willems,
    'Parallel solution of partial symmetric eigenvalue problems'
    'from  electronic structure calculations'
    Parallel Computing 37, 783-794 (2011).
    http://dx.doi.org/10.1016/j.parco.2011.05.002


  For the real-space grid partitioning and parallelization used in this calculation, please cite:

    Ville Havu, Volker Blum, Paula Havu, and Matthias Scheffler,
    'Efficient O(N) integration for all-electron electronic structure calculation'
    'using numerically tabulated basis functions'
    Journal of Computational Physics 228, 8367-8379 (2009).
    http://dx.doi.org/10.1016/j.jcp.2009.08.008

  Of course, there are many other important community references, e.g., those cited in the
  above references. Our list is limited to references that describe implementations in the
  FHI-aims code. The reason is purely practical (length of this list) - please credit others as well.

------------------------------------------------------------
          Leaving FHI-aims.
          Date     :  20170309, Time     :  180354.174

          Computational steps:
          | Number of self-consistency cycles          :           14

          Detailed time accounting                     :  max(cpu_time)    wall_clock(cpu1)
          | Total time                                 :       28.714 s          28.880 s
          | Preparation time                           :        0.240 s           0.235 s
          | Grid partitioning                          :        0.360 s           0.358 s
          | Preloading free-atom quantities on grid    :        0.028 s           0.028 s
          | Free-atom superposition energy             :        0.040 s           0.036 s
          | Total time for integrations                :        9.881 s           9.861 s
          | Total time for solution of K.-S. equations :        0.532 s           0.497 s
          | Total time for density & force components  :        8.973 s           8.947 s
          | Total time for mixing                      :        0.128 s           0.105 s
          | Total time for Hartree multipole update    :        0.076 s           0.058 s
          | Total time for Hartree multipole sum       :        6.460 s           6.433 s
          | Total time for total energy evaluation     :        0.036 s           0.027 s
          | Total time for vdW correction              :        0.120 s           0.119 s

          Have a nice day.
------------------------------------------------------------
