  MPI-parallelism will be employed.
------------------------------------------------------------
          Invoking FHI-aims ...
          Version 150427
          Git rev.: 9dd23e0 BL: Update Version stamp
          Compiled on 2015/11/03 at 22:05:20 on host eos03.

          When using FHI-aims, please cite the following reference:

          Volker Blum, Ralf Gehrke, Felix Hanke, Paula Havu,
          Ville Havu, Xinguo Ren, Karsten Reuter, and Matthias Scheffler,
          'Ab Initio Molecular Simulations with Numeric Atom-Centered Orbitals: FHI-aims',
          Computer Physics Communications 180, 2175-2196 (2009)

          For any questions about FHI-aims, please visit the aimsclub website
          with its forums and wiki. Contributions to both the forums and the
          wiki are warmly encouraged - they are for you, and everyone is welcome there.

------------------------------------------------------------

  Date     :  20170309, Time     :  185425.626
  Time zero on CPU 1             :   0.376023000000000E+00  s.
  Internal wall clock time zero  :           258317665.626  s.

  Using       32 parallel tasks.
  Task        0 on host eos026 reporting.
  Task        1 on host eos026 reporting.
  Task        2 on host eos026 reporting.
  Task        3 on host eos026 reporting.
  Task        4 on host eos026 reporting.
  Task        5 on host eos026 reporting.
  Task        6 on host eos026 reporting.
  Task        7 on host eos026 reporting.
  Task        8 on host eos026 reporting.
  Task        9 on host eos026 reporting.
  Task       10 on host eos026 reporting.
  Task       11 on host eos026 reporting.
  Task       12 on host eos026 reporting.
  Task       13 on host eos026 reporting.
  Task       14 on host eos026 reporting.
  Task       15 on host eos026 reporting.
  Task       16 on host eos026 reporting.
  Task       17 on host eos026 reporting.
  Task       18 on host eos026 reporting.
  Task       19 on host eos026 reporting.
  Task       20 on host eos026 reporting.
  Task       21 on host eos026 reporting.
  Task       22 on host eos026 reporting.
  Task       23 on host eos026 reporting.
  Task       24 on host eos026 reporting.
  Task       25 on host eos026 reporting.
  Task       26 on host eos026 reporting.
  Task       27 on host eos026 reporting.
  Task       28 on host eos026 reporting.
  Task       29 on host eos026 reporting.
  Task       30 on host eos026 reporting.
  Task       31 on host eos026 reporting.

  Performing system and environment tests:
  | Environment variable OMP_NUM_THREADS correctly set to 1.
  | Stacksize not measured: no C compiler
  | Checking for scalapack...
  | Testing pdtran()...
  | All pdtran() tests passed.

  Obtaining array dimensions for all initial allocations:
  
  -----------------------------------------------------------------------
  Parsing control.in (first pass over file, find array dimensions only).
  The contents of control.in will be repeated verbatim below
  unless switched off by setting 'verbatim_writeout .false.' .
  in the first line of control.in .
  -----------------------------------------------------------------------
  
  #########################################################################################
  #
  # Input for System
  #
  #########################################################################################
  #
  #
  #  Physical model
  #
    xc                 pbe
    vdw_correction_hirshfeld
    spin               none
    charge             0.
  #
  #  SCF convergence
  #
    occupation_type    gaussian 0.05
    mixer              pulay
      n_max_pulay        10
      charge_mix_param   0.5
    sc_accuracy_rho    1E-4
    sc_accuracy_eev    1E-2
    sc_accuracy_etot   1E-5
    sc_accuracy_forces 1E-4
    sc_iter_limit      1000
  #
  #  ESP charge
  #
    output esp
    esp equal_grid_n 80 80 80
  #
  #
  ################################################################################
  #
  #  FHI-aims code project
  # Volker Blum, Fritz Haber Institute Berlin, 2009
  #
  #  Suggested "tight" defaults for H atom (to be pasted into control.in file)
  #
  ################################################################################
    species        H
  #     global species definitions
      nucleus             1
      mass                1.00794
  #
      l_hartree           6
  #
      cut_pot             4.0  2.0  1.0
      basis_dep_cutoff    1e-4
  #
      radial_base         24 7.0
      radial_multiplier   2
      angular_grids       specified
        division   0.1930   50
        division   0.3175  110
        division   0.4293  194
        division   0.5066  302
        division   0.5626  434
  #      division   0.5922  590
  #      division   0.6227  974
  #      division   0.6868 1202
  #      outer_grid  770
        outer_grid  434
  ################################################################################
  #
  #  Definition of "minimal" basis
  #
  ################################################################################
  #     valence basis states
      valence      1  s   1.
  #     ion occupancy
      ion_occ      1  s   0.5
  ################################################################################
  #
  #  Suggested additional basis functions. For production calculations,
  #  uncomment them one after another (the most important basis functions are
  #  listed first).
  #
  #  Basis constructed for dimers: 0.5 A, 0.7 A, 1.0 A, 1.5 A, 2.5 A
  #
  ################################################################################
  #  "First tier" - improvements: -1014.90 meV to -62.69 meV
       hydro 2 s 2.1
       hydro 2 p 3.5
  #  "Second tier" - improvements: -12.89 meV to -1.83 meV
       hydro 1 s 0.85
       hydro 2 p 3.7
       hydro 2 s 1.2
       hydro 3 d 7
  #  "Third tier" - improvements: -0.25 meV to -0.12 meV
  #     hydro 4 f 11.2
  #     hydro 3 p 4.8
  #     hydro 4 d 9
  #     hydro 3 s 3.2
  ################################################################################
  #
  # For methods that use the localized form of the "resolution of identity" for
  # the two-electron Coulomb operator (RI_method LVL), particularly Hartree-Fock and
  # hybrid density functional calculations, the highest accuracy can be obtained by
  # uncommenting the line beginning with "for_aux"  below, thus adding an extra g radial
  # function to the construction of the product basis set for the expansion.
  # See Ref. New J. Phys. 17, 093020 (2015) for more information, particularly Figs. 1 and 6.
  #
  ################################################################################
  #
  # for_aux hydro 5 g 6.0
  ################################################################################
  #
  #  FHI-aims code project
  # Volker Blum, Fritz Haber Institute Berlin, 2009
  #
  #  Suggested "tight" defaults for C atom (to be pasted into control.in file)
  #
  ################################################################################
    species        C
  #     global species definitions
      nucleus             6
      mass                12.0107
  #
      l_hartree           6
  #
      cut_pot             4.0  2.0  1.0
      basis_dep_cutoff    1e-4
  #
      radial_base         34 7.0
      radial_multiplier   2
      angular_grids specified
        division   0.2187   50
        division   0.4416  110
        division   0.6335  194
        division   0.7727  302
        division   0.8772  434
  #      division   0.9334  590
  #      division   0.9924  770
  #      division   1.0230  974
  #      division   1.5020 1202
  #     outer_grid  974
        outer_grid  434
  ################################################################################
  #
  #  Definition of "minimal" basis
  #
  ################################################################################
  #     valence basis states
      valence      2  s   2.
      valence      2  p   2.
  #     ion occupancy
      ion_occ      2  s   1.
      ion_occ      2  p   1.
  ################################################################################
  #
  #  Suggested additional basis functions. For production calculations,
  #  uncomment them one after another (the most important basis functions are
  #  listed first).
  #
  #  Constructed for dimers: 1.0 A, 1.25 A, 1.5 A, 2.0 A, 3.0 A
  #
  ################################################################################
  #  "First tier" - improvements: -1214.57 meV to -155.61 meV
       hydro 2 p 1.7
       hydro 3 d 6
       hydro 2 s 4.9
  #  "Second tier" - improvements: -67.75 meV to -5.23 meV
       hydro 4 f 9.8
       hydro 3 p 5.2
       hydro 3 s 4.3
       hydro 5 g 14.4
       hydro 3 d 6.2
  #  "Third tier" - improvements: -2.43 meV to -0.60 meV
  #     hydro 2 p 5.6
  #     hydro 2 s 1.4
  #     hydro 3 d 4.9
  #     hydro 4 f 11.2
  #  "Fourth tier" - improvements: -0.39 meV to -0.18 meV
  #     hydro 2 p 2.1
  #     hydro 5 g 16.4
  #     hydro 4 d 13.2
  #     hydro 3 s 13.6
  #     hydro 4 f 17.6
  #  Further basis functions - improvements: -0.08 meV and below
  #     hydro 3 s 2
  #     hydro 3 p 6
  #     hydro 4 d 20
  ################################################################################
  #
  # For methods that use the localized form of the "resolution of identity" for
  # the two-electron Coulomb operator (RI_method LVL), particularly Hartree-Fock and
  # hybrid density functional calculations, the highest accuracy can be obtained by
  # uncommenting the line beginning with "for_aux"  below, thus adding an extra g radial
  # function to the construction of the product basis set for the expansion.
  # See Ref. New J. Phys. 17, 093020 (2015) for more information, particularly Figs. 1 and 6.
  #
  ################################################################################
  #
  # for_aux hydro 5 g 6.0
  ################################################################################
  #
  #  FHI-aims code project
  # Volker Blum, Fritz Haber Institute Berlin, 2009
  #
  #  Suggested "tight" defaults for N atom (to be pasted into control.in file)
  #
  ################################################################################
    species        N
  #     global species definitions
      nucleus             7
      mass                14.0067
  #
      l_hartree           6
  #
      cut_pot             4.0  2.0  1.0
      basis_dep_cutoff    1e-4
  #
      radial_base         35 7.0
      radial_multiplier   2
      angular_grids       specified
        division   0.1841   50
        division   0.3514  110
        division   0.5126  194
        division   0.6292  302
        division   0.6939  434
  #      division   0.7396  590
  #      division   0.7632  770
  #      division   0.8122  974
  #      division   1.1604 1202
  #      outer_grid  974
        outer_grid  434
  ################################################################################
  #
  #  Definition of "minimal" basis
  #
  ################################################################################
  #     valence basis states
      valence      2  s   2.
      valence      2  p   3.
  #     ion occupancy
      ion_occ      2  s   1.
      ion_occ      2  p   2.
  ################################################################################
  #
  #  Suggested additional basis functions. For production calculations,
  #  uncomment them one after another (the most important basis functions are
  #  listed first).
  #
  #  Constructed for dimers: 1.0 A, 1.1 A, 1.5 A, 2.0 A, 3.0 A
  #
  ################################################################################
  #  "First tier" - improvements: -1193.42 meV to -220.60 meV
       hydro 2 p 1.8
       hydro 3 d 6.8
       hydro 3 s 5.8
  #  "Second tier" - improvements: -80.21 meV to -6.86 meV
       hydro 4 f 10.8
       hydro 3 p 5.8
       hydro 1 s 0.8
       hydro 5 g 16
       hydro 3 d 4.9
  #  "Third tier" - improvements: -4.29 meV to -0.53 meV
  #     hydro 3 s 16
  #     ionic 2 p auto
  #     hydro 3 d 6.6
  #     hydro 4 f 11.6
  #  "Fourth tier" - improvements: -0.75 meV to -0.25 meV
  #     hydro 2 p 4.5
  #     hydro 2 s 2.4
  #     hydro 5 g 14.4
  #     hydro 4 d 14.4
  #     hydro 4 f 16.8
  # Further basis functions - -0.21 meV and below
  #     hydro 3 p 14.8
  #     hydro 3 s 4.4
  #     hydro 3 d 19.6
  #     hydro 5 g 12.8
  ################################################################################
  #
  # For methods that use the localized form of the "resolution of identity" for
  # the two-electron Coulomb operator (RI_method LVL), particularly Hartree-Fock and
  # hybrid density functional calculations, the highest accuracy can be obtained by
  # uncommenting the line beginning with "for_aux"  below, thus adding an extra g radial
  # function to the construction of the product basis set for the expansion.
  # See Ref. New J. Phys. 17, 093020 (2015) for more information, particularly Figs. 1 and 6.
  #
  ################################################################################
  #
  # for_aux hydro 5 g 6.0
  ################################################################################
  #
  #  FHI-aims code project
  # Volker Blum, Fritz Haber Institute Berlin, 2009
  #
  #  Suggested "tight" defaults for O atom (to be pasted into control.in file)
  #
  ################################################################################
    species        O
  #     global species definitions
      nucleus             8
      mass                15.9994
  #
      l_hartree           6
  #
      cut_pot             4.0  2.0  1.0
      basis_dep_cutoff    1e-4
  #
      radial_base         36 7.0
      radial_multiplier   2
       angular_grids specified
        division   0.1817   50
        division   0.3417  110
        division   0.4949  194
        division   0.6251  302
        division   0.8014  434
  #      division   0.8507  590
  #      division   0.8762  770
  #      division   0.9023  974
  #      division   1.2339 1202
  #      outer_grid 974
        outer_grid  434
  ################################################################################
  #
  #  Definition of "minimal" basis
  #
  ################################################################################
  #     valence basis states
      valence      2  s   2.
      valence      2  p   4.
  #     ion occupancy
      ion_occ      2  s   1.
      ion_occ      2  p   3.
  ################################################################################
  #
  #  Suggested additional basis functions. For production calculations,
  #  uncomment them one after another (the most important basis functions are
  #  listed first).
  #
  #  Constructed for dimers: 1.0 A, 1.208 A, 1.5 A, 2.0 A, 3.0 A
  #
  ################################################################################
  #  "First tier" - improvements: -699.05 meV to -159.38 meV
       hydro 2 p 1.8
       hydro 3 d 7.6
       hydro 3 s 6.4
  #  "Second tier" - improvements: -49.91 meV to -5.39 meV
       hydro 4 f 11.6
       hydro 3 p 6.2
       hydro 3 d 5.6
       hydro 5 g 17.6
       hydro 1 s 0.75
  #  "Third tier" - improvements: -2.83 meV to -0.50 meV
  #     ionic 2 p auto
  #     hydro 4 f 10.8
  #     hydro 4 d 4.7
  #     hydro 2 s 6.8
  #  "Fourth tier" - improvements: -0.40 meV to -0.12 meV
  #     hydro 3 p 5
  #     hydro 3 s 3.3
  #     hydro 5 g 15.6
  #     hydro 4 f 17.6
  #     hydro 4 d 14
  # Further basis functions - -0.08 meV and below
  #     hydro 3 s 2.1
  #     hydro 4 d 11.6
  #     hydro 3 p 16
  #     hydro 2 s 17.2
  ################################################################################
  #
  # For methods that use the localized form of the "resolution of identity" for
  # the two-electron Coulomb operator (RI_method LVL), particularly Hartree-Fock and
  # hybrid density functional calculations, the highest accuracy can be obtained by
  # uncommenting the line beginning with "for_aux"  below, thus adding an extra g radial
  # function to the construction of the product basis set for the expansion.
  # See Ref. New J. Phys. 17, 093020 (2015) for more information, particularly Figs. 1 and 6.
  #
  ################################################################################
  #
  # for_aux hydro 5 g 6.0
  
  -----------------------------------------------------------------------
  Completed first pass over input file control.in .
  -----------------------------------------------------------------------
  
  
  -----------------------------------------------------------------------
  Parsing geometry.in (first pass over file, find array dimensions only).
  The contents of geometry.in will be repeated verbatim below
  unless switched off by setting 'verbatim_writeout .false.' .
  in the first line of geometry.in .
  -----------------------------------------------------------------------
  
  #
  # This is the geometry file that corresponds to the current relaxation step.
  # If you do not want this file to be written, set the "write_restart_geometry" flag to .false.
  #
  atom       0.81728426      0.45480625      0.72515162 C
  atom       0.27598054      0.35777976      2.13739194 C
  atom       0.93669496      0.69279264      3.11963068 O
  atom       0.30640655     -0.20959680      0.01693051 H
  atom       1.88793575      0.22622472      0.73504943 H
  atom       0.69482801      1.49182452      0.38156415 H
  atom      -1.00450930     -0.12646635      2.23884910 N
  atom      -1.74787722     -0.02341282      3.49454551 C
  atom      -1.88224363      1.49222414      3.84074513 C
  atom      -1.87211284      2.30231238      2.91411990 O
  atom      -1.55025651     -0.12737717      1.38535912 H
  atom      -2.78104287     -0.32443735      3.25330626 H
  atom      -1.19487396     -1.01928784      4.51644431 C
  atom      -0.18549938     -0.74313107      4.83293423 H
  atom      -1.14313871     -2.00453490      4.03643100 H
  atom      -1.83211933     -1.12041210      5.39929426 H
  atom      -2.06558526      1.97386000      5.11398857 N
  atom      -2.34142786      1.40634322      6.43890467 C
  atom      -1.19836895      0.60208554      7.11346384 C
  atom      -1.46355576     -0.38086365      7.80650450 O
  atom      -2.18593307      2.98138590      5.05253263 H
  atom      -2.43418728      2.29865330      7.08169915 H
  atom      -3.67783867      0.66389955      6.51270401 C
  atom      -3.87922054      0.34209500      7.53961808 H
  atom      -3.68104389     -0.23297697      5.88167516 H
  atom      -4.48255532      1.32795066      6.17315364 H
  atom       0.08290432      1.04698011      6.98888580 N
  atom       0.64305751      2.18459455      6.26697045 C
  atom       0.73683151      0.44203437      7.47615002 H
  atom       0.72899487      1.99435574      5.18858782 H
  atom       1.64549330      2.37167220      6.66978146 H
  atom       0.05197776      3.09442950      6.43085302 H
  
  -----------------------------------------------------------------------
  Completed first pass over input file geometry.in .
  -----------------------------------------------------------------------
  

  Basic array size parameters:
  | Number of species                 :        4
  | Number of atoms                   :       32
  | Max. basis fn. angular momentum   :        4
  | Max. atomic/ionic basis occupied n:        2
  | Max. number of basis fn. types    :        2
  | Max. radial fns per species/type  :        8
  | Max. logarithmic grid size        :     1301
  | Max. radial integration grid size :       73
  | Max. angular integration grid size:      434
  | Max. angular grid division number :        8
  | Radial grid for Hartree potential :     1301
  | Number of spin channels           :        1

------------------------------------------------------------
          Reading file control.in.
------------------------------------------------------------
  XC: Using PBE gradient-corrected functionals.
  Spin treatment: No spin polarisation.
  Charge =   0.000000E+00: Neutral system requested explicitly.
  Occupation type: Gaussian broadening, width =   0.500000E-01 eV.
  Using pulay charge density mixing.
  Pulay mixing - number of memorized iterations:   10
  Charge density mixing - mixing parameter:     0.5000
  Convergence accuracy of self-consistent charge density:  0.1000E-03
  Convergence accuracy of sum of eigenvalues:  0.1000E-01
  Convergence accuracy of total energy:  0.1000E-04
  Convergence accuracy of forces:  0.1000E-03
  Maximum number of s.-c. iterations  :  1000
  Fitting ESP-charges to Potential. 
  | Esp charge output options: 
  | ESP Grid method: 3, cubic grid
  | Number of points in x, ,y, z:  0080 0080 0080
  |
 
  Reading configuration options for species H                   .
  | Found nuclear charge :   1.0000
  | Found atomic mass :    1.00794000000000      amu
  | Found l_max for Hartree potential  :   6
  | Found cutoff potl. onset [A], width [A], scale factor :    4.00000    2.00000    1.00000
  | Threshold for basis-dependent cutoff potential is   0.100000E-03
  | Found data for basic radial integration grid :    24 points, outermost radius =    7.000 A
  | Found multiplier for basic radial grid :   2
  | Found angular grid specification: user-specified.
  | Specified grid contains     6 separate shells.
  | Check grid settings after all constraints further below.
  | Found free-atom valence shell :  1 s   1.000
  | No ionic wave fns used. Skipping ion_occ.
  | Found hydrogenic basis function :  2 s   2.100
  | Found hydrogenic basis function :  2 p   3.500
  | Found hydrogenic basis function :  1 s   0.850
  | Found hydrogenic basis function :  2 p   3.700
  | Found hydrogenic basis function :  2 s   1.200
  | Found hydrogenic basis function :  3 d   7.000
  Species H                   : Missing cutoff potential type.
  Defaulting to exp(1/x)/(1-x)^2 type cutoff potential.
  Species H : No 'logarithmic' tag. Using default grid for free atom:
  | Default logarithmic grid data [bohr] : 0.1000E-03 0.1000E+03 0.1012E+01
  Species H : On-site basis accuracy parameter (for Gram-Schmidt orthonormalisation) not specified.
  Using default value basis_acc =  0.1000000E-03.
  Species H                   : Using default innermost maximum threshold i_radial=  2 for radial functions.
  Species H                   : Default cutoff onset for free atom density etc. : 0.40000000E+01 AA.
  Species H                   : Basic radial grid will be enhanced according to radial_multiplier =   2, to contain    49 grid points.
 
  Reading configuration options for species C                   .
  | Found nuclear charge :   6.0000
  | Found atomic mass :    12.0107000000000      amu
  | Found l_max for Hartree potential  :   6
  | Found cutoff potl. onset [A], width [A], scale factor :    4.00000    2.00000    1.00000
  | Threshold for basis-dependent cutoff potential is   0.100000E-03
  | Found data for basic radial integration grid :    34 points, outermost radius =    7.000 A
  | Found multiplier for basic radial grid :   2
  | Found angular grid specification: user-specified.
  | Specified grid contains     6 separate shells.
  | Check grid settings after all constraints further below.
  | Found free-atom valence shell :  2 s   2.000
  | Found free-atom valence shell :  2 p   2.000
  | No ionic wave fns used. Skipping ion_occ.
  | No ionic wave fns used. Skipping ion_occ.
  | Found hydrogenic basis function :  2 p   1.700
  | Found hydrogenic basis function :  3 d   6.000
  | Found hydrogenic basis function :  2 s   4.900
  | Found hydrogenic basis function :  4 f   9.800
  | Found hydrogenic basis function :  3 p   5.200
  | Found hydrogenic basis function :  3 s   4.300
  | Found hydrogenic basis function :  5 g  14.400
  | Found hydrogenic basis function :  3 d   6.200
  Species C                   : Missing cutoff potential type.
  Defaulting to exp(1/x)/(1-x)^2 type cutoff potential.
  Species C : No 'logarithmic' tag. Using default grid for free atom:
  | Default logarithmic grid data [bohr] : 0.1000E-03 0.1000E+03 0.1012E+01
  Species C : On-site basis accuracy parameter (for Gram-Schmidt orthonormalisation) not specified.
  Using default value basis_acc =  0.1000000E-03.
  Species C                   : Using default innermost maximum threshold i_radial=  2 for radial functions.
  Species C                   : Default cutoff onset for free atom density etc. : 0.40000000E+01 AA.
  Species C                   : Basic radial grid will be enhanced according to radial_multiplier =   2, to contain    69 grid points.
 
  Reading configuration options for species N                   .
  | Found nuclear charge :   7.0000
  | Found atomic mass :    14.0067000000000      amu
  | Found l_max for Hartree potential  :   6
  | Found cutoff potl. onset [A], width [A], scale factor :    4.00000    2.00000    1.00000
  | Threshold for basis-dependent cutoff potential is   0.100000E-03
  | Found data for basic radial integration grid :    35 points, outermost radius =    7.000 A
  | Found multiplier for basic radial grid :   2
  | Found angular grid specification: user-specified.
  | Specified grid contains     6 separate shells.
  | Check grid settings after all constraints further below.
  | Found free-atom valence shell :  2 s   2.000
  | Found free-atom valence shell :  2 p   3.000
  | No ionic wave fns used. Skipping ion_occ.
  | No ionic wave fns used. Skipping ion_occ.
  | Found hydrogenic basis function :  2 p   1.800
  | Found hydrogenic basis function :  3 d   6.800
  | Found hydrogenic basis function :  3 s   5.800
  | Found hydrogenic basis function :  4 f  10.800
  | Found hydrogenic basis function :  3 p   5.800
  | Found hydrogenic basis function :  1 s   0.800
  | Found hydrogenic basis function :  5 g  16.000
  | Found hydrogenic basis function :  3 d   4.900
  Species N                   : Missing cutoff potential type.
  Defaulting to exp(1/x)/(1-x)^2 type cutoff potential.
  Species N : No 'logarithmic' tag. Using default grid for free atom:
  | Default logarithmic grid data [bohr] : 0.1000E-03 0.1000E+03 0.1012E+01
  Species N : On-site basis accuracy parameter (for Gram-Schmidt orthonormalisation) not specified.
  Using default value basis_acc =  0.1000000E-03.
  Species N                   : Using default innermost maximum threshold i_radial=  2 for radial functions.
  Species N                   : Default cutoff onset for free atom density etc. : 0.40000000E+01 AA.
  Species N                   : Basic radial grid will be enhanced according to radial_multiplier =   2, to contain    71 grid points.
 
  Reading configuration options for species O                   .
  | Found nuclear charge :   8.0000
  | Found atomic mass :    15.9994000000000      amu
  | Found l_max for Hartree potential  :   6
  | Found cutoff potl. onset [A], width [A], scale factor :    4.00000    2.00000    1.00000
  | Threshold for basis-dependent cutoff potential is   0.100000E-03
  | Found data for basic radial integration grid :    36 points, outermost radius =    7.000 A
  | Found multiplier for basic radial grid :   2
  | Found angular grid specification: user-specified.
  | Specified grid contains     6 separate shells.
  | Check grid settings after all constraints further below.
  | Found free-atom valence shell :  2 s   2.000
  | Found free-atom valence shell :  2 p   4.000
  | No ionic wave fns used. Skipping ion_occ.
  | No ionic wave fns used. Skipping ion_occ.
  | Found hydrogenic basis function :  2 p   1.800
  | Found hydrogenic basis function :  3 d   7.600
  | Found hydrogenic basis function :  3 s   6.400
  | Found hydrogenic basis function :  4 f  11.600
  | Found hydrogenic basis function :  3 p   6.200
  | Found hydrogenic basis function :  3 d   5.600
  | Found hydrogenic basis function :  5 g  17.600
  | Found hydrogenic basis function :  1 s   0.750
  Species O                   : Missing cutoff potential type.
  Defaulting to exp(1/x)/(1-x)^2 type cutoff potential.
  Species O : No 'logarithmic' tag. Using default grid for free atom:
  | Default logarithmic grid data [bohr] : 0.1000E-03 0.1000E+03 0.1012E+01
  Species O : On-site basis accuracy parameter (for Gram-Schmidt orthonormalisation) not specified.
  Using default value basis_acc =  0.1000000E-03.
  Species O                   : Using default innermost maximum threshold i_radial=  2 for radial functions.
  Species O                   : Default cutoff onset for free atom density etc. : 0.40000000E+01 AA.
  Species O                   : Basic radial grid will be enhanced according to radial_multiplier =   2, to contain    73 grid points.
 
  Finished reading input file 'control.in'. Consistency checks are next.
 
  Target number of points in a grid batch is not set. Defaulting to  100
  Method for grid partitioning is not set. Defaulting to parallel hash+maxmin partitioning.
  Batch size limit is not set. Defaulting to    200
  By default, will store active basis functions for each batch.
  If in need of memory, prune_basis_once .false. can be used to disable this option.
  communication_type for Hartree potential was not specified.
  Defaulting to calc_hartree .
  Pulay mixer: Number of initial linear mixing iterations not set.
  Defaulting to    0 iterations.
  Work space size for distributed Hartree potential not set.
  Defaulting to   0.200000E+03 MB.
  Algorithm-dependent basis array size parameters:
  | n_max_pulay                         :       10
  Geometry relaxation not requested: no relaxation will be performed.
  Handling of forces: Unphysical translation and rotation will be removed from forces.
  No accuracy limit for integral partition fn. given. Defaulting to  0.1000E-14.
  No threshold value for u(r) in integrations given. Defaulting to  0.1000E-05.
  No accuracy for occupation numbers given. Defaulting to  0.1000E-07.
  No threshold value for occupation numbers given. Defaulting to  0.0000E+00.
  No accuracy for fermi level given. Defaulting to  0.1000E-19.
  Maximum # of iterations to find E_F not set. Defaulting to  200.
  Preferred method for the eigenvalue solver ('KS_method') not specified in 'control.in'.
  Calling blacs routine to test compilation state
  Since scalapack support is enabled, defaulting to 'elpa'.
  Preferred method for the MBD eigenvalue solver ('mbd_eigensolver') not specified in 'control.in'.
  Calling blacs routine to test compilation state
  Since scalapack support is enabled, defaulting to 'scaLAPACK'.
  Will not use alltoall communication since running on < 1024 CPUs.
  Threshold for basis singularities not set.
  Default threshold for basis singularities:  0.1000E-04
  partition_type (choice of integration weights) for integrals was not specified.
  | Using a version of the partition function of Stratmann and coworkers ('stratmann_smoother').
  | At each grid point, the set of atoms used to build the partition table is smoothly restricted to
  | only those atoms whose free-atom density would be non-zero at that grid point.
  Partitioning for Hartree potential was not defined. Using partition_type for integrals.
  | Adjusted default value of keyword multip_moments_threshold to:       0.10000000E-11
  | This value may affect high angular momentum components of the Hartree potential in periodic systems.
  No q(lm)/r^(l+1) cutoff set for long-range Hartree potential.
  | Using default value of  0.100000E-09 .
  | Verify using the multipole_threshold keyword.
  Defaulting to new monopole extrapolation.
  Density update method: automatic selection selected.
------------------------------------------------------------


------------------------------------------------------------
          Reading geometry description geometry.in.
------------------------------------------------------------
 * Warning! You did not set the 'relativistic' flag in input file 'control.in'.
 * Since you are not attempting to treat any elements beyond Ca(Z=20), FHI-aims
 * will default to 'relativistic none'.
 * You must ensure that this is really what you want!!
 * For example, DO NOT compute total-energy differences between results from
 * different settings of the 'relativistic' flag.
  Input structure read successfully.
  The structure contains       32 atoms,  and a total of        116.000 electrons.

  Input geometry:
  | No unit cell requested.
  | Atomic structure:
  |       Atom                x [A]            y [A]            z [A]
  |    1: Species C              0.817284         0.454806         0.725152
  |    2: Species C              0.275981         0.357780         2.137392
  |    3: Species O              0.936695         0.692793         3.119631
  |    4: Species H              0.306407        -0.209597         0.016931
  |    5: Species H              1.887936         0.226225         0.735049
  |    6: Species H              0.694828         1.491825         0.381564
  |    7: Species N             -1.004509        -0.126466         2.238849
  |    8: Species C             -1.747877        -0.023413         3.494546
  |    9: Species C             -1.882244         1.492224         3.840745
  |   10: Species O             -1.872113         2.302312         2.914120
  |   11: Species H             -1.550257        -0.127377         1.385359
  |   12: Species H             -2.781043        -0.324437         3.253306
  |   13: Species C             -1.194874        -1.019288         4.516444
  |   14: Species H             -0.185499        -0.743131         4.832934
  |   15: Species H             -1.143139        -2.004535         4.036431
  |   16: Species H             -1.832119        -1.120412         5.399294
  |   17: Species N             -2.065585         1.973860         5.113989
  |   18: Species C             -2.341428         1.406343         6.438905
  |   19: Species C             -1.198369         0.602086         7.113464
  |   20: Species O             -1.463556        -0.380864         7.806504
  |   21: Species H             -2.185933         2.981386         5.052533
  |   22: Species H             -2.434187         2.298653         7.081699
  |   23: Species C             -3.677839         0.663900         6.512704
  |   24: Species H             -3.879221         0.342095         7.539618
  |   25: Species H             -3.681044        -0.232977         5.881675
  |   26: Species H             -4.482555         1.327951         6.173154
  |   27: Species N              0.082904         1.046980         6.988886
  |   28: Species C              0.643058         2.184595         6.266970
  |   29: Species H              0.736832         0.442034         7.476150
  |   30: Species H              0.728995         1.994356         5.188588
  |   31: Species H              1.645493         2.371672         6.669781
  |   32: Species H              0.051978         3.094429         6.430853
  |

  | The smallest distance between any two atoms is         1.01305774 AA.
  |
  | The first atom of this pair is atom number                      7 .
  | The second atom of this pair is atom number                    11 .

  Number of empty states per atom not set in control.in - providing a guess from actual geometry.
  | Total number of empty states used during s.c.f. cycle:       71
  If you use a very high smearing, use empty_states (per atom!) in control.in to increase this value.

  Structure-dependent array size parameters: 
  | Maximum number of distinct radial functions  :       40
  | Maximum number of basis functions            :      840
  | Number of Kohn-Sham states (occupied + empty):      129
------------------------------------------------------------

------------------------------------------------------------
          Preparing all fixed parts of the calculation.
------------------------------------------------------------
  Determining machine precision:
    2.225073858507201E-308
  Setting up grids for atomic and cluster calculations.

  Creating wave function, potential, and density for free atoms.

  Species: H

  List of occupied orbitals and eigenvalues:
    n    l              occ      energy [Ha]    energy [eV]
    1    0           1.0000        -0.238382        -6.4867


  Species: C

  List of occupied orbitals and eigenvalues:
    n    l              occ      energy [Ha]    energy [eV]
    1    0           2.0000       -10.041232      -273.2358
    2    0           2.0000        -0.504327       -13.7234
    2    1           2.0000        -0.193750        -5.2722


  Species: N

  List of occupied orbitals and eigenvalues:
    n    l              occ      energy [Ha]    energy [eV]
    1    0           2.0000       -14.129007      -384.4699
    2    0           2.0000        -0.681802       -18.5528
    2    1           3.0000        -0.260543        -7.0897


  Species: O

  List of occupied orbitals and eigenvalues:
    n    l              occ      energy [Ha]    energy [eV]
    1    0           2.0000       -18.898576      -514.2564
    2    0           2.0000        -0.878795       -23.9132
    2    1           4.0000        -0.332075        -9.0362

  Creating fixed part of basis set: Ionic, confined, hydrogenic.
 
  H                    hydrogenic:
 
  List of hydrogenic basis orbitals: 
    n    l      effective z      eigenvalue [eV]  inner max. [A]     outer max. [A]     outer radius [A]   
    2    0         2.100000       -14.9965           0.193243           1.317208           5.373006
    2    1         3.500000       -41.6672           0.602369           0.602369           4.056063
    1    0         0.850000        -9.8292           0.624871           0.624871           5.373006
    2    1         3.700000       -46.5653           0.573622           0.573622           3.910002
    2    0         1.200000        -4.5995           0.334980           2.228188           5.505995
    3    2         7.000000       -74.0753           0.680699           0.680699           3.769201
 
 
  C                    hydrogenic:
 
  List of hydrogenic basis orbitals: 
    n    l      effective z      eigenvalue [eV]  inner max. [A]     outer max. [A]     outer radius [A]   
    2    1         1.700000        -9.8152           1.245706           1.245706           5.401630
    3    2         6.000000       -54.4226           0.792453           0.792453           4.178599
    2    0         4.900000       -81.6681           0.082559           0.562749           3.353238
    4    3         9.800000       -81.6681           0.863254           0.863254           4.028125
    3    1         5.200000       -40.8774           0.305389           1.215618           4.898362
    3    0         4.300000       -27.9508           0.091041           1.610311           5.401630
    5    4        14.400000      -112.8510           0.917666           0.917666           3.883070
    3    2         6.200000       -58.1113           0.763917           0.763917           4.077671
 
 
  N                    hydrogenic:
 
  List of hydrogenic basis orbitals: 
    n    l      effective z      eigenvalue [eV]  inner max. [A]     outer max. [A]     outer radius [A]   
    2    1         1.800000       -11.0118           1.177451           1.177451           5.427479
    3    2         6.800000       -69.9029           0.704619           0.704619           3.854246
    3    0         5.800000       -50.8549           0.067388           1.191934           4.629968
    4    3        10.800000       -99.1854           0.786571           0.786571           3.761152
    3    1         5.800000       -50.8549           0.274880           1.094176           4.518138
    1    0         0.800000        -8.7059           0.662839           0.662839           5.361532
    5    4        16.000000      -139.3222           0.825990           0.825990           3.625711
    3    2         4.900000       -36.2967           0.968267           0.968267           4.862000
 
 
  O                    hydrogenic:
 
  List of hydrogenic basis orbitals: 
    n    l      effective z      eigenvalue [eV]  inner max. [A]     outer max. [A]     outer radius [A]   
    2    1         1.800000       -11.0118           1.178562           1.178562           5.432602
    3    2         7.600000       -87.3182           0.624125           0.624125           3.541477
    3    0         6.400000       -61.9209           0.061167           1.081902           4.306578
    4    3        11.600000      -114.4238           0.731631           0.731631           3.585037
    3    1         6.200000       -58.1113           0.255680           1.030270           4.306578
    3    2         5.600000       -47.4081           0.847233           0.847233           4.413171
    5    4        17.600000      -168.5799           0.749740           0.749740           3.372465
    1    0         0.750000        -7.6499           0.705284           0.705284           5.366593
 

  Adding cutoff potential to free-atom effective potential.
  Creating atomic-like basis functions for current effective potential.

  Species H                   :

  List of atomic basis orbitals and eigenvalues:
    n    l      energy [Ha]    energy [eV]    outer radius [A]
    1    0        -0.238382        -6.4867       5.373006


  Species C                   :

  List of atomic basis orbitals and eigenvalues:
    n    l      energy [Ha]    energy [eV]    outer radius [A]
    1    0       -10.041232      -273.2358       1.934409
    2    0        -0.504327       -13.7234       5.271162
    2    1        -0.193750        -5.2722       5.401630


  Species N                   :

  List of atomic basis orbitals and eigenvalues:
    n    l      energy [Ha]    energy [eV]    outer radius [A]
    1    0       -14.129007      -384.4699       1.637919
    2    0        -0.681802       -18.5528       5.168461
    2    1        -0.260543        -7.0897       5.361532


  Species O                   :

  List of atomic basis orbitals and eigenvalues:
    n    l      energy [Ha]    energy [eV]    outer radius [A]
    1    0       -18.898576      -514.2564       1.415765
    2    0        -0.878795       -23.9132       5.048385
    2    1        -0.332075        -9.0362       5.301386

  Assembling full basis from fixed parts.
  | Species H :   atomic orbital   1 s accepted.
  | Species H :    hydro orbital   2 s accepted.
  | Species H :    hydro orbital   1 s accepted.
  | Species H :    hydro orbital   2 s accepted.
  | Species H :    hydro orbital   2 p accepted.
  | Species H :    hydro orbital   2 p accepted.
  | Species H :    hydro orbital   3 d accepted.
  | Species C :   atomic orbital   1 s accepted.
  | Species C :    hydro orbital   2 s accepted.
  | Species C :   atomic orbital   2 s accepted.
  | Species C :    hydro orbital   3 s accepted.
  | Species C :    hydro orbital   3 p accepted.
  | Species C :   atomic orbital   2 p accepted.
  | Species C :    hydro orbital   2 p accepted.
  | Species C :    hydro orbital   3 d accepted.
  | Species C :    hydro orbital   3 d accepted.
  | Species C :    hydro orbital   4 f accepted.
  | Species C :    hydro orbital   5 g accepted.
  | Species N :   atomic orbital   1 s accepted.
  | Species N :    hydro orbital   3 s accepted.
  | Species N :   atomic orbital   2 s accepted.
  | Species N :    hydro orbital   1 s accepted.
  | Species N :    hydro orbital   3 p accepted.
  | Species N :   atomic orbital   2 p accepted.
  | Species N :    hydro orbital   2 p accepted.
  | Species N :    hydro orbital   3 d accepted.
  | Species N :    hydro orbital   3 d accepted.
  | Species N :    hydro orbital   4 f accepted.
  | Species N :    hydro orbital   5 g accepted.
  | Species O :   atomic orbital   1 s accepted.
  | Species O :    hydro orbital   3 s accepted.
  | Species O :   atomic orbital   2 s accepted.
  | Species O :    hydro orbital   1 s accepted.
  | Species O :    hydro orbital   3 p accepted.
  | Species O :   atomic orbital   2 p accepted.
  | Species O :    hydro orbital   2 p accepted.
  | Species O :    hydro orbital   3 d accepted.
  | Species O :    hydro orbital   3 d accepted.
  | Species O :    hydro orbital   4 f accepted.
  | Species O :    hydro orbital   5 g accepted.
 
  Basis size parameters after reduction:
  | Total number of radial functions:       40
  | Total number of basis functions :      840
 
  Testing on-site integration grid accuracy.
  |  Species  Function  <phi|h_atom|phi> (log., in eV)  <phi|h_atom|phi> (rad., in eV)
           1        1                 -6.4869821809                 -6.4870742227
           1        2                 13.5044133542                 13.5041049177
           1        3                 32.7854418792                 32.7779770519
           1        4                 33.7995553101                 33.7152624900 ***
           1        5                 28.8558651799                 28.8558652046
           1        6                 59.6361831893                 59.6362535845
           1        7                 60.2733718049                 60.2733715484
           2        8               -273.2358277112               -273.2358261765
           2        9                -10.7624923123                -10.7625144012
           2       10                 17.4634079027                 17.4634252127
           2       11                 53.0363661832                 53.0366180446
           2       12                 15.0981351967                 15.0981317714
           2       13                  3.8522181899                  3.8522770949
           2       14                 12.1181835661                 12.1206868578
           2       15                 29.4320778347                 29.4320780959
           2       16                 54.8753777694                 54.8752901936
           2       17                 59.3533975461                 59.3533974833
           2       18                 93.4537491195                 93.4537492066
           3       19               -384.4698526889               -384.4698499465
           3       20                 12.5691022037                 12.5690910168
           3       21                -15.7489097511                -15.7489165588
           3       22                 27.0978334940                 27.0985589490
           3       23                 18.5949116966                 18.5949125562
           3       24                  1.2212828291                  1.2212855301
           3       25                 13.4428926797                 13.4434051125
           3       26                 35.9380614500                 35.9380613666
           3       27                 39.9231532098                 39.9231654735
           3       28                 72.9957335806                 72.9957336833
           3       29                116.4231321147                116.4231321431
           4       30               -514.2564144315               -514.2564099626
           4       31                 15.1726678541                 15.1726530877
           4       32                -21.5447785304                -21.5447874973
           4       33                 14.4944558459                 14.4944698284
           4       34                 20.8882174564                 20.8882178906
           4       35                 -2.4850315908                 -2.4850322289
           4       36                 13.8600193195                 13.8599826966
           4       37                 45.8243383616                 45.8243383675
           4       38                 52.1840606465                 52.1840622440
           4       39                 85.4074185510                 85.4074185819
           4       40                142.0983717302                142.0983717339
 * Note: Onsite integrals marked "***" above are less accurate than
 * onsite_accuracy_threshold =    0.03000 eV. Usually, this is harmless.
 * When in doubt, tighten the "radial" and/or "radial_multiplier" flags to check.

  Preparing densities etc. for the partition functions (integrals / Hartree potential).

  Preparations completed.
  max(cpu_time)          :      0.240 s.
  Wall clock time (cpu1) :      0.239 s.
------------------------------------------------------------

------------------------------------------------------------
          Begin self-consistency loop: Initialization.

          Date     :  20170309, Time     :  185426.665
------------------------------------------------------------

  Initializing index lists of integration centers etc. from given atomic structure:
  | Number of centers in hartree potential         :        32
  | Number of centers in hartree multipole         :        32
  | Number of centers in electron density summation:        32
  | Number of centers in basis integrals           :        32
  | Number of centers in integrals                 :        32
  | Number of centers in hamiltonian               :        32
  Using modified Scalapack Eigenvalue solver (ELPA)
  * Using 32 tasks for Scalapack Eigenvalue solver.
  Detailed listing of tasks and assigned k-points:
  (for non-periodic systems, the "k-point" denotes an internal label only)
   Task     0 k-point     1 on eos026
   Task     1 k-point     1 on eos026
   Task     2 k-point     1 on eos026
   Task     3 k-point     1 on eos026
   Task     4 k-point     1 on eos026
   Task     5 k-point     1 on eos026
   Task     6 k-point     1 on eos026
   Task     7 k-point     1 on eos026
   Task     8 k-point     1 on eos026
   Task     9 k-point     1 on eos026
   Task    10 k-point     1 on eos026
   Task    11 k-point     1 on eos026
   Task    12 k-point     1 on eos026
   Task    13 k-point     1 on eos026
   Task    14 k-point     1 on eos026
   Task    15 k-point     1 on eos026
   Task    16 k-point     1 on eos026
   Task    17 k-point     1 on eos026
   Task    18 k-point     1 on eos026
   Task    19 k-point     1 on eos026
   Task    20 k-point     1 on eos026
   Task    21 k-point     1 on eos026
   Task    22 k-point     1 on eos026
   Task    23 k-point     1 on eos026
   Task    24 k-point     1 on eos026
   Task    25 k-point     1 on eos026
   Task    26 k-point     1 on eos026
   Task    27 k-point     1 on eos026
   Task    28 k-point     1 on eos026
   Task    29 k-point     1 on eos026
   Task    30 k-point     1 on eos026
   Task    31 k-point     1 on eos026
  Tasks:    32 split into      8 X      4 BLACS grid
  Calculating blocksize based on n_basis =          840 max_nprow =            8 max_npcol =            4
  Scalapack blocksize set to:           16
  Required Scalapack workspace - INTEGER:            1 REAL:             1
  Partitioning the integration grid into batches with parallel hashing+maxmin method.
  | Number of batches:     5172
  | Maximal batch size:     200
  | Minimal batch size:      17
  | Average batch size:     102.036
  | Standard deviation of batch sizes:      31.799

  Integration load balanced across    32 MPI tasks.
  Work distribution over tasks is as follows:
  Task     0 has      16568 integration points.
  Task     1 has      16466 integration points.
  Task     2 has      16472 integration points.
  Task     3 has      16521 integration points.
  Task     4 has      16448 integration points.
  Task     5 has      16442 integration points.
  Task     6 has      16525 integration points.
  Task     7 has      16503 integration points.
  Task     8 has      16532 integration points.
  Task     9 has      16462 integration points.
  Task    10 has      16434 integration points.
  Task    11 has      16633 integration points.
  Task    12 has      16475 integration points.
  Task    13 has      16502 integration points.
  Task    14 has      16520 integration points.
  Task    15 has      16476 integration points.
  Task    16 has      16481 integration points.
  Task    17 has      16458 integration points.
  Task    18 has      16511 integration points.
  Task    19 has      16463 integration points.
  Task    20 has      16466 integration points.
  Task    21 has      16494 integration points.
  Task    22 has      16476 integration points.
  Task    23 has      16442 integration points.
  Task    24 has      16435 integration points.
  Task    25 has      16479 integration points.
  Task    26 has      16485 integration points.
  Task    27 has      16438 integration points.
  Task    28 has      16471 integration points.
  Task    29 has      16586 integration points.
  Task    30 has      16555 integration points.
  Task    31 has      16509 integration points.
  Initializing partition tables, free-atom densities, potentials, etc. across the integration grid (initialize_grid_storage).
  | initialize_grid_storage: Actual outermost partition radius vs. multipole_radius_free
  | (-- VB: in principle, multipole_radius_free should be larger, hence this output)
  | Species        1: Confinement radius =              6.000000000000000 AA, multipole_radius_free =              6.071692442739658 AA.
  | Species        1: outer_partition_radius set to              6.071692442739658 AA .
  | Species        2: Confinement radius =              6.000000000000000 AA, multipole_radius_free =              6.029870734432609 AA.
  | Species        2: outer_partition_radius set to              6.029870734432609 AA .
  | Species        3: Confinement radius =              6.000000000000000 AA, multipole_radius_free =              6.058726835495003 AA.
  | Species        3: outer_partition_radius set to              6.058726835495003 AA .
  | Species        4: Confinement radius =              6.000000000000000 AA, multipole_radius_free =              6.064445521808699 AA.
  | Species        4: outer_partition_radius set to              6.064445521808699 AA .
  | Original list of interatomic distances with          32 x         32 entries is created.
  | Net number of integration points:   527728
  | of which are non-zero points    :   411316
  Obtaining max. number of non-zero basis functions in each batch (get_n_compute_maxes).
  | Maximal number of non-zero basis functions:      784 in task     0
  | Maximal number of non-zero basis functions:      774 in task     1
  | Maximal number of non-zero basis functions:      773 in task     2
  | Maximal number of non-zero basis functions:      792 in task     3
  | Maximal number of non-zero basis functions:      793 in task     4
  | Maximal number of non-zero basis functions:      788 in task     5
  | Maximal number of non-zero basis functions:      788 in task     6
  | Maximal number of non-zero basis functions:      804 in task     7
  | Maximal number of non-zero basis functions:      778 in task     8
  | Maximal number of non-zero basis functions:      777 in task     9
  | Maximal number of non-zero basis functions:      795 in task    10
  | Maximal number of non-zero basis functions:      794 in task    11
  | Maximal number of non-zero basis functions:      769 in task    12
  | Maximal number of non-zero basis functions:      792 in task    13
  | Maximal number of non-zero basis functions:      784 in task    14
  | Maximal number of non-zero basis functions:      776 in task    15
  | Maximal number of non-zero basis functions:      785 in task    16
  | Maximal number of non-zero basis functions:      791 in task    17
  | Maximal number of non-zero basis functions:      785 in task    18
  | Maximal number of non-zero basis functions:      787 in task    19
  | Maximal number of non-zero basis functions:      783 in task    20
  | Maximal number of non-zero basis functions:      785 in task    21
  | Maximal number of non-zero basis functions:      787 in task    22
  | Maximal number of non-zero basis functions:      788 in task    23
  | Maximal number of non-zero basis functions:      781 in task    24
  | Maximal number of non-zero basis functions:      787 in task    25
  | Maximal number of non-zero basis functions:      803 in task    26
  | Maximal number of non-zero basis functions:      795 in task    27
  | Maximal number of non-zero basis functions:      788 in task    28
  | Maximal number of non-zero basis functions:      784 in task    29
  | Maximal number of non-zero basis functions:      789 in task    30
  | Maximal number of non-zero basis functions:      791 in task    31
  Selecting the method for density update.
  Loop over occupied states selected for charge density update.
  Integrating Hamiltonian matrix: batch-based integration.
  Time summed over all CPUs for integration: real work       23.994 s, elapsed       24.884 s
  Integrating overlap matrix.
  Time summed over all CPUs for integration: real work       14.859 s, elapsed       15.397 s
  Deallocating overlap matrix.

  Updating Kohn-Sham eigenvalues, eigenvectors, occupation numbers, and Fermi level.
  Solving generalized eigenproblem
  Solving real symmetric generalised eigenvalue problem by standard ScaLAPACK.
  Transforming overlap matrix with ScaLAPACK and checking for singularities.
  : Overlap matrix is nonsingular, using Cholesky decomposition
  | Lowest eigenvalue:  0.948855E-04
  Factoring overlap matrix with Cholesky decomposition
  Using Cholesky factor for transformation
  Using 1-stage real ELPA solver
  Determining occupation numbers for Kohn-Sham eigenstates.
  | Chemical potential (Fermi level) in eV                 : -.97941351E+01
  | Error in electron count due to remaining E_F inaccuracy: 0.00000000E+00
  | Maximum occupation number of highest empty state:  0.00E+00

  Writing Kohn-Sham eigenvalues.

  State    Occupation    Eigenvalue [Ha]    Eigenvalue [eV]
      1       2.00000         -18.974253         -516.31569
      2       2.00000         -18.973955         -516.30759
      3       2.00000         -18.973868         -516.30521
      4       2.00000         -14.254834         -387.89378
      5       2.00000         -14.253825         -387.86632
      6       2.00000         -14.252043         -387.81781
      7       2.00000         -10.172021         -276.79478
      8       2.00000         -10.171468         -276.77973
      9       2.00000         -10.171086         -276.76934
     10       2.00000         -10.166227         -276.63710
     11       2.00000         -10.146749         -276.10709
     12       2.00000         -10.146592         -276.10282
     13       2.00000         -10.136146         -275.81856
     14       2.00000         -10.133943         -275.75862
     15       2.00000         -10.131584         -275.69444
     16       2.00000          -1.136658          -30.93004
     17       2.00000          -1.131473          -30.78894
     18       2.00000          -1.127653          -30.68501
     19       2.00000          -1.014981          -27.61904
     20       2.00000          -1.013885          -27.58922
     21       2.00000          -1.001555          -27.25369
     22       2.00000          -0.884912          -24.07967
     23       2.00000          -0.877692          -23.88321
     24       2.00000          -0.841318          -22.89343
     25       2.00000          -0.818851          -22.28208
     26       2.00000          -0.777106          -21.14612
     27       2.00000          -0.764557          -20.80466
     28       2.00000          -0.707164          -19.24290
     29       2.00000          -0.682514          -18.57216
     30       2.00000          -0.658801          -17.92689
     31       2.00000          -0.639261          -17.39518
     32       2.00000          -0.624695          -16.99882
     33       2.00000          -0.615235          -16.74140
     34       2.00000          -0.604543          -16.45046
     35       2.00000          -0.589944          -16.05320
     36       2.00000          -0.585571          -15.93421
     37       2.00000          -0.565311          -15.38290
     38       2.00000          -0.560476          -15.25132
     39       2.00000          -0.557166          -15.16124
     40       2.00000          -0.556300          -15.13769
     41       2.00000          -0.549596          -14.95528
     42       2.00000          -0.541916          -14.74627
     43       2.00000          -0.532828          -14.49900
     44       2.00000          -0.530099          -14.42473
     45       2.00000          -0.520968          -14.17625
     46       2.00000          -0.517292          -14.07623
     47       2.00000          -0.511697          -13.92400
     48       2.00000          -0.504433          -13.72631
     49       2.00000          -0.495801          -13.49144
     50       2.00000          -0.478425          -13.01860
     51       2.00000          -0.474782          -12.91949
     52       2.00000          -0.473403          -12.88196
     53       2.00000          -0.410797          -11.17835
     54       2.00000          -0.404515          -11.00742
     55       2.00000          -0.401891          -10.93602
     56       2.00000          -0.391902          -10.66420
     57       2.00000          -0.383611          -10.43859
     58       2.00000          -0.379706          -10.33233
     59       0.00000          -0.165719           -4.50943
     60       0.00000          -0.161149           -4.38508
     61       0.00000          -0.156565           -4.26034
     62       0.00000          -0.080844           -2.19986
     63       0.00000          -0.070569           -1.92028
     64       0.00000          -0.061684           -1.67852
     65       0.00000          -0.059788           -1.62690
     66       0.00000          -0.044896           -1.22168
     67       0.00000          -0.039243           -1.06786
     68       0.00000          -0.036619           -0.99644
     69       0.00000          -0.025201           -0.68575
     70       0.00000          -0.023186           -0.63093
     71       0.00000          -0.021382           -0.58182
     72       0.00000          -0.013783           -0.37504
     73       0.00000          -0.012534           -0.34108
     74       0.00000          -0.008007           -0.21789
     75       0.00000          -0.003486           -0.09486
     76       0.00000          -0.002214           -0.06024
     77       0.00000           0.000357            0.00972
     78       0.00000           0.002617            0.07121
     79       0.00000           0.014867            0.40456
     80       0.00000           0.019103            0.51982
     81       0.00000           0.024918            0.67805
     82       0.00000           0.029860            0.81253
     83       0.00000           0.035887            0.97653
     84       0.00000           0.040133            1.09207
     85       0.00000           0.044464            1.20993
     86       0.00000           0.050249            1.36734
     87       0.00000           0.052139            1.41879
     88       0.00000           0.058838            1.60106
     89       0.00000           0.071319            1.94070
     90       0.00000           0.075768            2.06174
     91       0.00000           0.078112            2.12552
     92       0.00000           0.078867            2.14609
     93       0.00000           0.083989            2.28547
     94       0.00000           0.093749            2.55104
     95       0.00000           0.100234            2.72751
     96       0.00000           0.106075            2.88645
     97       0.00000           0.110938            3.01877
     98       0.00000           0.112097            3.05030
     99       0.00000           0.118099            3.21364
    100       0.00000           0.118494            3.22439
    101       0.00000           0.122783            3.34110
    102       0.00000           0.129734            3.53024
    103       0.00000           0.142768            3.88491
    104       0.00000           0.144344            3.92779
    105       0.00000           0.151889            4.13312
    106       0.00000           0.153781            4.18460
    107       0.00000           0.161028            4.38180
    108       0.00000           0.163219            4.44143
    109       0.00000           0.166733            4.53703
    110       0.00000           0.169291            4.60663
    111       0.00000           0.181055            4.92675
    112       0.00000           0.182020            4.95301
    113       0.00000           0.189443            5.15501
    114       0.00000           0.192017            5.22504
    115       0.00000           0.193005            5.25193
    116       0.00000           0.200744            5.46253
    117       0.00000           0.203887            5.54805
    118       0.00000           0.208723            5.67964
    119       0.00000           0.212441            5.78082
    120       0.00000           0.218711            5.95144
    121       0.00000           0.223814            6.09030
    122       0.00000           0.225896            6.14694
    123       0.00000           0.232450            6.32527
    124       0.00000           0.239612            6.52018
    125       0.00000           0.250218            6.80877
    126       0.00000           0.256107            6.96903
    127       0.00000           0.263564            7.17195
    128       0.00000           0.268079            7.29479
    129       0.00000           0.276946            7.53607

  Highest occupied state (VBM) at    -10.33232775 eV
  | Occupation number:      2.00000000

  Lowest unoccupied state (CBM) at    -4.50943199 eV
  | Occupation number:      0.00000000

  Overall HOMO-LUMO gap:      5.82289576 eV.
  Calculating total energy contributions from superposition of free atom densities.

  Total energy components:
  | Sum of eigenvalues            :        -437.79976277 Ha      -11913.13767884 eV
  | XC energy correction          :         -98.81859921 Ha       -2688.99089894 eV
  | XC potential correction       :         127.02074337 Ha        3456.41028721 eV
  | Free-atom electrostatic energy:        -333.67305510 Ha       -9079.70579974 eV
  | Hartree energy correction     :           0.00000000 Ha           0.00000000 eV
  | vdW energy correction         :           0.00000000 Ha           0.00000000 eV
  | Entropy correction            :          -0.00000000 Ha          -0.00000000 eV
  | ---------------------------
  | Total energy                  :        -743.27067373 Ha      -20225.42409032 eV
  | Total energy, T -> 0          :        -743.27067373 Ha      -20225.42409032 eV  <-- do not rely on this value for anything but (periodic) metals
  | Electronic free energy        :        -743.27067373 Ha      -20225.42409032 eV

  Derived energy quantities:
  | Kinetic energy                :         735.15574342 Ha       20004.60560168 eV
  | Electrostatic energy          :       -1379.60781794 Ha      -37541.03879306 eV
  | Energy correction for multipole
  | error in Hartree potential    :           0.00000000 Ha           0.00000000 eV
  | Sum of eigenvalues per atom                           :        -372.28555246 eV
  | Total energy (T->0) per atom                          :        -632.04450282 eV  <-- do not rely on this value for anything but (periodic) metals
  | Electronic free energy per atom                       :        -632.04450282 eV
  Initialize hartree_potential_storage
  Max. number of atoms included in rho_multipole:           32

  End scf initialization - timings             :  max(cpu_time)    wall_clock(cpu1)
  | Time for scf. initialization               :        2.008 s           2.006 s
  | Boundary condition initialization          :        0.000 s           0.000 s
  | Integration                                :        1.284 s           1.280 s
  | Solution of K.-S. eqns.                    :        0.076 s           0.075 s
  | Grid partitioning                          :        0.288 s           0.283 s
  | Preloading free-atom quantities on grid    :        0.028 s           0.028 s
  | Free-atom superposition energy             :        0.040 s           0.039 s
  | Total energy evaluation                    :        0.004 s           0.001 s
------------------------------------------------------------

------------------------------------------------------------
          Begin self-consistency iteration #    1

  Date     :  20170309, Time     :  185428.672
------------------------------------------------------------
  Evaluating new KS density.
  Integration grid: deviation in total charge (<rho> - N_e) =   1.421085E-14
  Pulay mixing of updated and previous charge densities.

  Evaluating partitioned Hartree potential by multipole expansion.
  | Analytical far-field extrapolation by fixed multipoles:
  | Hartree multipole sum: apparent total charge =  -0.376603E-04
  Summing up the Hartree potential.
  Time summed over all CPUs for potential: real work        9.587 s, elapsed        9.852 s
  | RMS charge density error from multipole expansion :   0.106492E-01

  Integrating Hamiltonian matrix: batch-based integration.
  Time summed over all CPUs for integration: real work       23.729 s, elapsed       24.683 s

  Updating Kohn-Sham eigenvalues, eigenvectors, occupation numbers, and Fermi level.
  Solving generalized eigenproblem
  Solving real symmetric generalised eigenvalue problem by standard ScaLAPACK.
  Using Cholesky factor for transformation
  Using 2-stage real ELPA solver
  K-Point:    1, Trafo times: 1-stage=     0.021 s, 2-stage=     0.019 s ==> Using 2-stage solver
  Determining occupation numbers for Kohn-Sham eigenstates.
  | Chemical potential (Fermi level) in eV                 : -.43901493E+01
  | Error in electron count due to remaining E_F inaccuracy: 0.00000000E+00
  | Maximum occupation number of highest empty state:  0.00E+00

  Writing Kohn-Sham eigenvalues.

  State    Occupation    Eigenvalue [Ha]    Eigenvalue [eV]
      1       2.00000         -18.613613         -506.50219
      2       2.00000         -18.611169         -506.43567
      3       2.00000         -18.610782         -506.42515
      4       2.00000         -13.991145         -380.71844
      5       2.00000         -13.978742         -380.38093
      6       2.00000         -13.975058         -380.28068
      7       2.00000         -10.058754         -273.71261
      8       2.00000         -10.049794         -273.46882
      9       2.00000         -10.039208         -273.18074
     10       2.00000          -9.969002         -271.27034
     11       2.00000          -9.959857         -271.02149
     12       2.00000          -9.882423         -268.91442
     13       2.00000          -9.841226         -267.79337
     14       2.00000          -9.829641         -267.47815
     15       2.00000          -9.823195         -267.30274
     16       2.00000          -0.966563          -26.30151
     17       2.00000          -0.955129          -25.99038
     18       2.00000          -0.944848          -25.71063
     19       2.00000          -0.864148          -23.51467
     20       2.00000          -0.854091          -23.24101
     21       2.00000          -0.846739          -23.04094
     22       2.00000          -0.732054          -19.92020
     23       2.00000          -0.723619          -19.69066
     24       2.00000          -0.678212          -18.45508
     25       2.00000          -0.665520          -18.10973
     26       2.00000          -0.630052          -17.14458
     27       2.00000          -0.617751          -16.80987
     28       2.00000          -0.579330          -15.76436
     29       2.00000          -0.547743          -14.90484
     30       2.00000          -0.523191          -14.23675
     31       2.00000          -0.500288          -13.61352
     32       2.00000          -0.489084          -13.30865
     33       2.00000          -0.469253          -12.76903
     34       2.00000          -0.455972          -12.40763
     35       2.00000          -0.444972          -12.10829
     36       2.00000          -0.432913          -11.78016
     37       2.00000          -0.418456          -11.38676
     38       2.00000          -0.415452          -11.30502
     39       2.00000          -0.407843          -11.09796
     40       2.00000          -0.390819          -10.63473
     41       2.00000          -0.387840          -10.55366
     42       2.00000          -0.384607          -10.46568
     43       2.00000          -0.374740          -10.19718
     44       2.00000          -0.371028          -10.09618
     45       2.00000          -0.369233          -10.04734
     46       2.00000          -0.360643           -9.81359
     47       2.00000          -0.359284           -9.77661
     48       2.00000          -0.349893           -9.52107
     49       2.00000          -0.344707           -9.37995
     50       2.00000          -0.335001           -9.11583
     51       2.00000          -0.332018           -9.03468
     52       2.00000          -0.320255           -8.71459
     53       2.00000          -0.236296           -6.42994
     54       2.00000          -0.231634           -6.30307
     55       2.00000          -0.221107           -6.01662
     56       2.00000          -0.214382           -5.83362
     57       2.00000          -0.203508           -5.53774
     58       2.00000          -0.201278           -5.47706
     59       0.00000          -0.054623           -1.48636
     60       0.00000          -0.050032           -1.36143
     61       0.00000          -0.036914           -1.00449
     62       0.00000          -0.027416           -0.74601
     63       0.00000          -0.024271           -0.66046
     64       0.00000          -0.012218           -0.33246
     65       0.00000          -0.006805           -0.18517
     66       0.00000           0.005621            0.15295
     67       0.00000           0.014610            0.39756
     68       0.00000           0.016762            0.45611
     69       0.00000           0.025332            0.68931
     70       0.00000           0.036563            0.99492
     71       0.00000           0.039731            1.08112
     72       0.00000           0.044035            1.19826
     73       0.00000           0.049467            1.34607
     74       0.00000           0.057062            1.55274
     75       0.00000           0.060767            1.65354
     76       0.00000           0.062600            1.70344
     77       0.00000           0.081003            2.20420
     78       0.00000           0.084276            2.29327
     79       0.00000           0.087311            2.37586
     80       0.00000           0.093137            2.53438
     81       0.00000           0.094488            2.57114
     82       0.00000           0.098988            2.69360
     83       0.00000           0.105637            2.87454
     84       0.00000           0.114340            3.11135
     85       0.00000           0.117109            3.18669
     86       0.00000           0.121649            3.31024
     87       0.00000           0.127794            3.47745
     88       0.00000           0.132965            3.61817
     89       0.00000           0.135237            3.68000
     90       0.00000           0.137432            3.73970
     91       0.00000           0.150001            4.08174
     92       0.00000           0.155133            4.22138
     93       0.00000           0.157227            4.27837
     94       0.00000           0.160218            4.35977
     95       0.00000           0.172036            4.68134
     96       0.00000           0.176070            4.79110
     97       0.00000           0.180554            4.91311
     98       0.00000           0.183232            4.98600
     99       0.00000           0.188936            5.14121
    100       0.00000           0.193387            5.26233
    101       0.00000           0.193870            5.27546
    102       0.00000           0.202704            5.51584
    103       0.00000           0.205066            5.58014
    104       0.00000           0.208085            5.66227
    105       0.00000           0.211534            5.75614
    106       0.00000           0.216693            5.89653
    107       0.00000           0.224343            6.10469
    108       0.00000           0.226824            6.17220
    109       0.00000           0.233884            6.36431
    110       0.00000           0.237744            6.46935
    111       0.00000           0.243770            6.63331
    112       0.00000           0.247490            6.73454
    113       0.00000           0.250797            6.82453
    114       0.00000           0.257227            6.99951
    115       0.00000           0.261833            7.12484
    116       0.00000           0.268218            7.29858
    117       0.00000           0.272826            7.42396
    118       0.00000           0.278796            7.58643
    119       0.00000           0.283384            7.71127
    120       0.00000           0.289598            7.88036
    121       0.00000           0.294527            8.01449
    122       0.00000           0.300697            8.18239
    123       0.00000           0.308524            8.39538
    124       0.00000           0.316113            8.60187
    125       0.00000           0.319818            8.70270
    126       0.00000           0.328081            8.92753
    127       0.00000           0.334534            9.10313
    128       0.00000           0.345349            9.39744
    129       0.00000           0.350917            9.54893

  Highest occupied state (VBM) at     -5.47705635 eV
  | Occupation number:      2.00000000

  Lowest unoccupied state (CBM) at    -1.48636368 eV
  | Occupation number:      0.00000000

  Overall HOMO-LUMO gap:      3.99069267 eV.

  Total energy components:
  | Sum of eigenvalues            :        -416.77020562 Ha      -11340.89431315 eV
  | XC energy correction          :        -100.74646264 Ha       -2741.45073183 eV
  | XC potential correction       :         129.52030874 Ha        3524.42692156 eV
  | Free-atom electrostatic energy:        -333.67305510 Ha       -9079.70579974 eV
  | Hartree energy correction     :         -21.02887706 Ha        -572.22485929 eV
  | vdW energy correction         :           0.00000000 Ha           0.00000000 eV
  | Entropy correction            :          -0.00000000 Ha          -0.00000000 eV
  | ---------------------------
  | Total energy                  :        -742.69829168 Ha      -20209.84878246 eV
  | Total energy, T -> 0          :        -742.69829168 Ha      -20209.84878246 eV  <-- do not rely on this value for anything but (periodic) metals
  | Electronic free energy        :        -742.69829168 Ha      -20209.84878246 eV

  Derived energy quantities:
  | Kinetic energy                :         744.00765029 Ha       20245.47824312 eV
  | Electrostatic energy          :       -1385.95947934 Ha      -37713.87629375 eV
  | Energy correction for multipole
  | error in Hartree potential    :          -0.04246300 Ha          -1.15547701 eV
  | Sum of eigenvalues per atom                           :        -354.40294729 eV
  | Total energy (T->0) per atom                          :        -631.55777445 eV  <-- do not rely on this value for anything but (periodic) metals
  | Electronic free energy per atom                       :        -631.55777445 eV

  Self-consistency convergence accuracy:
  | Change of charge density      :  0.9037E+00
  | Change of sum of eigenvalues  :  0.5722E+03 eV
  | Change of total energy        :  0.1558E+02 eV

  End self-consistency iteration #     1       :  max(cpu_time)    wall_clock(cpu1)
  | Time for this iteration                    :        1.644 s           1.644 s
  | Charge density update                      :        0.512 s           0.510 s
[...]
   ----------------------------------------------------------------
   Total forces(  20)            :  0.114302E-03 -0.175406E-02  0.155751E-02
  atom #   21
   Hellmann-Feynman              :  0.698005E-02 -0.408615E-01 -0.568933E-01
   Ionic forces                  :  0.000000E+00  0.000000E+00  0.000000E+00
   Multipole                     : -0.548911E-02 -0.291261E-02  0.461060E-01
   Pulay + GGA                   : -0.667123E-02  0.599019E-01  0.113707E-01
   Van der Waals                 :  0.427007E-02 -0.164753E-01  0.233955E-03
   ----------------------------------------------------------------
   Total forces(  21)            : -0.910221E-03 -0.347510E-03  0.817377E-03
  atom #   22
   Hellmann-Feynman              : -0.154940E-01 -0.658978E-01 -0.286337E-01
   Ionic forces                  :  0.000000E+00  0.000000E+00  0.000000E+00
   Multipole                     :  0.101507E-01 -0.322187E-02  0.102161E-01
   Pulay + GGA                   :  0.192284E-02  0.646049E-01  0.248474E-01
   Van der Waals                 :  0.378425E-02  0.452350E-02 -0.682653E-02
   ----------------------------------------------------------------
   Total forces(  22)            :  0.363740E-03  0.874593E-05 -0.396662E-03
  atom #   23
   Hellmann-Feynman              : -0.963177E+00 -0.550635E+00  0.338383E+00
   Ionic forces                  :  0.000000E+00  0.000000E+00  0.000000E+00
   Multipole                     :  0.243590E+00  0.255812E+00 -0.106708E-01
   Pulay + GGA                   :  0.716856E+00  0.295935E+00 -0.319161E+00
   Van der Waals                 :  0.418746E-02 -0.604362E-03 -0.792597E-02
   ----------------------------------------------------------------
   Total forces(  23)            :  0.145632E-02  0.507605E-03  0.624867E-03
  atom #   24
   Hellmann-Feynman              :  0.585312E-01  0.808704E-02 -0.111531E-01
   Ionic forces                  :  0.000000E+00  0.000000E+00  0.000000E+00
   Multipole                     : -0.188947E-01 -0.669425E-02 -0.348331E-01
   Pulay + GGA                   : -0.342001E-01  0.121136E-02  0.517997E-01
   Van der Waals                 : -0.556548E-02 -0.250153E-02 -0.584269E-02
   ----------------------------------------------------------------
   Total forces(  24)            : -0.129131E-03  0.102625E-03 -0.291981E-04
  atom #   25
   Hellmann-Feynman              :  0.234933E-01  0.244911E-01  0.415404E-01
   Ionic forces                  :  0.000000E+00  0.000000E+00  0.000000E+00
   Multipole                     : -0.105569E-01  0.199399E-01  0.142811E-01
   Pulay + GGA                   :  0.973719E-03 -0.430564E-01 -0.555764E-01
   Van der Waals                 : -0.138212E-01 -0.108538E-02 -0.242703E-03
   ----------------------------------------------------------------
   Total forces(  25)            :  0.888684E-04  0.289130E-03  0.244941E-05
  atom #   26
   Hellmann-Feynman              :  0.505860E-01  0.417290E-02  0.950341E-02
   Ionic forces                  :  0.000000E+00  0.000000E+00  0.000000E+00
   Multipole                     : -0.123784E-01 -0.351491E-01  0.844048E-02
   Pulay + GGA                   : -0.425647E-01  0.362086E-01 -0.133038E-01
   Van der Waals                 :  0.416886E-02 -0.520573E-02 -0.470136E-02
   ----------------------------------------------------------------
   Total forces(  26)            : -0.188317E-03  0.266646E-04 -0.612758E-04
  atom #   27
   Hellmann-Feynman              : -0.596745E+00 -0.684935E+00  0.954318E+00
   Ionic forces                  :  0.000000E+00  0.000000E+00  0.000000E+00
   Multipole                     : -0.120940E+00 -0.187109E+00  0.425931E-01
   Pulay + GGA                   :  0.719791E+00  0.882199E+00 -0.987054E+00
   Van der Waals                 : -0.404484E-02 -0.867054E-02 -0.109372E-01
   ----------------------------------------------------------------
   Total forces(  27)            : -0.193901E-02  0.148385E-02 -0.107990E-02
  atom #   28
   Hellmann-Feynman              :  0.118077E+01  0.172198E+01 -0.142739E+01
   Ionic forces                  :  0.000000E+00  0.000000E+00  0.000000E+00
   Multipole                     : -0.467946E-01 -0.138226E+00  0.113747E+00
   Pulay + GGA                   : -0.113446E+01 -0.157159E+01  0.133157E+01
   Van der Waals                 :  0.270809E-03 -0.148092E-01 -0.161633E-01
   ----------------------------------------------------------------
   Total forces(  28)            : -0.214393E-03 -0.264754E-02  0.175836E-02
  atom #   29
   Hellmann-Feynman              : -0.658720E-01  0.217330E-02 -0.316484E-02
   Ionic forces                  :  0.000000E+00  0.000000E+00  0.000000E+00
   Multipole                     :  0.258893E-01  0.307255E-01 -0.173130E-01
   Pulay + GGA                   :  0.509310E-01 -0.312249E-01  0.286322E-01
   Van der Waals                 : -0.107883E-01 -0.114832E-02 -0.890476E-02
   ----------------------------------------------------------------
   Total forces(  29)            :  0.160078E-03  0.525572E-03 -0.750367E-03
  atom #   30
   Hellmann-Feynman              :  0.307094E-03 -0.291063E-01  0.210968E-01
   Ionic forces                  :  0.000000E+00  0.000000E+00  0.000000E+00
   Multipole                     : -0.571400E-02  0.163943E-01  0.249987E-01
   Pulay + GGA                   :  0.776389E-02  0.170667E-01 -0.391135E-01
   Van der Waals                 : -0.196673E-02 -0.445274E-02 -0.810367E-02
   ----------------------------------------------------------------
   Total forces(  30)            :  0.390252E-03 -0.980827E-04 -0.112170E-02
  atom #   31
   Hellmann-Feynman              : -0.434360E-01 -0.295357E-01  0.594426E-02
   Ionic forces                  :  0.000000E+00  0.000000E+00  0.000000E+00
   Multipole                     : -0.692221E-02  0.217153E-01 -0.345916E-01
   Pulay + GGA                   :  0.577580E-01  0.892538E-02  0.316936E-01
   Van der Waals                 : -0.714154E-02 -0.164088E-02 -0.371291E-02
   ----------------------------------------------------------------
   Total forces(  31)            :  0.258278E-03 -0.535916E-03 -0.666621E-03
  atom #   32
   Hellmann-Feynman              :  0.111959E-01 -0.535233E-01  0.110309E-01
   Ionic forces                  :  0.000000E+00  0.000000E+00  0.000000E+00
   Multipole                     :  0.140948E-01 -0.114549E-01 -0.247882E-01
   Pulay + GGA                   : -0.401580E-01  0.592716E-01  0.139261E-01
   Van der Waals                 :  0.152993E-01  0.637755E-02 -0.134433E-02
   ----------------------------------------------------------------
   Total forces(  32)            :  0.432055E-03  0.670837E-03 -0.117547E-02

  Timings for VdW correction (Tkatchenko-Scheffler 2009 or later):
  | CPU time:        0.132 s, Wall clock time:        0.129 s.
  Removing unitary transformations (pure translations, rotations) from forces on atoms.
  Atomic forces before filtering:
  | Net force on center of mass :   0.998945E-04  0.419713E-04 -0.407088E-03 eV/A
  | Net torque on center of mass:  -0.239538E-02 -0.369365E-02 -0.150079E-02 eV
  Atomic forces after filtering:
  | Net force on center of mass :  -0.696899E-18  0.958236E-18  0.104535E-17 eV/A
  | Net torque on center of mass:  -0.442540E-17 -0.165952E-17  0.184392E-18 eV

  Energy and forces in a compact form:
  | Total energy uncorrected      :         -0.202082542929925E+05 eV
  | Total energy corrected        :         -0.202082542929925E+05 eV  <-- do not rely on this value for anything but (periodic) metals
  | Electronic free energy        :         -0.202082542929925E+05 eV
  Total atomic forces (unitary forces cleaned) [eV/Ang]:
  |   1         -0.135271184316437E-02          0.119509747777622E-02          0.295191190535055E-03
  |   2          0.101170878487601E-02          0.902671439316098E-03         -0.122323860490163E-02
  |   3         -0.811162593868613E-03          0.190643342568098E-02          0.685407096362360E-03
  |   4          0.185367177526997E-03          0.104612614628657E-02          0.621558230244617E-04
  |   5          0.107690425809914E-03         -0.342634761190445E-03          0.658459074455044E-03
  |   6          0.173219284792821E-02         -0.159044194194289E-03          0.199696338472681E-03
  |   7          0.394558080428327E-04         -0.282985892565014E-02          0.252148882821548E-02
  |   8          0.127601112014211E-02          0.277532906684764E-02          0.164716519122422E-02
  |   9          0.185947291793394E-03         -0.483277264194507E-02          0.250883271772964E-02
  |  10          0.554441404039433E-03          0.152285456753472E-02         -0.134026162063567E-02
  |  11         -0.120337517785469E-02          0.472118994708691E-03         -0.141891934877517E-02
  |  12          0.318063912825926E-03          0.315880213535165E-03          0.102668135993372E-03
  |  13         -0.944864219254442E-03          0.150087714778349E-02         -0.254704459313810E-02
  |  14         -0.662207051906598E-03         -0.616672179154149E-03          0.187133450825770E-02
  |  15         -0.468466716509929E-05         -0.317208905181429E-03          0.778644499756666E-03
  |  16         -0.112361229505657E-02         -0.281198248790670E-03          0.150638909033041E-03
  |  17         -0.832860224673425E-03         -0.359117203952805E-02         -0.650223523057630E-03
  |  18          0.135543442791482E-02          0.885398043158733E-03         -0.163036241271534E-02
  |  19          0.220800787365413E-04          0.251534201236904E-02         -0.246213332593010E-02
  |  20          0.172610813893082E-03         -0.178984416054290E-02          0.156609180811583E-02
  |  21         -0.929449100646525E-03         -0.364919893999123E-03          0.868726016131400E-03
  |  22          0.383027234311290E-03         -0.302989109498217E-04         -0.347880613910600E-03
  |  23          0.148374493672462E-02          0.461004267180551E-03          0.677559178071244E-03
  |  24         -0.824555044681084E-04          0.442905582093433E-04          0.235907584941495E-04
  |  25          0.115825828837745E-03          0.248423983560976E-03          0.467666559983785E-04
  |  26         -0.173035550665056E-03         -0.250933627770521E-04          0.101193900793394E-04
  |  27         -0.190817608676251E-02          0.147178230472582E-02         -0.108186345180645E-02
  |  28         -0.206543434292042E-03         -0.264701069418839E-02          0.175839755875437E-02
  |  29          0.204733824559402E-03          0.515714111640804E-03         -0.768146689999791E-03
  |  30          0.383369752678556E-03         -0.865348911662374E-04         -0.112478181488998E-02
  |  31          0.270426617101398E-03         -0.528773972867835E-03         -0.680351987862803E-03
  |  32          0.433005462035778E-03          0.663694021810783E-03         -0.115772569108115E-02

  ------------------------------------ 
  Start decomposition of the XC Energy 
  ------------------------------------ 
  Hartree-Fock part   :          0.000000000 Ha              0.000000000 eV
  ------------------------------------ 
  X Energy            :        -96.979753461 Ha          -2638.953360130 eV
  C Energy GGA        :         -3.871292150 Ha           -105.343219204 eV
  Total XC Energy     :       -100.851045610 Ha          -2744.296579334 eV
  LDA X and C from self-consistent density 
  X Energy LDA        :        -88.001155622 Ha          -2394.633282067 eV
  C Energy LDA        :         -7.532718457 Ha           -204.975698273 eV
  ------------------------------------ 
  End decomposition of the XC Energy 
  ------------------------------------ 
   
  ESP charge fitting starts.
  | Calculation :  00000001  of  00000001
  | Full density
  Computing multipole expansion for total density.
  Generating points for esp charges.
  Partitioning the integration grid into batches with parallel hashing+maxmin method.
  | Number of batches:     3857
  | Maximal batch size:     200
  | Minimal batch size:      51
  | Average batch size:     126.392
  | Standard deviation of batch sizes:      18.357

  Integration load balanced across    32 MPI tasks.
  Work distribution over tasks is as follows:
  Initializing partition tables, free-atom densities, potentials, etc. across the integration grid (initialize_grid_storage).
  | Original list of interatomic distances with          32 x         32 entries is created.
  | Net number of integration points:   487495
  | of which are non-zero points    :   487495
  Summing up potential from multipole expanded  density.
  Summing up the Hartree potential.
  Time summed over all CPUs for potential: real work        6.400 s, elapsed        6.603 s
  Fitting esp charges to potential.
  |
  | ESP charges fitted to the electrostatic potential :
  |
  | Atom         1: C, ESP charge:      0.82282374
  |
  | Atom         2: C, ESP charge:     -0.96852626
  |
  | Atom         3: O, ESP charge:      0.67785246
  |
  | Atom         4: H, ESP charge:     -0.19660169
  |
  | Atom         5: H, ESP charge:     -0.22758316
  |
  | Atom         6: H, ESP charge:     -0.22469270
  |
  | Atom         7: N, ESP charge:      0.73769211
  |
  | Atom         8: C, ESP charge:     -0.42787885
  |
  | Atom         9: C, ESP charge:     -0.34303501
  |
  | Atom        10: O, ESP charge:      0.50261970
  |
  | Atom        11: H, ESP charge:     -0.33868161
  |
  | Atom        12: H, ESP charge:     -0.09080888
  |
  | Atom        13: C, ESP charge:      0.98967355
  |
  | Atom        14: H, ESP charge:     -0.34343066
  |
  | Atom        15: H, ESP charge:     -0.24438136
  |
  | Atom        16: H, ESP charge:     -0.27260317
  |
  | Atom        17: N, ESP charge:      0.56586101
  |
  | Atom        18: C, ESP charge:     -0.62778333
  |
  | Atom        19: C, ESP charge:     -0.08680049
  |
  | Atom        20: O, ESP charge:      0.47217238
  |
  | Atom        21: H, ESP charge:     -0.31180266
  |
  | Atom        22: H, ESP charge:     -0.02696891
  |
  | Atom        23: C, ESP charge:      0.82600411
  |
  | Atom        24: H, ESP charge:     -0.23106647
  |
  | Atom        25: H, ESP charge:     -0.22383826
  |
  | Atom        26: H, ESP charge:     -0.18489782
  |
  | Atom        27: N, ESP charge:      0.10847313
  |
  | Atom        28: C, ESP charge:      0.50260744
  |
  | Atom        29: H, ESP charge:     -0.26193788
  |
  | Atom        30: H, ESP charge:     -0.27939521
  |
  | Atom        31: H, ESP charge:     -0.15974156
  |
  | Atom        32: H, ESP charge:     -0.13332372

  RRMS:       0.01384753

  Done.

------------------------------------------------------------------------------
  Final output of selected total energy values:

  The following output summarizes some interesting total energy values
  at the end of a run (AFTER all relaxation, molecular dynamics, etc.).

  | Total energy of the DFT / Hartree-Fock s.c.f. calculation      :         -20208.254292992 eV
  | Final zero-broadening corrected energy (caution - metals only) :         -20208.254292992 eV
  | For reference only, the value of 1 Hartree used in FHI-aims is :             27.211384500 eV

  Before relying on these values, please be sure to understand exactly which
  total energy value is referred to by a given number. Different objects may
  all carry the same name 'total energy'. Definitions:

  Total energy of the DFT / Hartree-Fock s.c.f. calculation:
  | Note that this energy does not include ANY quantities calculated after the
  | s.c.f. cycle, in particular not ANY RPA, MP2, etc. many-body perturbation terms.

  Final zero-broadening corrected energy:
  | For metallic systems only, a broadening of the occupation numbers at the Fermi
  | level can be extrapolated back to zero broadening by an electron-gas inspired
  | formula. For all systems that are not real metals, this value can be
  | meaningless and should be avoided.

------------------------------------------------------------------------------
  Methods described in the following list of references were used in this FHI-aims run.
  If you publish the results, please make sure to cite these reference if they apply.
  FHI-aims is an academic code, and for our developers (often, Ph.D. students
  and postdocs), scientific credit in the community is essential.
  Thank you for helping us!

  For any use of FHI-aims, please cite:

    Volker Blum, Ralf Gehrke, Felix Hanke, Paula Havu, Ville Havu,
    Xinguo Ren, Karsten Reuter, and Matthias Scheffler
    'Ab initio molecular simulations with numeric atom-centered orbitals'
    Computer Physics Communications 180, 2175-2196 (2009)
    http://dx.doi.org/10.1016/j.cpc.2009.06.022


  The scalable eigensolver library ELPA was used in your run.
  ELPA is essential especially for large systems on hundreds or thousands of CPUs.
  For ELPA, please cite:

    Andreas Marek, Volker Blum, Rainer Johanni, Ville Havu, Bruno Lang,
    Thomas Auckenthaler, Alexander Heinecke, Hans-Joachim Bungartz, and Hermann Lederer,
    'The ELPA Library - Scalable Parallel Eigenvalue Solutions
    for Electronic Structure Theory and Computational Science'
    The Journal of Physics: Condensed Matter 26, 213201 (2014).
    http://dx.doi.org/10.1088/0953-8984/26/21/213201


  For ELPA's efficient two-stage tridiagonalization used in your run, please cite:

    T. Auckenthaler, V. Blum, H.-J. Bungartz, T. Huckle, R. Johanni, L. Kraemer,
    B. Lang, H. Lederer, and P. R. Willems,
    'Parallel solution of partial symmetric eigenvalue problems'
    'from  electronic structure calculations'
    Parallel Computing 37, 783-794 (2011).
    http://dx.doi.org/10.1016/j.parco.2011.05.002


  For the real-space grid partitioning and parallelization used in this calculation, please cite:

    Ville Havu, Volker Blum, Paula Havu, and Matthias Scheffler,
    'Efficient O(N) integration for all-electron electronic structure calculation'
    'using numerically tabulated basis functions'
    Journal of Computational Physics 228, 8367-8379 (2009).
    http://dx.doi.org/10.1016/j.jcp.2009.08.008

  Of course, there are many other important community references, e.g., those cited in the
  above references. Our list is limited to references that describe implementations in the
  FHI-aims code. The reason is purely practical (length of this list) - please credit others as well.

------------------------------------------------------------
          Leaving FHI-aims.
          Date     :  20170309, Time     :  185500.350

          Computational steps:
          | Number of self-consistency cycles          :           14

          Detailed time accounting                     :  max(cpu_time)    wall_clock(cpu1)
          | Total time                                 :       34.546 s          34.724 s
          | Preparation time                           :        0.240 s           0.239 s
          | Grid partitioning                          :        0.288 s           0.283 s
          | Preloading free-atom quantities on grid    :        0.028 s           0.028 s
          | Free-atom superposition energy             :        0.040 s           0.039 s
          | Total time for integrations                :       12.305 s          12.280 s
          | Total time for solution of K.-S. equations :        0.532 s           0.499 s
          | Total time for density & force components  :       11.845 s          11.828 s
          | Total time for mixing                      :        0.128 s           0.107 s
          | Total time for Hartree multipole update    :        0.060 s           0.057 s
          | Total time for Hartree multipole sum       :        7.008 s           6.974 s
          | Total time for total energy evaluation     :        0.028 s           0.023 s
          | Total time for vdW correction              :        0.132 s           0.129 s

          Have a nice day.
------------------------------------------------------------
