  MPI-parallelism will be employed.
------------------------------------------------------------
          Invoking FHI-aims ...
          Version 150427
          Git rev.: 9dd23e0 BL: Update Version stamp
          Compiled on 2015/11/03 at 22:05:20 on host eos03.

          When using FHI-aims, please cite the following reference:

          Volker Blum, Ralf Gehrke, Felix Hanke, Paula Havu,
          Ville Havu, Xinguo Ren, Karsten Reuter, and Matthias Scheffler,
          'Ab Initio Molecular Simulations with Numeric Atom-Centered Orbitals: FHI-aims',
          Computer Physics Communications 180, 2175-2196 (2009)

          For any questions about FHI-aims, please visit the aimsclub website
          with its forums and wiki. Contributions to both the forums and the
          wiki are warmly encouraged - they are for you, and everyone is welcome there.

------------------------------------------------------------

  Date     :  20170309, Time     :  160655.940
  Time zero on CPU 1             :   0.308019000000000E+00  s.
  Internal wall clock time zero  :           258307615.940  s.

  Using       32 parallel tasks.
  Task        0 on host eos353 reporting.
  Task        1 on host eos353 reporting.
  Task        2 on host eos353 reporting.
  Task        3 on host eos353 reporting.
  Task        4 on host eos353 reporting.
  Task        5 on host eos353 reporting.
  Task        6 on host eos353 reporting.
  Task        7 on host eos353 reporting.
  Task        8 on host eos353 reporting.
  Task        9 on host eos353 reporting.
  Task       10 on host eos353 reporting.
  Task       11 on host eos353 reporting.
  Task       12 on host eos353 reporting.
  Task       13 on host eos353 reporting.
  Task       14 on host eos353 reporting.
  Task       15 on host eos353 reporting.
  Task       16 on host eos353 reporting.
  Task       17 on host eos353 reporting.
  Task       18 on host eos353 reporting.
  Task       19 on host eos353 reporting.
  Task       20 on host eos353 reporting.
  Task       21 on host eos353 reporting.
  Task       22 on host eos353 reporting.
  Task       23 on host eos353 reporting.
  Task       24 on host eos353 reporting.
  Task       25 on host eos353 reporting.
  Task       26 on host eos353 reporting.
  Task       27 on host eos353 reporting.
  Task       28 on host eos353 reporting.
  Task       29 on host eos353 reporting.
  Task       30 on host eos353 reporting.
  Task       31 on host eos353 reporting.

  Performing system and environment tests:
  | Environment variable OMP_NUM_THREADS correctly set to 1.
  | Stacksize not measured: no C compiler
  | Checking for scalapack...
  | Testing pdtran()...
  | All pdtran() tests passed.

  Obtaining array dimensions for all initial allocations:
  
  -----------------------------------------------------------------------
  Parsing control.in (first pass over file, find array dimensions only).
  The contents of control.in will be repeated verbatim below
  unless switched off by setting 'verbatim_writeout .false.' .
  in the first line of control.in .
  -----------------------------------------------------------------------
  
  #########################################################################################
  #
  # Input for System
  #
  #########################################################################################
  #
  #
  #  Physical model
  #
    xc                 pbe
    vdw_correction_hirshfeld
    spin               none
    charge             0.
  #
  #  SCF convergence
  #
    occupation_type    gaussian 0.05
    mixer              pulay
      n_max_pulay        10
      charge_mix_param   0.5
    sc_accuracy_rho    1E-4
    sc_accuracy_eev    1E-2
    sc_accuracy_etot   1E-5
    sc_accuracy_forces 1E-4
    sc_iter_limit      1000
  #
  #  ESP charge
  #
    output esp
    esp equal_grid_n 80 80 80
  #
  #
  ################################################################################
  #
  #  FHI-aims code project
  # Volker Blum, Fritz Haber Institute Berlin, 2009
  #
  #  Suggested "tight" defaults for H atom (to be pasted into control.in file)
  #
  ################################################################################
    species        H
  #     global species definitions
      nucleus             1
      mass                1.00794
  #
      l_hartree           6
  #
      cut_pot             4.0  2.0  1.0
      basis_dep_cutoff    1e-4
  #
      radial_base         24 7.0
      radial_multiplier   2
      angular_grids       specified
        division   0.1930   50
        division   0.3175  110
        division   0.4293  194
        division   0.5066  302
        division   0.5626  434
  #      division   0.5922  590
  #      division   0.6227  974
  #      division   0.6868 1202
  #      outer_grid  770
        outer_grid  434
  ################################################################################
  #
  #  Definition of "minimal" basis
  #
  ################################################################################
  #     valence basis states
      valence      1  s   1.
  #     ion occupancy
      ion_occ      1  s   0.5
  ################################################################################
  #
  #  Suggested additional basis functions. For production calculations,
  #  uncomment them one after another (the most important basis functions are
  #  listed first).
  #
  #  Basis constructed for dimers: 0.5 A, 0.7 A, 1.0 A, 1.5 A, 2.5 A
  #
  ################################################################################
  #  "First tier" - improvements: -1014.90 meV to -62.69 meV
       hydro 2 s 2.1
       hydro 2 p 3.5
  #  "Second tier" - improvements: -12.89 meV to -1.83 meV
       hydro 1 s 0.85
       hydro 2 p 3.7
       hydro 2 s 1.2
       hydro 3 d 7
  #  "Third tier" - improvements: -0.25 meV to -0.12 meV
  #     hydro 4 f 11.2
  #     hydro 3 p 4.8
  #     hydro 4 d 9
  #     hydro 3 s 3.2
  ################################################################################
  #
  # For methods that use the localized form of the "resolution of identity" for
  # the two-electron Coulomb operator (RI_method LVL), particularly Hartree-Fock and
  # hybrid density functional calculations, the highest accuracy can be obtained by
  # uncommenting the line beginning with "for_aux"  below, thus adding an extra g radial
  # function to the construction of the product basis set for the expansion.
  # See Ref. New J. Phys. 17, 093020 (2015) for more information, particularly Figs. 1 and 6.
  #
  ################################################################################
  #
  # for_aux hydro 5 g 6.0
  ################################################################################
  #
  #  FHI-aims code project
  # Volker Blum, Fritz Haber Institute Berlin, 2009
  #
  #  Suggested "tight" defaults for C atom (to be pasted into control.in file)
  #
  ################################################################################
    species        C
  #     global species definitions
      nucleus             6
      mass                12.0107
  #
      l_hartree           6
  #
      cut_pot             4.0  2.0  1.0
      basis_dep_cutoff    1e-4
  #
      radial_base         34 7.0
      radial_multiplier   2
      angular_grids specified
        division   0.2187   50
        division   0.4416  110
        division   0.6335  194
        division   0.7727  302
        division   0.8772  434
  #      division   0.9334  590
  #      division   0.9924  770
  #      division   1.0230  974
  #      division   1.5020 1202
  #     outer_grid  974
        outer_grid  434
  ################################################################################
  #
  #  Definition of "minimal" basis
  #
  ################################################################################
  #     valence basis states
      valence      2  s   2.
      valence      2  p   2.
  #     ion occupancy
      ion_occ      2  s   1.
      ion_occ      2  p   1.
  ################################################################################
  #
  #  Suggested additional basis functions. For production calculations,
  #  uncomment them one after another (the most important basis functions are
  #  listed first).
  #
  #  Constructed for dimers: 1.0 A, 1.25 A, 1.5 A, 2.0 A, 3.0 A
  #
  ################################################################################
  #  "First tier" - improvements: -1214.57 meV to -155.61 meV
       hydro 2 p 1.7
       hydro 3 d 6
       hydro 2 s 4.9
  #  "Second tier" - improvements: -67.75 meV to -5.23 meV
       hydro 4 f 9.8
       hydro 3 p 5.2
       hydro 3 s 4.3
       hydro 5 g 14.4
       hydro 3 d 6.2
  #  "Third tier" - improvements: -2.43 meV to -0.60 meV
  #     hydro 2 p 5.6
  #     hydro 2 s 1.4
  #     hydro 3 d 4.9
  #     hydro 4 f 11.2
  #  "Fourth tier" - improvements: -0.39 meV to -0.18 meV
  #     hydro 2 p 2.1
  #     hydro 5 g 16.4
  #     hydro 4 d 13.2
  #     hydro 3 s 13.6
  #     hydro 4 f 17.6
  #  Further basis functions - improvements: -0.08 meV and below
  #     hydro 3 s 2
  #     hydro 3 p 6
  #     hydro 4 d 20
  ################################################################################
  #
  # For methods that use the localized form of the "resolution of identity" for
  # the two-electron Coulomb operator (RI_method LVL), particularly Hartree-Fock and
  # hybrid density functional calculations, the highest accuracy can be obtained by
  # uncommenting the line beginning with "for_aux"  below, thus adding an extra g radial
  # function to the construction of the product basis set for the expansion.
  # See Ref. New J. Phys. 17, 093020 (2015) for more information, particularly Figs. 1 and 6.
  #
  ################################################################################
  #
  # for_aux hydro 5 g 6.0
  ################################################################################
  #
  #  FHI-aims code project
  # Volker Blum, Fritz Haber Institute Berlin, 2009
  #
  #  Suggested "tight" defaults for N atom (to be pasted into control.in file)
  #
  ################################################################################
    species        N
  #     global species definitions
      nucleus             7
      mass                14.0067
  #
      l_hartree           6
  #
      cut_pot             4.0  2.0  1.0
      basis_dep_cutoff    1e-4
  #
      radial_base         35 7.0
      radial_multiplier   2
      angular_grids       specified
        division   0.1841   50
        division   0.3514  110
        division   0.5126  194
        division   0.6292  302
        division   0.6939  434
  #      division   0.7396  590
  #      division   0.7632  770
  #      division   0.8122  974
  #      division   1.1604 1202
  #      outer_grid  974
        outer_grid  434
  ################################################################################
  #
  #  Definition of "minimal" basis
  #
  ################################################################################
  #     valence basis states
      valence      2  s   2.
      valence      2  p   3.
  #     ion occupancy
      ion_occ      2  s   1.
      ion_occ      2  p   2.
  ################################################################################
  #
  #  Suggested additional basis functions. For production calculations,
  #  uncomment them one after another (the most important basis functions are
  #  listed first).
  #
  #  Constructed for dimers: 1.0 A, 1.1 A, 1.5 A, 2.0 A, 3.0 A
  #
  ################################################################################
  #  "First tier" - improvements: -1193.42 meV to -220.60 meV
       hydro 2 p 1.8
       hydro 3 d 6.8
       hydro 3 s 5.8
  #  "Second tier" - improvements: -80.21 meV to -6.86 meV
       hydro 4 f 10.8
       hydro 3 p 5.8
       hydro 1 s 0.8
       hydro 5 g 16
       hydro 3 d 4.9
  #  "Third tier" - improvements: -4.29 meV to -0.53 meV
  #     hydro 3 s 16
  #     ionic 2 p auto
  #     hydro 3 d 6.6
  #     hydro 4 f 11.6
  #  "Fourth tier" - improvements: -0.75 meV to -0.25 meV
  #     hydro 2 p 4.5
  #     hydro 2 s 2.4
  #     hydro 5 g 14.4
  #     hydro 4 d 14.4
  #     hydro 4 f 16.8
  # Further basis functions - -0.21 meV and below
  #     hydro 3 p 14.8
  #     hydro 3 s 4.4
  #     hydro 3 d 19.6
  #     hydro 5 g 12.8
  ################################################################################
  #
  # For methods that use the localized form of the "resolution of identity" for
  # the two-electron Coulomb operator (RI_method LVL), particularly Hartree-Fock and
  # hybrid density functional calculations, the highest accuracy can be obtained by
  # uncommenting the line beginning with "for_aux"  below, thus adding an extra g radial
  # function to the construction of the product basis set for the expansion.
  # See Ref. New J. Phys. 17, 093020 (2015) for more information, particularly Figs. 1 and 6.
  #
  ################################################################################
  #
  # for_aux hydro 5 g 6.0
  ################################################################################
  #
  #  FHI-aims code project
  # Volker Blum, Fritz Haber Institute Berlin, 2009
  #
  #  Suggested "tight" defaults for O atom (to be pasted into control.in file)
  #
  ################################################################################
    species        O
  #     global species definitions
      nucleus             8
      mass                15.9994
  #
      l_hartree           6
  #
      cut_pot             4.0  2.0  1.0
      basis_dep_cutoff    1e-4
  #
      radial_base         36 7.0
      radial_multiplier   2
       angular_grids specified
        division   0.1817   50
        division   0.3417  110
        division   0.4949  194
        division   0.6251  302
        division   0.8014  434
  #      division   0.8507  590
  #      division   0.8762  770
  #      division   0.9023  974
  #      division   1.2339 1202
  #      outer_grid 974
        outer_grid  434
  ################################################################################
  #
  #  Definition of "minimal" basis
  #
  ################################################################################
  #     valence basis states
      valence      2  s   2.
      valence      2  p   4.
  #     ion occupancy
      ion_occ      2  s   1.
      ion_occ      2  p   3.
  ################################################################################
  #
  #  Suggested additional basis functions. For production calculations,
  #  uncomment them one after another (the most important basis functions are
  #  listed first).
  #
  #  Constructed for dimers: 1.0 A, 1.208 A, 1.5 A, 2.0 A, 3.0 A
  #
  ################################################################################
  #  "First tier" - improvements: -699.05 meV to -159.38 meV
       hydro 2 p 1.8
       hydro 3 d 7.6
       hydro 3 s 6.4
  #  "Second tier" - improvements: -49.91 meV to -5.39 meV
       hydro 4 f 11.6
       hydro 3 p 6.2
       hydro 3 d 5.6
       hydro 5 g 17.6
       hydro 1 s 0.75
  #  "Third tier" - improvements: -2.83 meV to -0.50 meV
  #     ionic 2 p auto
  #     hydro 4 f 10.8
  #     hydro 4 d 4.7
  #     hydro 2 s 6.8
  #  "Fourth tier" - improvements: -0.40 meV to -0.12 meV
  #     hydro 3 p 5
  #     hydro 3 s 3.3
  #     hydro 5 g 15.6
  #     hydro 4 f 17.6
  #     hydro 4 d 14
  # Further basis functions - -0.08 meV and below
  #     hydro 3 s 2.1
  #     hydro 4 d 11.6
  #     hydro 3 p 16
  #     hydro 2 s 17.2
  ################################################################################
  #
  # For methods that use the localized form of the "resolution of identity" for
  # the two-electron Coulomb operator (RI_method LVL), particularly Hartree-Fock and
  # hybrid density functional calculations, the highest accuracy can be obtained by
  # uncommenting the line beginning with "for_aux"  below, thus adding an extra g radial
  # function to the construction of the product basis set for the expansion.
  # See Ref. New J. Phys. 17, 093020 (2015) for more information, particularly Figs. 1 and 6.
  #
  ################################################################################
  #
  # for_aux hydro 5 g 6.0
  
  -----------------------------------------------------------------------
  Completed first pass over input file control.in .
  -----------------------------------------------------------------------
  
  
  -----------------------------------------------------------------------
  Parsing geometry.in (first pass over file, find array dimensions only).
  The contents of geometry.in will be repeated verbatim below
  unless switched off by setting 'verbatim_writeout .false.' .
  in the first line of geometry.in .
  -----------------------------------------------------------------------
  
  #
  # This is the geometry file that corresponds to the current relaxation step.
  # If you do not want this file to be written, set the "write_restart_geometry" flag to .false.
  #
  atom       0.51115075      0.16369791      0.49780226 C
  atom       0.18651825      0.29830561      1.97341852 C
  atom       1.05270885      0.53846607      2.81762769 O
  atom       1.25350348     -0.63436847      0.37199813 H
  atom       0.97247140      1.09697052      0.15118018 H
  atom      -0.36373769     -0.05621711     -0.12600320 H
  atom      -1.12931722      0.14824450      2.30074332 N
  atom      -1.57110186      0.14560075      3.68012264 C
  atom      -2.75311338     -0.83577924      3.76667288 C
  atom      -3.40242893     -1.11641874      2.75702519 O
  atom      -1.81912318     -0.18806113      1.63113306 H
  atom      -0.71509904     -0.19884288      4.28017812 H
  atom      -1.97351754      1.55369160      4.15472124 C
  atom      -2.25737504      1.56113716      5.21497322 H
  atom      -2.82337042      1.92415287      3.56706596 H
  atom      -1.12453660      2.23459457      4.02075834 H
  atom      -3.08280701     -1.34111124      4.98777122 N
  atom      -2.33556335     -1.27216754      6.23220415 C
  atom      -2.10205527     -2.71676012      6.71885299 C
  atom      -2.96512218     -3.57655831      6.55180259 O
  atom      -3.81853696     -2.04818614      4.97213341 H
  atom      -1.37819899     -0.77831665      6.03470253 H
  atom      -3.09340453     -0.49595335      7.32267427 C
  atom      -2.51082230     -0.44809623      8.25284743 H
  atom      -4.04797789     -0.99109683      7.54254693 H
  atom      -3.30052233      0.52770877      6.98804880 H
  atom      -0.93444664     -2.97201071      7.37143450 N
  atom       0.19032605     -2.07034830      7.57605704 C
  atom      -0.84908328     -3.92999849      7.69689970 H
  atom       0.97258375     -2.61475839      8.11459348 H
  atom      -0.08246352     -1.19585760      8.18428732 H
  atom       0.62289363     -1.72135187      6.62704806 H
  
  -----------------------------------------------------------------------
  Completed first pass over input file geometry.in .
  -----------------------------------------------------------------------
  

  Basic array size parameters:
  | Number of species                 :        4
  | Number of atoms                   :       32
  | Max. basis fn. angular momentum   :        4
  | Max. atomic/ionic basis occupied n:        2
  | Max. number of basis fn. types    :        2
  | Max. radial fns per species/type  :        8
  | Max. logarithmic grid size        :     1301
  | Max. radial integration grid size :       73
  | Max. angular integration grid size:      434
  | Max. angular grid division number :        8
  | Radial grid for Hartree potential :     1301
  | Number of spin channels           :        1

------------------------------------------------------------
          Reading file control.in.
------------------------------------------------------------
  XC: Using PBE gradient-corrected functionals.
  Spin treatment: No spin polarisation.
  Charge =   0.000000E+00: Neutral system requested explicitly.
  Occupation type: Gaussian broadening, width =   0.500000E-01 eV.
  Using pulay charge density mixing.
  Pulay mixing - number of memorized iterations:   10
  Charge density mixing - mixing parameter:     0.5000
  Convergence accuracy of self-consistent charge density:  0.1000E-03
  Convergence accuracy of sum of eigenvalues:  0.1000E-01
  Convergence accuracy of total energy:  0.1000E-04
  Convergence accuracy of forces:  0.1000E-03
  Maximum number of s.-c. iterations  :  1000
  Fitting ESP-charges to Potential. 
  | Esp charge output options: 
  | ESP Grid method: 3, cubic grid
  | Number of points in x, ,y, z:  0080 0080 0080
  |
 
  Reading configuration options for species H                   .
  | Found nuclear charge :   1.0000
  | Found atomic mass :    1.00794000000000      amu
  | Found l_max for Hartree potential  :   6
  | Found cutoff potl. onset [A], width [A], scale factor :    4.00000    2.00000    1.00000
  | Threshold for basis-dependent cutoff potential is   0.100000E-03
  | Found data for basic radial integration grid :    24 points, outermost radius =    7.000 A
  | Found multiplier for basic radial grid :   2
  | Found angular grid specification: user-specified.
  | Specified grid contains     6 separate shells.
  | Check grid settings after all constraints further below.
  | Found free-atom valence shell :  1 s   1.000
  | No ionic wave fns used. Skipping ion_occ.
  | Found hydrogenic basis function :  2 s   2.100
  | Found hydrogenic basis function :  2 p   3.500
  | Found hydrogenic basis function :  1 s   0.850
  | Found hydrogenic basis function :  2 p   3.700
  | Found hydrogenic basis function :  2 s   1.200
  | Found hydrogenic basis function :  3 d   7.000
  Species H                   : Missing cutoff potential type.
  Defaulting to exp(1/x)/(1-x)^2 type cutoff potential.
  Species H : No 'logarithmic' tag. Using default grid for free atom:
  | Default logarithmic grid data [bohr] : 0.1000E-03 0.1000E+03 0.1012E+01
  Species H : On-site basis accuracy parameter (for Gram-Schmidt orthonormalisation) not specified.
  Using default value basis_acc =  0.1000000E-03.
  Species H                   : Using default innermost maximum threshold i_radial=  2 for radial functions.
  Species H                   : Default cutoff onset for free atom density etc. : 0.40000000E+01 AA.
  Species H                   : Basic radial grid will be enhanced according to radial_multiplier =   2, to contain    49 grid points.
 
  Reading configuration options for species C                   .
  | Found nuclear charge :   6.0000
  | Found atomic mass :    12.0107000000000      amu
  | Found l_max for Hartree potential  :   6
  | Found cutoff potl. onset [A], width [A], scale factor :    4.00000    2.00000    1.00000
  | Threshold for basis-dependent cutoff potential is   0.100000E-03
  | Found data for basic radial integration grid :    34 points, outermost radius =    7.000 A
  | Found multiplier for basic radial grid :   2
  | Found angular grid specification: user-specified.
  | Specified grid contains     6 separate shells.
  | Check grid settings after all constraints further below.
  | Found free-atom valence shell :  2 s   2.000
  | Found free-atom valence shell :  2 p   2.000
  | No ionic wave fns used. Skipping ion_occ.
  | No ionic wave fns used. Skipping ion_occ.
  | Found hydrogenic basis function :  2 p   1.700
  | Found hydrogenic basis function :  3 d   6.000
  | Found hydrogenic basis function :  2 s   4.900
  | Found hydrogenic basis function :  4 f   9.800
  | Found hydrogenic basis function :  3 p   5.200
  | Found hydrogenic basis function :  3 s   4.300
  | Found hydrogenic basis function :  5 g  14.400
  | Found hydrogenic basis function :  3 d   6.200
  Species C                   : Missing cutoff potential type.
  Defaulting to exp(1/x)/(1-x)^2 type cutoff potential.
  Species C : No 'logarithmic' tag. Using default grid for free atom:
  | Default logarithmic grid data [bohr] : 0.1000E-03 0.1000E+03 0.1012E+01
  Species C : On-site basis accuracy parameter (for Gram-Schmidt orthonormalisation) not specified.
  Using default value basis_acc =  0.1000000E-03.
  Species C                   : Using default innermost maximum threshold i_radial=  2 for radial functions.
  Species C                   : Default cutoff onset for free atom density etc. : 0.40000000E+01 AA.
  Species C                   : Basic radial grid will be enhanced according to radial_multiplier =   2, to contain    69 grid points.
 
  Reading configuration options for species N                   .
  | Found nuclear charge :   7.0000
  | Found atomic mass :    14.0067000000000      amu
  | Found l_max for Hartree potential  :   6
  | Found cutoff potl. onset [A], width [A], scale factor :    4.00000    2.00000    1.00000
  | Threshold for basis-dependent cutoff potential is   0.100000E-03
  | Found data for basic radial integration grid :    35 points, outermost radius =    7.000 A
  | Found multiplier for basic radial grid :   2
  | Found angular grid specification: user-specified.
  | Specified grid contains     6 separate shells.
  | Check grid settings after all constraints further below.
  | Found free-atom valence shell :  2 s   2.000
  | Found free-atom valence shell :  2 p   3.000
  | No ionic wave fns used. Skipping ion_occ.
  | No ionic wave fns used. Skipping ion_occ.
  | Found hydrogenic basis function :  2 p   1.800
  | Found hydrogenic basis function :  3 d   6.800
  | Found hydrogenic basis function :  3 s   5.800
  | Found hydrogenic basis function :  4 f  10.800
  | Found hydrogenic basis function :  3 p   5.800
  | Found hydrogenic basis function :  1 s   0.800
  | Found hydrogenic basis function :  5 g  16.000
  | Found hydrogenic basis function :  3 d   4.900
  Species N                   : Missing cutoff potential type.
  Defaulting to exp(1/x)/(1-x)^2 type cutoff potential.
  Species N : No 'logarithmic' tag. Using default grid for free atom:
  | Default logarithmic grid data [bohr] : 0.1000E-03 0.1000E+03 0.1012E+01
  Species N : On-site basis accuracy parameter (for Gram-Schmidt orthonormalisation) not specified.
  Using default value basis_acc =  0.1000000E-03.
  Species N                   : Using default innermost maximum threshold i_radial=  2 for radial functions.
  Species N                   : Default cutoff onset for free atom density etc. : 0.40000000E+01 AA.
  Species N                   : Basic radial grid will be enhanced according to radial_multiplier =   2, to contain    71 grid points.
 
  Reading configuration options for species O                   .
  | Found nuclear charge :   8.0000
  | Found atomic mass :    15.9994000000000      amu
  | Found l_max for Hartree potential  :   6
  | Found cutoff potl. onset [A], width [A], scale factor :    4.00000    2.00000    1.00000
  | Threshold for basis-dependent cutoff potential is   0.100000E-03
  | Found data for basic radial integration grid :    36 points, outermost radius =    7.000 A
  | Found multiplier for basic radial grid :   2
  | Found angular grid specification: user-specified.
  | Specified grid contains     6 separate shells.
  | Check grid settings after all constraints further below.
  | Found free-atom valence shell :  2 s   2.000
  | Found free-atom valence shell :  2 p   4.000
  | No ionic wave fns used. Skipping ion_occ.
  | No ionic wave fns used. Skipping ion_occ.
  | Found hydrogenic basis function :  2 p   1.800
  | Found hydrogenic basis function :  3 d   7.600
  | Found hydrogenic basis function :  3 s   6.400
  | Found hydrogenic basis function :  4 f  11.600
  | Found hydrogenic basis function :  3 p   6.200
  | Found hydrogenic basis function :  3 d   5.600
  | Found hydrogenic basis function :  5 g  17.600
  | Found hydrogenic basis function :  1 s   0.750
  Species O                   : Missing cutoff potential type.
  Defaulting to exp(1/x)/(1-x)^2 type cutoff potential.
  Species O : No 'logarithmic' tag. Using default grid for free atom:
  | Default logarithmic grid data [bohr] : 0.1000E-03 0.1000E+03 0.1012E+01
  Species O : On-site basis accuracy parameter (for Gram-Schmidt orthonormalisation) not specified.
  Using default value basis_acc =  0.1000000E-03.
  Species O                   : Using default innermost maximum threshold i_radial=  2 for radial functions.
  Species O                   : Default cutoff onset for free atom density etc. : 0.40000000E+01 AA.
  Species O                   : Basic radial grid will be enhanced according to radial_multiplier =   2, to contain    73 grid points.
 
  Finished reading input file 'control.in'. Consistency checks are next.
 
  Target number of points in a grid batch is not set. Defaulting to  100
  Method for grid partitioning is not set. Defaulting to parallel hash+maxmin partitioning.
  Batch size limit is not set. Defaulting to    200
  By default, will store active basis functions for each batch.
  If in need of memory, prune_basis_once .false. can be used to disable this option.
  communication_type for Hartree potential was not specified.
  Defaulting to calc_hartree .
  Pulay mixer: Number of initial linear mixing iterations not set.
  Defaulting to    0 iterations.
  Work space size for distributed Hartree potential not set.
  Defaulting to   0.200000E+03 MB.
  Algorithm-dependent basis array size parameters:
  | n_max_pulay                         :       10
  Geometry relaxation not requested: no relaxation will be performed.
  Handling of forces: Unphysical translation and rotation will be removed from forces.
  No accuracy limit for integral partition fn. given. Defaulting to  0.1000E-14.
  No threshold value for u(r) in integrations given. Defaulting to  0.1000E-05.
  No accuracy for occupation numbers given. Defaulting to  0.1000E-07.
  No threshold value for occupation numbers given. Defaulting to  0.0000E+00.
  No accuracy for fermi level given. Defaulting to  0.1000E-19.
  Maximum # of iterations to find E_F not set. Defaulting to  200.
  Preferred method for the eigenvalue solver ('KS_method') not specified in 'control.in'.
  Calling blacs routine to test compilation state
  Since scalapack support is enabled, defaulting to 'elpa'.
  Preferred method for the MBD eigenvalue solver ('mbd_eigensolver') not specified in 'control.in'.
  Calling blacs routine to test compilation state
  Since scalapack support is enabled, defaulting to 'scaLAPACK'.
  Will not use alltoall communication since running on < 1024 CPUs.
  Threshold for basis singularities not set.
  Default threshold for basis singularities:  0.1000E-04
  partition_type (choice of integration weights) for integrals was not specified.
  | Using a version of the partition function of Stratmann and coworkers ('stratmann_smoother').
  | At each grid point, the set of atoms used to build the partition table is smoothly restricted to
  | only those atoms whose free-atom density would be non-zero at that grid point.
  Partitioning for Hartree potential was not defined. Using partition_type for integrals.
  | Adjusted default value of keyword multip_moments_threshold to:       0.10000000E-11
  | This value may affect high angular momentum components of the Hartree potential in periodic systems.
  No q(lm)/r^(l+1) cutoff set for long-range Hartree potential.
  | Using default value of  0.100000E-09 .
  | Verify using the multipole_threshold keyword.
  Defaulting to new monopole extrapolation.
  Density update method: automatic selection selected.
------------------------------------------------------------


------------------------------------------------------------
          Reading geometry description geometry.in.
------------------------------------------------------------
 * Warning! You did not set the 'relativistic' flag in input file 'control.in'.
 * Since you are not attempting to treat any elements beyond Ca(Z=20), FHI-aims
 * will default to 'relativistic none'.
 * You must ensure that this is really what you want!!
 * For example, DO NOT compute total-energy differences between results from
 * different settings of the 'relativistic' flag.
  Input structure read successfully.
  The structure contains       32 atoms,  and a total of        116.000 electrons.

  Input geometry:
  | No unit cell requested.
  | Atomic structure:
  |       Atom                x [A]            y [A]            z [A]
  |    1: Species C              0.511151         0.163698         0.497802
  |    2: Species C              0.186518         0.298306         1.973419
  |    3: Species O              1.052709         0.538466         2.817628
  |    4: Species H              1.253503        -0.634368         0.371998
  |    5: Species H              0.972471         1.096971         0.151180
  |    6: Species H             -0.363738        -0.056217        -0.126003
  |    7: Species N             -1.129317         0.148245         2.300743
  |    8: Species C             -1.571102         0.145601         3.680123
  |    9: Species C             -2.753113        -0.835779         3.766673
  |   10: Species O             -3.402429        -1.116419         2.757025
  |   11: Species H             -1.819123        -0.188061         1.631133
  |   12: Species H             -0.715099        -0.198843         4.280178
  |   13: Species C             -1.973518         1.553692         4.154721
  |   14: Species H             -2.257375         1.561137         5.214973
  |   15: Species H             -2.823370         1.924153         3.567066
  |   16: Species H             -1.124537         2.234595         4.020758
  |   17: Species N             -3.082807        -1.341111         4.987771
  |   18: Species C             -2.335563        -1.272168         6.232204
  |   19: Species C             -2.102055        -2.716760         6.718853
  |   20: Species O             -2.965122        -3.576558         6.551803
  |   21: Species H             -3.818537        -2.048186         4.972133
  |   22: Species H             -1.378199        -0.778317         6.034703
  |   23: Species C             -3.093405        -0.495953         7.322674
  |   24: Species H             -2.510822        -0.448096         8.252847
  |   25: Species H             -4.047978        -0.991097         7.542547
  |   26: Species H             -3.300522         0.527709         6.988049
  |   27: Species N             -0.934447        -2.972011         7.371435
  |   28: Species C              0.190326        -2.070348         7.576057
  |   29: Species H             -0.849083        -3.929998         7.696900
  |   30: Species H              0.972584        -2.614758         8.114593
  |   31: Species H             -0.082464        -1.195858         8.184287
  |   32: Species H              0.622894        -1.721352         6.627048
  |

  | The smallest distance between any two atoms is         1.01535958 AA.
  |
  | The first atom of this pair is atom number                     27 .
  | The second atom of this pair is atom number                    29 .

  Number of empty states per atom not set in control.in - providing a guess from actual geometry.
  | Total number of empty states used during s.c.f. cycle:       71
  If you use a very high smearing, use empty_states (per atom!) in control.in to increase this value.

  Structure-dependent array size parameters: 
  | Maximum number of distinct radial functions  :       40
  | Maximum number of basis functions            :      840
  | Number of Kohn-Sham states (occupied + empty):      129
------------------------------------------------------------

------------------------------------------------------------
          Preparing all fixed parts of the calculation.
------------------------------------------------------------
  Determining machine precision:
    2.225073858507201E-308
  Setting up grids for atomic and cluster calculations.

  Creating wave function, potential, and density for free atoms.

  Species: H

  List of occupied orbitals and eigenvalues:
    n    l              occ      energy [Ha]    energy [eV]
    1    0           1.0000        -0.238382        -6.4867


  Species: C

  List of occupied orbitals and eigenvalues:
    n    l              occ      energy [Ha]    energy [eV]
    1    0           2.0000       -10.041232      -273.2358
    2    0           2.0000        -0.504327       -13.7234
    2    1           2.0000        -0.193750        -5.2722


  Species: N

  List of occupied orbitals and eigenvalues:
    n    l              occ      energy [Ha]    energy [eV]
    1    0           2.0000       -14.129007      -384.4699
    2    0           2.0000        -0.681802       -18.5528
    2    1           3.0000        -0.260543        -7.0897


  Species: O

  List of occupied orbitals and eigenvalues:
    n    l              occ      energy [Ha]    energy [eV]
    1    0           2.0000       -18.898576      -514.2564
    2    0           2.0000        -0.878795       -23.9132
    2    1           4.0000        -0.332075        -9.0362

  Creating fixed part of basis set: Ionic, confined, hydrogenic.
 
  H                    hydrogenic:
 
  List of hydrogenic basis orbitals: 
    n    l      effective z      eigenvalue [eV]  inner max. [A]     outer max. [A]     outer radius [A]   
    2    0         2.100000       -14.9965           0.193243           1.317208           5.373006
    2    1         3.500000       -41.6672           0.602369           0.602369           4.056063
    1    0         0.850000        -9.8292           0.624871           0.624871           5.373006
    2    1         3.700000       -46.5653           0.573622           0.573622           3.910002
    2    0         1.200000        -4.5995           0.334980           2.228188           5.505995
    3    2         7.000000       -74.0753           0.680699           0.680699           3.769201
 
 
  C                    hydrogenic:
 
  List of hydrogenic basis orbitals: 
    n    l      effective z      eigenvalue [eV]  inner max. [A]     outer max. [A]     outer radius [A]   
    2    1         1.700000        -9.8152           1.245706           1.245706           5.401630
    3    2         6.000000       -54.4226           0.792453           0.792453           4.178599
    2    0         4.900000       -81.6681           0.082559           0.562749           3.353238
    4    3         9.800000       -81.6681           0.863254           0.863254           4.028125
    3    1         5.200000       -40.8774           0.305389           1.215618           4.898362
    3    0         4.300000       -27.9508           0.091041           1.610311           5.401630
    5    4        14.400000      -112.8510           0.917666           0.917666           3.883070
    3    2         6.200000       -58.1113           0.763917           0.763917           4.077671
 
 
  N                    hydrogenic:
 
  List of hydrogenic basis orbitals: 
    n    l      effective z      eigenvalue [eV]  inner max. [A]     outer max. [A]     outer radius [A]   
    2    1         1.800000       -11.0118           1.177451           1.177451           5.427479
    3    2         6.800000       -69.9029           0.704619           0.704619           3.854246
    3    0         5.800000       -50.8549           0.067388           1.191934           4.629968
    4    3        10.800000       -99.1854           0.786571           0.786571           3.761152
    3    1         5.800000       -50.8549           0.274880           1.094176           4.518138
    1    0         0.800000        -8.7059           0.662839           0.662839           5.361532
    5    4        16.000000      -139.3222           0.825990           0.825990           3.625711
    3    2         4.900000       -36.2967           0.968267           0.968267           4.862000
 
 
  O                    hydrogenic:
 
  List of hydrogenic basis orbitals: 
    n    l      effective z      eigenvalue [eV]  inner max. [A]     outer max. [A]     outer radius [A]   
    2    1         1.800000       -11.0118           1.178562           1.178562           5.432602
    3    2         7.600000       -87.3182           0.624125           0.624125           3.541477
    3    0         6.400000       -61.9209           0.061167           1.081902           4.306578
    4    3        11.600000      -114.4238           0.731631           0.731631           3.585037
    3    1         6.200000       -58.1113           0.255680           1.030270           4.306578
    3    2         5.600000       -47.4081           0.847233           0.847233           4.413171
    5    4        17.600000      -168.5799           0.749740           0.749740           3.372465
    1    0         0.750000        -7.6499           0.705284           0.705284           5.366593
 

  Adding cutoff potential to free-atom effective potential.
  Creating atomic-like basis functions for current effective potential.

  Species H                   :

  List of atomic basis orbitals and eigenvalues:
    n    l      energy [Ha]    energy [eV]    outer radius [A]
    1    0        -0.238382        -6.4867       5.373006


  Species C                   :

  List of atomic basis orbitals and eigenvalues:
    n    l      energy [Ha]    energy [eV]    outer radius [A]
    1    0       -10.041232      -273.2358       1.934409
    2    0        -0.504327       -13.7234       5.271162
    2    1        -0.193750        -5.2722       5.401630


  Species N                   :

  List of atomic basis orbitals and eigenvalues:
    n    l      energy [Ha]    energy [eV]    outer radius [A]
    1    0       -14.129007      -384.4699       1.637919
    2    0        -0.681802       -18.5528       5.168461
    2    1        -0.260543        -7.0897       5.361532


  Species O                   :

  List of atomic basis orbitals and eigenvalues:
    n    l      energy [Ha]    energy [eV]    outer radius [A]
    1    0       -18.898576      -514.2564       1.415765
    2    0        -0.878795       -23.9132       5.048385
    2    1        -0.332075        -9.0362       5.301386

  Assembling full basis from fixed parts.
  | Species H :   atomic orbital   1 s accepted.
  | Species H :    hydro orbital   2 s accepted.
  | Species H :    hydro orbital   1 s accepted.
  | Species H :    hydro orbital   2 s accepted.
  | Species H :    hydro orbital   2 p accepted.
  | Species H :    hydro orbital   2 p accepted.
  | Species H :    hydro orbital   3 d accepted.
  | Species C :   atomic orbital   1 s accepted.
  | Species C :    hydro orbital   2 s accepted.
  | Species C :   atomic orbital   2 s accepted.
  | Species C :    hydro orbital   3 s accepted.
  | Species C :    hydro orbital   3 p accepted.
  | Species C :   atomic orbital   2 p accepted.
  | Species C :    hydro orbital   2 p accepted.
  | Species C :    hydro orbital   3 d accepted.
  | Species C :    hydro orbital   3 d accepted.
  | Species C :    hydro orbital   4 f accepted.
  | Species C :    hydro orbital   5 g accepted.
  | Species N :   atomic orbital   1 s accepted.
  | Species N :    hydro orbital   3 s accepted.
  | Species N :   atomic orbital   2 s accepted.
  | Species N :    hydro orbital   1 s accepted.
  | Species N :    hydro orbital   3 p accepted.
  | Species N :   atomic orbital   2 p accepted.
  | Species N :    hydro orbital   2 p accepted.
  | Species N :    hydro orbital   3 d accepted.
  | Species N :    hydro orbital   3 d accepted.
  | Species N :    hydro orbital   4 f accepted.
  | Species N :    hydro orbital   5 g accepted.
  | Species O :   atomic orbital   1 s accepted.
  | Species O :    hydro orbital   3 s accepted.
  | Species O :   atomic orbital   2 s accepted.
  | Species O :    hydro orbital   1 s accepted.
  | Species O :    hydro orbital   3 p accepted.
  | Species O :   atomic orbital   2 p accepted.
  | Species O :    hydro orbital   2 p accepted.
  | Species O :    hydro orbital   3 d accepted.
  | Species O :    hydro orbital   3 d accepted.
  | Species O :    hydro orbital   4 f accepted.
  | Species O :    hydro orbital   5 g accepted.
 
  Basis size parameters after reduction:
  | Total number of radial functions:       40
  | Total number of basis functions :      840
 
  Testing on-site integration grid accuracy.
  |  Species  Function  <phi|h_atom|phi> (log., in eV)  <phi|h_atom|phi> (rad., in eV)
           1        1                 -6.4869821809                 -6.4870742227
           1        2                 13.5044133542                 13.5041049177
           1        3                 32.7854418792                 32.7779770519
           1        4                 33.7995553101                 33.7152624900 ***
           1        5                 28.8558651799                 28.8558652046
           1        6                 59.6361831893                 59.6362535845
           1        7                 60.2733718049                 60.2733715484
           2        8               -273.2358277112               -273.2358261765
           2        9                -10.7624923123                -10.7625144012
           2       10                 17.4634079027                 17.4634252127
           2       11                 53.0363661832                 53.0366180446
           2       12                 15.0981351967                 15.0981317714
           2       13                  3.8522181899                  3.8522770949
           2       14                 12.1181835661                 12.1206868578
           2       15                 29.4320778347                 29.4320780959
           2       16                 54.8753777694                 54.8752901936
           2       17                 59.3533975461                 59.3533974833
           2       18                 93.4537491195                 93.4537492066
           3       19               -384.4698526889               -384.4698499465
           3       20                 12.5691022037                 12.5690910168
           3       21                -15.7489097511                -15.7489165588
           3       22                 27.0978334940                 27.0985589490
           3       23                 18.5949116966                 18.5949125562
           3       24                  1.2212828291                  1.2212855301
           3       25                 13.4428926797                 13.4434051125
           3       26                 35.9380614500                 35.9380613666
           3       27                 39.9231532098                 39.9231654735
           3       28                 72.9957335806                 72.9957336833
           3       29                116.4231321147                116.4231321431
           4       30               -514.2564144315               -514.2564099626
           4       31                 15.1726678541                 15.1726530877
           4       32                -21.5447785304                -21.5447874973
           4       33                 14.4944558459                 14.4944698284
           4       34                 20.8882174564                 20.8882178906
           4       35                 -2.4850315908                 -2.4850322289
           4       36                 13.8600193195                 13.8599826966
           4       37                 45.8243383616                 45.8243383675
           4       38                 52.1840606465                 52.1840622440
           4       39                 85.4074185510                 85.4074185819
           4       40                142.0983717302                142.0983717339
 * Note: Onsite integrals marked "***" above are less accurate than
 * onsite_accuracy_threshold =    0.03000 eV. Usually, this is harmless.
 * When in doubt, tighten the "radial" and/or "radial_multiplier" flags to check.

  Preparing densities etc. for the partition functions (integrals / Hartree potential).

  Preparations completed.
  max(cpu_time)          :      0.240 s.
  Wall clock time (cpu1) :      0.239 s.
------------------------------------------------------------

------------------------------------------------------------
          Begin self-consistency loop: Initialization.

          Date     :  20170309, Time     :  160656.970
------------------------------------------------------------

  Initializing index lists of integration centers etc. from given atomic structure:
  | Number of centers in hartree potential         :        32
  | Number of centers in hartree multipole         :        32
  | Number of centers in electron density summation:        32
  | Number of centers in basis integrals           :        32
  | Number of centers in integrals                 :        32
  | Number of centers in hamiltonian               :        32
  Using modified Scalapack Eigenvalue solver (ELPA)
  * Using 32 tasks for Scalapack Eigenvalue solver.
  Detailed listing of tasks and assigned k-points:
  (for non-periodic systems, the "k-point" denotes an internal label only)
   Task     0 k-point     1 on eos353
   Task     1 k-point     1 on eos353
   Task     2 k-point     1 on eos353
   Task     3 k-point     1 on eos353
   Task     4 k-point     1 on eos353
   Task     5 k-point     1 on eos353
   Task     6 k-point     1 on eos353
   Task     7 k-point     1 on eos353
   Task     8 k-point     1 on eos353
   Task     9 k-point     1 on eos353
   Task    10 k-point     1 on eos353
   Task    11 k-point     1 on eos353
   Task    12 k-point     1 on eos353
   Task    13 k-point     1 on eos353
   Task    14 k-point     1 on eos353
   Task    15 k-point     1 on eos353
   Task    16 k-point     1 on eos353
   Task    17 k-point     1 on eos353
   Task    18 k-point     1 on eos353
   Task    19 k-point     1 on eos353
   Task    20 k-point     1 on eos353
   Task    21 k-point     1 on eos353
   Task    22 k-point     1 on eos353
   Task    23 k-point     1 on eos353
   Task    24 k-point     1 on eos353
   Task    25 k-point     1 on eos353
   Task    26 k-point     1 on eos353
   Task    27 k-point     1 on eos353
   Task    28 k-point     1 on eos353
   Task    29 k-point     1 on eos353
   Task    30 k-point     1 on eos353
   Task    31 k-point     1 on eos353
  Tasks:    32 split into      8 X      4 BLACS grid
  Calculating blocksize based on n_basis =          840 max_nprow =            8 max_npcol =            4
  Scalapack blocksize set to:           16
  Required Scalapack workspace - INTEGER:            1 REAL:             1
  Partitioning the integration grid into batches with parallel hashing+maxmin method.
  | Number of batches:     4695
  | Maximal batch size:     200
  | Minimal batch size:      15
  | Average batch size:     112.402
  | Standard deviation of batch sizes:      36.658

  Integration load balanced across    32 MPI tasks.
  Work distribution over tasks is as follows:
  Task     0 has      16445 integration points.
  Task     1 has      16435 integration points.
  Task     2 has      16446 integration points.
  Task     3 has      16511 integration points.
  Task     4 has      16439 integration points.
  Task     5 has      16502 integration points.
  Task     6 has      16501 integration points.
  Task     7 has      16432 integration points.
  Task     8 has      16436 integration points.
  Task     9 has      16504 integration points.
  Task    10 has      16608 integration points.
  Task    11 has      16516 integration points.
  Task    12 has      16523 integration points.
  Task    13 has      16491 integration points.
  Task    14 has      16533 integration points.
  Task    15 has      16595 integration points.
  Task    16 has      16622 integration points.
  Task    17 has      16501 integration points.
  Task    18 has      16455 integration points.
  Task    19 has      16522 integration points.
  Task    20 has      16524 integration points.
  Task    21 has      16517 integration points.
  Task    22 has      16444 integration points.
  Task    23 has      16430 integration points.
  Task    24 has      16616 integration points.
  Task    25 has      16435 integration points.
  Task    26 has      16435 integration points.
  Task    27 has      16499 integration points.
  Task    28 has      16432 integration points.
  Task    29 has      16431 integration points.
  Task    30 has      16510 integration points.
  Task    31 has      16438 integration points.
  Initializing partition tables, free-atom densities, potentials, etc. across the integration grid (initialize_grid_storage).
  | initialize_grid_storage: Actual outermost partition radius vs. multipole_radius_free
  | (-- VB: in principle, multipole_radius_free should be larger, hence this output)
  | Species        1: Confinement radius =              6.000000000000000 AA, multipole_radius_free =              6.071692442739658 AA.
  | Species        1: outer_partition_radius set to              6.071692442739658 AA .
  | Species        2: Confinement radius =              6.000000000000000 AA, multipole_radius_free =              6.029870734432609 AA.
  | Species        2: outer_partition_radius set to              6.029870734432609 AA .
  | Species        3: Confinement radius =              6.000000000000000 AA, multipole_radius_free =              6.058726835495003 AA.
  | Species        3: outer_partition_radius set to              6.058726835495003 AA .
  | Species        4: Confinement radius =              6.000000000000000 AA, multipole_radius_free =              6.064445521808699 AA.
  | Species        4: outer_partition_radius set to              6.064445521808699 AA .
  | Original list of interatomic distances with          32 x         32 entries is created.
  | Net number of integration points:   527728
  | of which are non-zero points    :   416933
  Obtaining max. number of non-zero basis functions in each batch (get_n_compute_maxes).
  | Maximal number of non-zero basis functions:      743 in task     0
  | Maximal number of non-zero basis functions:      762 in task     1
  | Maximal number of non-zero basis functions:      762 in task     2
  | Maximal number of non-zero basis functions:      745 in task     3
  | Maximal number of non-zero basis functions:      735 in task     4
  | Maximal number of non-zero basis functions:      761 in task     5
  | Maximal number of non-zero basis functions:      755 in task     6
  | Maximal number of non-zero basis functions:      761 in task     7
  | Maximal number of non-zero basis functions:      738 in task     8
  | Maximal number of non-zero basis functions:      770 in task     9
  | Maximal number of non-zero basis functions:      752 in task    10
  | Maximal number of non-zero basis functions:      734 in task    11
  | Maximal number of non-zero basis functions:      760 in task    12
  | Maximal number of non-zero basis functions:      760 in task    13
  | Maximal number of non-zero basis functions:      754 in task    14
  | Maximal number of non-zero basis functions:      764 in task    15
  | Maximal number of non-zero basis functions:      742 in task    16
  | Maximal number of non-zero basis functions:      758 in task    17
  | Maximal number of non-zero basis functions:      773 in task    18
  | Maximal number of non-zero basis functions:      757 in task    19
  | Maximal number of non-zero basis functions:      769 in task    20
  | Maximal number of non-zero basis functions:      740 in task    21
  | Maximal number of non-zero basis functions:      758 in task    22
  | Maximal number of non-zero basis functions:      770 in task    23
  | Maximal number of non-zero basis functions:      752 in task    24
  | Maximal number of non-zero basis functions:      767 in task    25
  | Maximal number of non-zero basis functions:      756 in task    26
  | Maximal number of non-zero basis functions:      768 in task    27
  | Maximal number of non-zero basis functions:      747 in task    28
  | Maximal number of non-zero basis functions:      736 in task    29
  | Maximal number of non-zero basis functions:      753 in task    30
  | Maximal number of non-zero basis functions:      770 in task    31
  Selecting the method for density update.
  Loop over occupied states selected for charge density update.
  Integrating Hamiltonian matrix: batch-based integration.
  Time summed over all CPUs for integration: real work       20.139 s, elapsed       21.030 s
  Integrating overlap matrix.
  Time summed over all CPUs for integration: real work       12.093 s, elapsed       12.584 s
  Deallocating overlap matrix.

  Updating Kohn-Sham eigenvalues, eigenvectors, occupation numbers, and Fermi level.
  Solving generalized eigenproblem
  Solving real symmetric generalised eigenvalue problem by standard ScaLAPACK.
  Transforming overlap matrix with ScaLAPACK and checking for singularities.
  : Overlap matrix is nonsingular, using Cholesky decomposition
  | Lowest eigenvalue:  0.921598E-04
  Factoring overlap matrix with Cholesky decomposition
  Using Cholesky factor for transformation
  Using 1-stage real ELPA solver
  Determining occupation numbers for Kohn-Sham eigenstates.
  | Chemical potential (Fermi level) in eV                 : -.95620658E+01
  | Error in electron count due to remaining E_F inaccuracy: 0.00000000E+00
  | Maximum occupation number of highest empty state:  0.00E+00

  Writing Kohn-Sham eigenvalues.

  State    Occupation    Eigenvalue [Ha]    Eigenvalue [eV]
      1       2.00000         -18.974052         -516.31021
      2       2.00000         -18.973663         -516.29963
      3       2.00000         -18.973007         -516.28179
      4       2.00000         -14.256050         -387.92685
      5       2.00000         -14.255250         -387.90509
      6       2.00000         -14.255069         -387.90015
      7       2.00000         -10.170910         -276.76455
      8       2.00000         -10.170257         -276.74677
      9       2.00000         -10.170209         -276.74548
     10       2.00000         -10.166483         -276.64408
     11       2.00000         -10.149541         -276.18306
     12       2.00000         -10.149532         -276.18281
     13       2.00000         -10.136296         -275.82265
     14       2.00000         -10.134943         -275.78584
     15       2.00000         -10.134633         -275.77740
     16       2.00000          -1.134505          -30.87146
     17       2.00000          -1.131096          -30.77869
     18       2.00000          -1.127077          -30.66932
     19       2.00000          -1.016916          -27.67168
     20       2.00000          -1.016112          -27.64981
     21       2.00000          -1.011539          -27.52538
     22       2.00000          -0.886085          -24.11161
     23       2.00000          -0.876367          -23.84715
     24       2.00000          -0.841549          -22.89970
     25       2.00000          -0.816465          -22.21714
     26       2.00000          -0.774451          -21.07389
     27       2.00000          -0.766757          -20.86451
     28       2.00000          -0.708287          -19.27347
     29       2.00000          -0.691156          -18.80732
     30       2.00000          -0.682703          -18.57728
     31       2.00000          -0.627270          -17.06889
     32       2.00000          -0.626131          -17.03790
     33       2.00000          -0.607231          -16.52358
     34       2.00000          -0.599496          -16.31311
     35       2.00000          -0.591106          -16.08482
     36       2.00000          -0.582110          -15.84001
     37       2.00000          -0.575466          -15.65923
     38       2.00000          -0.565134          -15.37808
     39       2.00000          -0.555658          -15.12022
     40       2.00000          -0.554293          -15.08308
     41       2.00000          -0.551719          -15.01303
     42       2.00000          -0.548240          -14.91836
     43       2.00000          -0.536166          -14.58982
     44       2.00000          -0.530211          -14.42778
     45       2.00000          -0.522610          -14.22094
     46       2.00000          -0.514589          -14.00268
     47       2.00000          -0.509121          -13.85388
     48       2.00000          -0.501219          -13.63886
     49       2.00000          -0.491198          -13.36617
     50       2.00000          -0.487089          -13.25436
     51       2.00000          -0.482948          -13.14169
     52       2.00000          -0.471989          -12.84346
     53       2.00000          -0.407987          -11.10190
     54       2.00000          -0.405078          -11.02275
     55       2.00000          -0.399374          -10.86751
     56       2.00000          -0.392396          -10.67763
     57       2.00000          -0.385118          -10.47959
     58       2.00000          -0.381759          -10.38818
     59       0.00000          -0.167679           -4.56276
     60       0.00000          -0.160220           -4.35980
     61       0.00000          -0.151549           -4.12385
     62       0.00000          -0.083566           -2.27394
     63       0.00000          -0.064402           -1.75246
     64       0.00000          -0.059980           -1.63214
     65       0.00000          -0.057238           -1.55754
     66       0.00000          -0.045716           -1.24401
     67       0.00000          -0.042233           -1.14921
     68       0.00000          -0.036056           -0.98114
     69       0.00000          -0.029683           -0.80773
     70       0.00000          -0.028345           -0.77132
     71       0.00000          -0.020481           -0.55733
     72       0.00000          -0.015788           -0.42963
     73       0.00000          -0.011135           -0.30299
     74       0.00000          -0.007299           -0.19863
     75       0.00000          -0.002355           -0.06408
     76       0.00000           0.000154            0.00419
     77       0.00000           0.002245            0.06109
     78       0.00000           0.005710            0.15538
     79       0.00000           0.008031            0.21853
     80       0.00000           0.018748            0.51016
     81       0.00000           0.024162            0.65747
     82       0.00000           0.033363            0.90786
     83       0.00000           0.041732            1.13557
     84       0.00000           0.044123            1.20064
     85       0.00000           0.046075            1.25376
     86       0.00000           0.050775            1.38167
     87       0.00000           0.055490            1.50995
     88       0.00000           0.057223            1.55712
     89       0.00000           0.064402            1.75246
     90       0.00000           0.068209            1.85605
     91       0.00000           0.077225            2.10139
     92       0.00000           0.080581            2.19273
     93       0.00000           0.087061            2.36906
     94       0.00000           0.092364            2.51335
     95       0.00000           0.096717            2.63182
     96       0.00000           0.101455            2.76073
     97       0.00000           0.104514            2.84396
     98       0.00000           0.109311            2.97450
     99       0.00000           0.119644            3.25568
    100       0.00000           0.121948            3.31837
    101       0.00000           0.127030            3.45665
    102       0.00000           0.137090            3.73041
    103       0.00000           0.139363            3.79225
    104       0.00000           0.141033            3.83769
    105       0.00000           0.146496            3.98635
    106       0.00000           0.151974            4.13541
    107       0.00000           0.155865            4.24131
    108       0.00000           0.159796            4.34827
    109       0.00000           0.164738            4.48274
    110       0.00000           0.170086            4.62829
    111       0.00000           0.175619            4.77883
    112       0.00000           0.176705            4.80840
    113       0.00000           0.180260            4.90511
    114       0.00000           0.189080            5.14513
    115       0.00000           0.194541            5.29372
    116       0.00000           0.201779            5.49068
    117       0.00000           0.207742            5.65295
    118       0.00000           0.216166            5.88217
    119       0.00000           0.217842            5.92778
    120       0.00000           0.221340            6.02297
    121       0.00000           0.224064            6.09709
    122       0.00000           0.228368            6.21420
    123       0.00000           0.230386            6.26912
    124       0.00000           0.235878            6.41858
    125       0.00000           0.244419            6.65097
    126       0.00000           0.248824            6.77083
    127       0.00000           0.253690            6.90325
    128       0.00000           0.263597            7.17285
    129       0.00000           0.271577            7.38999

  Highest occupied state (VBM) at    -10.38818316 eV
  | Occupation number:      2.00000000

  Lowest unoccupied state (CBM) at    -4.56276419 eV
  | Occupation number:      0.00000000

  Overall HOMO-LUMO gap:      5.82541897 eV.
  Calculating total energy contributions from superposition of free atom densities.

  Total energy components:
  | Sum of eigenvalues            :        -437.90732630 Ha      -11916.06463124 eV
  | XC energy correction          :         -98.82471633 Ha       -2689.15735413 eV
  | XC potential correction       :         127.02703761 Ha        3456.58156228 eV
  | Free-atom electrostatic energy:        -333.58348789 Ha       -9077.26855187 eV
  | Hartree energy correction     :           0.00000000 Ha           0.00000000 eV
  | vdW energy correction         :           0.00000000 Ha           0.00000000 eV
  | Entropy correction            :          -0.00000000 Ha          -0.00000000 eV
  | ---------------------------
  | Total energy                  :        -743.28849291 Ha      -20225.90897496 eV
  | Total energy, T -> 0          :        -743.28849291 Ha      -20225.90897496 eV  <-- do not rely on this value for anything but (periodic) metals
  | Electronic free energy        :        -743.28849291 Ha      -20225.90897496 eV

  Derived energy quantities:
  | Kinetic energy                :         735.17532690 Ha       20005.13849530 eV
  | Electrostatic energy          :       -1379.63910348 Ha      -37541.89011613 eV
  | Energy correction for multipole
  | error in Hartree potential    :           0.00000000 Ha           0.00000000 eV
  | Sum of eigenvalues per atom                           :        -372.37701973 eV
  | Total energy (T->0) per atom                          :        -632.05965547 eV  <-- do not rely on this value for anything but (periodic) metals
  | Electronic free energy per atom                       :        -632.05965547 eV
  Initialize hartree_potential_storage
  Max. number of atoms included in rho_multipole:           32

  End scf initialization - timings             :  max(cpu_time)    wall_clock(cpu1)
  | Time for scf. initialization               :        1.780 s           1.778 s
  | Boundary condition initialization          :        0.000 s           0.000 s
  | Integration                                :        1.072 s           1.072 s
  | Solution of K.-S. eqns.                    :        0.076 s           0.074 s
  | Grid partitioning                          :        0.292 s           0.289 s
  | Preloading free-atom quantities on grid    :        0.028 s           0.028 s
  | Free-atom superposition energy             :        0.040 s           0.038 s
  | Total energy evaluation                    :        0.004 s           0.001 s
------------------------------------------------------------

------------------------------------------------------------
          Begin self-consistency iteration #    1

  Date     :  20170309, Time     :  160658.749
------------------------------------------------------------
  Evaluating new KS density.
  Integration grid: deviation in total charge (<rho> - N_e) =   2.842171E-14
  Pulay mixing of updated and previous charge densities.

  Evaluating partitioned Hartree potential by multipole expansion.
  | Analytical far-field extrapolation by fixed multipoles:
  | Hartree multipole sum: apparent total charge =  -0.384640E-04
  Summing up the Hartree potential.
  Time summed over all CPUs for potential: real work        9.528 s, elapsed        9.844 s
  | RMS charge density error from multipole expansion :   0.107875E-01

  Integrating Hamiltonian matrix: batch-based integration.
  Time summed over all CPUs for integration: real work       20.100 s, elapsed       21.050 s

  Updating Kohn-Sham eigenvalues, eigenvectors, occupation numbers, and Fermi level.
  Solving generalized eigenproblem
  Solving real symmetric generalised eigenvalue problem by standard ScaLAPACK.
  Using Cholesky factor for transformation
  Using 2-stage real ELPA solver
  K-Point:    1, Trafo times: 1-stage=     0.021 s, 2-stage=     0.019 s ==> Using 2-stage solver
  Determining occupation numbers for Kohn-Sham eigenstates.
  | Chemical potential (Fermi level) in eV                 : -.48577166E+01
  | Error in electron count due to remaining E_F inaccuracy: 0.00000000E+00
  | Maximum occupation number of highest empty state:  0.00E+00

  Writing Kohn-Sham eigenvalues.

  State    Occupation    Eigenvalue [Ha]    Eigenvalue [eV]
      1       2.00000         -18.627323         -506.87526
      2       2.00000         -18.622062         -506.73209
      3       2.00000         -18.605707         -506.28704
      4       2.00000         -13.995610         -380.83992
      5       2.00000         -13.990581         -380.70309
      6       2.00000         -13.975091         -380.28157
      7       2.00000         -10.062279         -273.80855
      8       2.00000         -10.058042         -273.69325
      9       2.00000         -10.042307         -273.26507
     10       2.00000          -9.971160         -271.32906
     11       2.00000          -9.955825         -270.91178
     12       2.00000          -9.905232         -269.53508
     13       2.00000          -9.843686         -267.86031
     14       2.00000          -9.842023         -267.81508
     15       2.00000          -9.833083         -267.57180
     16       2.00000          -0.973103          -26.47947
     17       2.00000          -0.964616          -26.24853
     18       2.00000          -0.946957          -25.76802
     19       2.00000          -0.870653          -23.69168
     20       2.00000          -0.866849          -23.58817
     21       2.00000          -0.854280          -23.24615
     22       2.00000          -0.738360          -20.09180
     23       2.00000          -0.728167          -19.81443
     24       2.00000          -0.682711          -18.57751
     25       2.00000          -0.680842          -18.52665
     26       2.00000          -0.634510          -17.26590
     27       2.00000          -0.626166          -17.03885
     28       2.00000          -0.578162          -15.73259
     29       2.00000          -0.562297          -15.30088
     30       2.00000          -0.548892          -14.93611
     31       2.00000          -0.495479          -13.48267
     32       2.00000          -0.487712          -13.27132
     33       2.00000          -0.469696          -12.78109
     34       2.00000          -0.458363          -12.47268
     35       2.00000          -0.450206          -12.25073
     36       2.00000          -0.445402          -12.12001
     37       2.00000          -0.431248          -11.73486
     38       2.00000          -0.428942          -11.67210
     39       2.00000          -0.420054          -11.43024
     40       2.00000          -0.406927          -11.07306
     41       2.00000          -0.404568          -11.00885
     42       2.00000          -0.392516          -10.68090
     43       2.00000          -0.389780          -10.60644
     44       2.00000          -0.378650          -10.30359
     45       2.00000          -0.376114          -10.23459
     46       2.00000          -0.364156           -9.90919
     47       2.00000          -0.359356           -9.77857
     48       2.00000          -0.354597           -9.64908
     49       2.00000          -0.352288           -9.58624
     50       2.00000          -0.343836           -9.35625
     51       2.00000          -0.343651           -9.35122
     52       2.00000          -0.321615           -8.75158
     53       2.00000          -0.240980           -6.55739
     54       2.00000          -0.234616           -6.38422
     55       2.00000          -0.228719           -6.22375
     56       2.00000          -0.224181           -6.10028
     57       2.00000          -0.216978           -5.90426
     58       2.00000          -0.201353           -5.47908
     59       0.00000          -0.053495           -1.45567
     60       0.00000          -0.048096           -1.30876
     61       0.00000          -0.039256           -1.06822
     62       0.00000          -0.031757           -0.86415
     63       0.00000          -0.019408           -0.52813
     64       0.00000          -0.014427           -0.39257
     65       0.00000          -0.009828           -0.26744
     66       0.00000           0.004228            0.11506
     67       0.00000           0.008639            0.23507
     68       0.00000           0.016103            0.43819
     69       0.00000           0.023980            0.65253
     70       0.00000           0.027424            0.74624
     71       0.00000           0.039070            1.06315
     72       0.00000           0.040059            1.09006
     73       0.00000           0.046620            1.26859
     74       0.00000           0.049923            1.35848
     75       0.00000           0.052452            1.42730
     76       0.00000           0.060299            1.64081
     77       0.00000           0.065341            1.77801
     78       0.00000           0.070807            1.92676
     79       0.00000           0.072726            1.97899
     80       0.00000           0.083027            2.25928
     81       0.00000           0.086265            2.34738
     82       0.00000           0.093616            2.54743
     83       0.00000           0.101271            2.75574
     84       0.00000           0.104375            2.84018
     85       0.00000           0.109512            2.97998
     86       0.00000           0.117324            3.19256
     87       0.00000           0.122548            3.33469
     88       0.00000           0.124286            3.38200
     89       0.00000           0.130047            3.53875
     90       0.00000           0.140926            3.83478
     91       0.00000           0.142896            3.88839
     92       0.00000           0.149489            4.06781
     93       0.00000           0.153882            4.18734
     94       0.00000           0.158110            4.30240
     95       0.00000           0.159385            4.33710
     96       0.00000           0.161758            4.40165
     97       0.00000           0.176669            4.80741
     98       0.00000           0.178336            4.85278
     99       0.00000           0.179148            4.87485
    100       0.00000           0.184121            5.01018
    101       0.00000           0.193873            5.27555
    102       0.00000           0.196849            5.35654
    103       0.00000           0.203995            5.55098
    104       0.00000           0.207551            5.64775
    105       0.00000           0.212041            5.76994
    106       0.00000           0.215422            5.86192
    107       0.00000           0.219802            5.98112
    108       0.00000           0.224043            6.09653
    109       0.00000           0.225994            6.14962
    110       0.00000           0.228816            6.22641
    111       0.00000           0.230016            6.25904
    112       0.00000           0.239465            6.51616
    113       0.00000           0.241710            6.57728
    114       0.00000           0.249697            6.79459
    115       0.00000           0.253996            6.91158
    116       0.00000           0.259141            7.05158
    117       0.00000           0.269893            7.34416
    118       0.00000           0.273979            7.45536
    119       0.00000           0.277350            7.54707
    120       0.00000           0.279329            7.60092
    121       0.00000           0.290230            7.89757
    122       0.00000           0.292419            7.95714
    123       0.00000           0.299414            8.14747
    124       0.00000           0.309545            8.42314
    125       0.00000           0.311737            8.48280
    126       0.00000           0.320133            8.71125
    127       0.00000           0.334760            9.10928
    128       0.00000           0.339997            9.25179
    129       0.00000           0.341806            9.30102

  Highest occupied state (VBM) at     -5.47908431 eV
  | Occupation number:      2.00000000

  Lowest unoccupied state (CBM) at    -1.45566703 eV
  | Occupation number:      0.00000000

  Overall HOMO-LUMO gap:      4.02341729 eV.

  Total energy components:
  | Sum of eigenvalues            :        -417.61711459 Ha      -11363.93987883 eV
  | XC energy correction          :        -100.76110039 Ha       -2741.84904547 eV
  | XC potential correction       :         129.53869863 Ha        3524.92733610 eV
  | Free-atom electrostatic energy:        -333.58348789 Ha       -9077.26855187 eV
  | Hartree energy correction     :         -20.29745487 Ha        -552.32184886 eV
  | vdW energy correction         :           0.00000000 Ha           0.00000000 eV
  | Entropy correction            :          -0.00000000 Ha          -0.00000000 eV
  | ---------------------------
  | Total energy                  :        -742.72045911 Ha      -20210.45198894 eV
  | Total energy, T -> 0          :        -742.72045911 Ha      -20210.45198894 eV  <-- do not rely on this value for anything but (periodic) metals
  | Electronic free energy        :        -742.72045911 Ha      -20210.45198894 eV

  Derived energy quantities:
  | Kinetic energy                :         744.07069372 Ha       20247.19374193 eV
  | Electrostatic energy          :       -1386.03005244 Ha      -37715.79668539 eV
  | Energy correction for multipole
  | error in Hartree potential    :          -0.04145403 Ha          -1.12802143 eV
  | Sum of eigenvalues per atom                           :        -355.12312121 eV
  | Total energy (T->0) per atom                          :        -631.57662465 eV  <-- do not rely on this value for anything but (periodic) metals
  | Electronic free energy per atom                       :        -631.57662465 eV

  Self-consistency convergence accuracy:
  | Change of charge density      :  0.9029E+00
  | Change of sum of eigenvalues  :  0.5521E+03 eV
  | Change of total energy        :  0.1546E+02 eV

  End self-consistency iteration #     1       :  max(cpu_time)    wall_clock(cpu1)
  | Time for this iteration                    :        1.496 s           1.495 s
  | Charge density update                      :        0.472 s           0.472 s
[...]
   ----------------------------------------------------------------
   Total forces(  20)            : -0.194560E-02  0.126431E-02 -0.128365E-02
  atom #   21
   Hellmann-Feynman              :  0.457671E-01  0.132298E-01 -0.208077E-01
   Ionic forces                  :  0.000000E+00  0.000000E+00  0.000000E+00
   Multipole                     : -0.126841E-02  0.135670E-01  0.225216E-01
   Pulay + GGA                   : -0.496184E-01 -0.344912E-01  0.654619E-02
   Van der Waals                 :  0.499179E-02  0.503367E-02 -0.664872E-02
   ----------------------------------------------------------------
   Total forces(  21)            : -0.127964E-03 -0.266068E-02  0.161143E-02
  atom #   22
   Hellmann-Feynman              : -0.600166E-01 -0.139360E-01  0.796424E-02
   Ionic forces                  :  0.000000E+00  0.000000E+00  0.000000E+00
   Multipole                     :  0.315515E-02  0.316031E-02  0.166410E-01
   Pulay + GGA                   :  0.583138E-01  0.174714E-01 -0.143397E-01
   Van der Waals                 : -0.702520E-03 -0.561756E-02 -0.100662E-01
   ----------------------------------------------------------------
   Total forces(  22)            :  0.749908E-03  0.107813E-02  0.199414E-03
  atom #   23
   Hellmann-Feynman              : -0.726303E+00  0.489977E+00  0.605753E+00
   Ionic forces                  :  0.000000E+00  0.000000E+00  0.000000E+00
   Multipole                     :  0.223210E+00 -0.110552E+00 -0.238138E+00
   Pulay + GGA                   :  0.484507E+00 -0.391919E+00 -0.357688E+00
   Van der Waals                 :  0.170481E-01  0.143389E-01 -0.751968E-02
   ----------------------------------------------------------------
   Total forces(  23)            : -0.153732E-02  0.184573E-02  0.240671E-02
  atom #   24
   Hellmann-Feynman              : -0.137539E-01 -0.143273E-01 -0.403305E-01
   Ionic forces                  :  0.000000E+00  0.000000E+00  0.000000E+00
   Multipole                     : -0.268308E-01  0.103809E-01 -0.615359E-02
   Pulay + GGA                   :  0.432962E-01  0.345832E-02  0.479796E-01
   Van der Waals                 : -0.252915E-02  0.414677E-03 -0.163605E-02
   ----------------------------------------------------------------
   Total forces(  24)            :  0.182253E-03 -0.733963E-04 -0.140452E-03
  atom #   25
   Hellmann-Feynman              :  0.450889E-01 -0.136747E-01 -0.318358E-01
   Ionic forces                  :  0.000000E+00  0.000000E+00  0.000000E+00
   Multipole                     :  0.996578E-02  0.245756E-01  0.913360E-02
   Pulay + GGA                   : -0.548751E-01 -0.168735E-01  0.171950E-01
   Van der Waals                 : -0.341918E-03  0.594199E-02  0.475158E-02
   ----------------------------------------------------------------
   Total forces(  25)            : -0.162363E-03 -0.305645E-04 -0.755588E-03
  atom #   26
   Hellmann-Feynman              :  0.605611E-02 -0.469589E-01 -0.937827E-02
   Ionic forces                  :  0.000000E+00  0.000000E+00  0.000000E+00
   Multipole                     : -0.640966E-02 -0.141536E-01  0.297423E-01
   Pulay + GGA                   : -0.179507E-02  0.637220E-01 -0.159881E-01
   Van der Waals                 :  0.218685E-02 -0.201354E-02 -0.475779E-02
   ----------------------------------------------------------------
   Total forces(  26)            :  0.382327E-04  0.595962E-03 -0.381798E-03
  atom #   27
   Hellmann-Feynman              : -0.127871E+01 -0.820266E+00  0.445497E-01
   Ionic forces                  :  0.000000E+00  0.000000E+00  0.000000E+00
   Multipole                     : -0.181289E+00 -0.547393E-01 -0.828335E-01
   Pulay + GGA                   :  0.146667E+01  0.872269E+00  0.444838E-01
   Van der Waals                 : -0.697090E-02  0.176936E-02 -0.565990E-02
   ----------------------------------------------------------------
   Total forces(  27)            : -0.298856E-03 -0.966749E-03  0.540113E-03
  atom #   28
   Hellmann-Feynman              :  0.182458E+01  0.119194E+01  0.370901E+00
   Ionic forces                  :  0.000000E+00  0.000000E+00  0.000000E+00
   Multipole                     : -0.870826E-01 -0.753931E-01 -0.836347E-02
   Pulay + GGA                   : -0.172893E+01 -0.111903E+01 -0.359973E+00
   Van der Waals                 : -0.864226E-02  0.433889E-02 -0.280714E-02
   ----------------------------------------------------------------
   Total forces(  28)            : -0.701238E-04  0.185354E-02 -0.242633E-03
  atom #   29
   Hellmann-Feynman              : -0.491698E-01  0.273329E-01 -0.338776E-01
   Ionic forces                  :  0.000000E+00  0.000000E+00  0.000000E+00
   Multipole                     :  0.325553E-01  0.227296E-01  0.846389E-02
   Pulay + GGA                   :  0.182045E-01 -0.601225E-01  0.287859E-01
   Van der Waals                 : -0.280668E-02  0.860731E-02 -0.330815E-02
   ----------------------------------------------------------------
   Total forces(  29)            : -0.121661E-02 -0.145271E-02  0.640895E-04
  atom #   30
   Hellmann-Feynman              : -0.449743E-01 -0.929685E-02 -0.161311E-01
   Ionic forces                  :  0.000000E+00  0.000000E+00  0.000000E+00
   Multipole                     :  0.732856E-02  0.418084E-01 -0.117094E-01
   Pulay + GGA                   :  0.432044E-01 -0.379297E-01  0.339542E-01
   Van der Waals                 : -0.385229E-02  0.359894E-02 -0.286903E-02
   ----------------------------------------------------------------
   Total forces(  30)            :  0.170638E-02 -0.181929E-02  0.324463E-02
  atom #   31
   Hellmann-Feynman              : -0.114279E-01 -0.463526E-01 -0.154471E-01
   Ionic forces                  :  0.000000E+00  0.000000E+00  0.000000E+00
   Multipole                     :  0.135210E-01 -0.104314E-01 -0.236596E-01
   Pulay + GGA                   : -0.118281E-01  0.573602E-01  0.335023E-01
   Van der Waals                 :  0.867154E-02  0.106809E-02  0.685172E-02
   ----------------------------------------------------------------
   Total forces(  31)            : -0.106349E-02  0.164423E-02  0.124724E-02
  atom #   32
   Hellmann-Feynman              : -0.162667E-01 -0.480252E-01  0.227968E-01
   Ionic forces                  :  0.000000E+00  0.000000E+00  0.000000E+00
   Multipole                     : -0.115187E-01  0.101990E-01  0.291764E-01
   Pulay + GGA                   :  0.257732E-01  0.336043E-01 -0.492272E-01
   Van der Waals                 :  0.367161E-02  0.351211E-02 -0.445446E-02
   ----------------------------------------------------------------
   Total forces(  32)            :  0.165941E-02 -0.709773E-03 -0.170849E-02

  Timings for VdW correction (Tkatchenko-Scheffler 2009 or later):
  | CPU time:        0.120 s, Wall clock time:        0.119 s.
  Removing unitary transformations (pure translations, rotations) from forces on atoms.
  Atomic forces before filtering:
  | Net force on center of mass :   0.738194E-03  0.481029E-03  0.107436E-03 eV/A
  | Net torque on center of mass:  -0.763641E-03 -0.104159E-02 -0.544518E-02 eV
  Atomic forces after filtering:
  | Net force on center of mass :   0.000000E+00 -0.139380E-17 -0.696899E-18 eV/A
  | Net torque on center of mass:   0.663809E-17  0.737566E-17  0.553175E-17 eV

  Energy and forces in a compact form:
  | Total energy uncorrected      :         -0.202087756955904E+05 eV
  | Total energy corrected        :         -0.202087756955904E+05 eV  <-- do not rely on this value for anything but (periodic) metals
  | Electronic free energy        :         -0.202087756955904E+05 eV
  Total atomic forces (unitary forces cleaned) [eV/Ang]:
  |   1          0.162642568737058E-03          0.574657706940515E-03          0.994150264035302E-03
  |   2         -0.169646688735343E-02          0.304013621609280E-03         -0.377705914542505E-02
  |   3          0.153349448218167E-02          0.107648314866803E-03          0.253497228559030E-02
  |   4         -0.556034049358820E-04         -0.544548706767794E-04         -0.257772816493195E-03
  |   5         -0.498125235559798E-03          0.978016970854291E-04         -0.164526530280711E-03
  |   6         -0.674513268642999E-03         -0.359758774626665E-03          0.631062625585310E-03
  |   7          0.855564376841157E-03         -0.101970377005171E-02          0.114756472733008E-02
  |   8         -0.519830319264123E-03         -0.274428451555697E-02         -0.311416199424813E-02
  |   9          0.853408682827118E-03         -0.804124187540010E-03          0.325205845218881E-02
  |  10         -0.106548271704444E-02          0.964935743543896E-03         -0.238799525302853E-02
  |  11         -0.965487263651235E-03          0.477700660105314E-03         -0.966457801943056E-05
  |  12         -0.100478163378750E-04         -0.245528582891533E-03          0.255663155097270E-03
  |  13         -0.725632148326042E-03          0.351169171772373E-02          0.604155252922969E-03
  |  14          0.680846895898747E-03         -0.498322391066153E-03          0.266882031935458E-03
  |  15         -0.376331947907253E-03         -0.121623237178270E-03          0.638922029059859E-03
  |  16          0.289870956260032E-03         -0.303337522681204E-03         -0.225744689502306E-03
  |  17          0.120423690099845E-02          0.248142580683183E-02         -0.244389217306541E-02
  |  18         -0.136906385402802E-03          0.181551309376572E-03         -0.374923900900071E-02
  |  19          0.316150594702377E-02         -0.289602499838151E-02          0.102354743052188E-02
  |  20         -0.186396497891994E-02          0.119299290684856E-02         -0.128702645649823E-02
  |  21         -0.976331714115454E-04         -0.277008478951995E-02          0.159891171878355E-02
  |  22          0.724636175690630E-03          0.106753859306479E-02          0.196510499010214E-03
  |  23         -0.158069949806983E-02          0.177164709570913E-02          0.239361197216416E-02
  |  24          0.131914467317675E-03         -0.121913215603757E-03         -0.150509535407385E-03
  |  25         -0.187527345675469E-03         -0.141440998812341E-03         -0.772453260207641E-03
  |  26         -0.434633292578175E-04          0.512773623195917E-03         -0.399026521559081E-03
  |  27         -0.245403622457403E-03         -0.956028604264144E-03          0.546055831937025E-03
  |  28         -0.531485010584543E-04          0.190896616777328E-02         -0.233185318442320E-03
  |  29         -0.112736984851831E-02         -0.143769281149117E-02          0.733034029489489E-04
  |  30          0.174176738379694E-02         -0.173160647582427E-02          0.325994700669882E-02
  |  31         -0.108413313262390E-02          0.169074493117461E-02          0.125264016045954E-02
  |  32          0.166788198484528E-02         -0.640160149683222E-03         -0.169770156509137E-02

  ------------------------------------ 
  Start decomposition of the XC Energy 
  ------------------------------------ 
  Hartree-Fock part   :          0.000000000 Ha              0.000000000 eV
  ------------------------------------ 
  X Energy            :        -96.991788387 Ha          -2639.280847139 eV
  C Energy GGA        :         -3.868382237 Ha           -105.264036434 eV
  Total XC Energy     :       -100.860170624 Ha          -2744.544883573 eV
  LDA X and C from self-consistent density 
  X Energy LDA        :        -88.007331956 Ha          -2394.801348685 eV
  C Energy LDA        :         -7.531988373 Ha           -204.955831658 eV
  ------------------------------------ 
  End decomposition of the XC Energy 
  ------------------------------------ 
   
  ESP charge fitting starts.
  | Calculation :  00000001  of  00000001
  | Full density
  Computing multipole expansion for total density.
  Generating points for esp charges.
  Partitioning the integration grid into batches with parallel hashing+maxmin method.
  | Number of batches:     3848
  | Maximal batch size:     192
  | Minimal batch size:      53
  | Average batch size:     126.474
  | Standard deviation of batch sizes:      17.462

  Integration load balanced across    32 MPI tasks.
  Work distribution over tasks is as follows:
  Initializing partition tables, free-atom densities, potentials, etc. across the integration grid (initialize_grid_storage).
  | Original list of interatomic distances with          32 x         32 entries is created.
  | Net number of integration points:   486672
  | of which are non-zero points    :   486672
  Summing up potential from multipole expanded  density.
  Summing up the Hartree potential.
  Time summed over all CPUs for potential: real work        6.406 s, elapsed        6.637 s
  Fitting esp charges to potential.
  |
  | ESP charges fitted to the electrostatic potential :
  |
  | Atom         1: C, ESP charge:      0.89911990
  |
  | Atom         2: C, ESP charge:     -0.74847950
  |
  | Atom         3: O, ESP charge:      0.57371075
  |
  | Atom         4: H, ESP charge:     -0.24587728
  |
  | Atom         5: H, ESP charge:     -0.25306186
  |
  | Atom         6: H, ESP charge:     -0.24150367
  |
  | Atom         7: N, ESP charge:      0.63833111
  |
  | Atom         8: C, ESP charge:     -0.49328076
  |
  | Atom         9: C, ESP charge:     -0.49472829
  |
  | Atom        10: O, ESP charge:      0.52098129
  |
  | Atom        11: H, ESP charge:     -0.29263594
  |
  | Atom        12: H, ESP charge:      0.00313699
  |
  | Atom        13: C, ESP charge:      0.35930085
  |
  | Atom        14: H, ESP charge:     -0.03159345
  |
  | Atom        15: H, ESP charge:     -0.09874044
  |
  | Atom        16: H, ESP charge:     -0.12144646
  |
  | Atom        17: N, ESP charge:      0.74382768
  |
  | Atom        18: C, ESP charge:     -0.85135306
  |
  | Atom        19: C, ESP charge:     -0.17989540
  |
  | Atom        20: O, ESP charge:      0.47109882
  |
  | Atom        21: H, ESP charge:     -0.35724846
  |
  | Atom        22: H, ESP charge:      0.10243783
  |
  | Atom        23: C, ESP charge:      0.76952384
  |
  | Atom        24: H, ESP charge:     -0.19375348
  |
  | Atom        25: H, ESP charge:     -0.19896261
  |
  | Atom        26: H, ESP charge:     -0.19729611
  |
  | Atom        27: N, ESP charge:      0.36298715
  |
  | Atom        28: C, ESP charge:      0.14423553
  |
  | Atom        29: H, ESP charge:     -0.32650437
  |
  | Atom        30: H, ESP charge:     -0.12404429
  |
  | Atom        31: H, ESP charge:     -0.05996438
  |
  | Atom        32: H, ESP charge:     -0.07832194

  RRMS:       0.00391400

  Done.

------------------------------------------------------------------------------
  Final output of selected total energy values:

  The following output summarizes some interesting total energy values
  at the end of a run (AFTER all relaxation, molecular dynamics, etc.).

  | Total energy of the DFT / Hartree-Fock s.c.f. calculation      :         -20208.775695590 eV
  | Final zero-broadening corrected energy (caution - metals only) :         -20208.775695590 eV
  | For reference only, the value of 1 Hartree used in FHI-aims is :             27.211384500 eV

  Before relying on these values, please be sure to understand exactly which
  total energy value is referred to by a given number. Different objects may
  all carry the same name 'total energy'. Definitions:

  Total energy of the DFT / Hartree-Fock s.c.f. calculation:
  | Note that this energy does not include ANY quantities calculated after the
  | s.c.f. cycle, in particular not ANY RPA, MP2, etc. many-body perturbation terms.

  Final zero-broadening corrected energy:
  | For metallic systems only, a broadening of the occupation numbers at the Fermi
  | level can be extrapolated back to zero broadening by an electron-gas inspired
  | formula. For all systems that are not real metals, this value can be
  | meaningless and should be avoided.

------------------------------------------------------------------------------
  Methods described in the following list of references were used in this FHI-aims run.
  If you publish the results, please make sure to cite these reference if they apply.
  FHI-aims is an academic code, and for our developers (often, Ph.D. students
  and postdocs), scientific credit in the community is essential.
  Thank you for helping us!

  For any use of FHI-aims, please cite:

    Volker Blum, Ralf Gehrke, Felix Hanke, Paula Havu, Ville Havu,
    Xinguo Ren, Karsten Reuter, and Matthias Scheffler
    'Ab initio molecular simulations with numeric atom-centered orbitals'
    Computer Physics Communications 180, 2175-2196 (2009)
    http://dx.doi.org/10.1016/j.cpc.2009.06.022


  The scalable eigensolver library ELPA was used in your run.
  ELPA is essential especially for large systems on hundreds or thousands of CPUs.
  For ELPA, please cite:

    Andreas Marek, Volker Blum, Rainer Johanni, Ville Havu, Bruno Lang,
    Thomas Auckenthaler, Alexander Heinecke, Hans-Joachim Bungartz, and Hermann Lederer,
    'The ELPA Library - Scalable Parallel Eigenvalue Solutions
    for Electronic Structure Theory and Computational Science'
    The Journal of Physics: Condensed Matter 26, 213201 (2014).
    http://dx.doi.org/10.1088/0953-8984/26/21/213201


  For ELPA's efficient two-stage tridiagonalization used in your run, please cite:

    T. Auckenthaler, V. Blum, H.-J. Bungartz, T. Huckle, R. Johanni, L. Kraemer,
    B. Lang, H. Lederer, and P. R. Willems,
    'Parallel solution of partial symmetric eigenvalue problems'
    'from  electronic structure calculations'
    Parallel Computing 37, 783-794 (2011).
    http://dx.doi.org/10.1016/j.parco.2011.05.002


  For the real-space grid partitioning and parallelization used in this calculation, please cite:

    Ville Havu, Volker Blum, Paula Havu, and Matthias Scheffler,
    'Efficient O(N) integration for all-electron electronic structure calculation'
    'using numerically tabulated basis functions'
    Journal of Computational Physics 228, 8367-8379 (2009).
    http://dx.doi.org/10.1016/j.jcp.2009.08.008

  Of course, there are many other important community references, e.g., those cited in the
  above references. Our list is limited to references that describe implementations in the
  FHI-aims code. The reason is purely practical (length of this list) - please credit others as well.

------------------------------------------------------------
          Leaving FHI-aims.
          Date     :  20170309, Time     :  160725.991

          Computational steps:
          | Number of self-consistency cycles          :           14

          Detailed time accounting                     :  max(cpu_time)    wall_clock(cpu1)
          | Total time                                 :       29.878 s          30.051 s
          | Preparation time                           :        0.240 s           0.239 s
          | Grid partitioning                          :        0.292 s           0.289 s
          | Preloading free-atom quantities on grid    :        0.028 s           0.028 s
          | Free-atom superposition energy             :        0.040 s           0.038 s
          | Total time for integrations                :       10.509 s          10.495 s
          | Total time for solution of K.-S. equations :        0.528 s           0.496 s
          | Total time for density & force components  :        9.513 s           9.507 s
          | Total time for mixing                      :        0.128 s           0.103 s
          | Total time for Hartree multipole update    :        0.068 s           0.060 s
          | Total time for Hartree multipole sum       :        6.468 s           6.440 s
          | Total time for total energy evaluation     :        0.028 s           0.024 s
          | Total time for vdW correction              :        0.120 s           0.119 s

          Have a nice day.
------------------------------------------------------------
