  MPI-parallelism will be employed.
------------------------------------------------------------
          Invoking FHI-aims ...
          Version 150427
          Git rev.: 9dd23e0 BL: Update Version stamp
          Compiled on 2015/11/03 at 22:05:20 on host eos03.

          When using FHI-aims, please cite the following reference:

          Volker Blum, Ralf Gehrke, Felix Hanke, Paula Havu,
          Ville Havu, Xinguo Ren, Karsten Reuter, and Matthias Scheffler,
          'Ab Initio Molecular Simulations with Numeric Atom-Centered Orbitals: FHI-aims',
          Computer Physics Communications 180, 2175-2196 (2009)

          For any questions about FHI-aims, please visit the aimsclub website
          with its forums and wiki. Contributions to both the forums and the
          wiki are warmly encouraged - they are for you, and everyone is welcome there.

------------------------------------------------------------

  Date     :  20170309, Time     :  190155.708
  Time zero on CPU 1             :   0.380023000000000E+00  s.
  Internal wall clock time zero  :           258318115.708  s.

  Using       32 parallel tasks.
  Task        0 on host eos026 reporting.
  Task        1 on host eos026 reporting.
  Task        2 on host eos026 reporting.
  Task        3 on host eos026 reporting.
  Task        4 on host eos026 reporting.
  Task        5 on host eos026 reporting.
  Task        6 on host eos026 reporting.
  Task        7 on host eos026 reporting.
  Task        8 on host eos026 reporting.
  Task        9 on host eos026 reporting.
  Task       10 on host eos026 reporting.
  Task       11 on host eos026 reporting.
  Task       12 on host eos026 reporting.
  Task       13 on host eos026 reporting.
  Task       14 on host eos026 reporting.
  Task       15 on host eos026 reporting.
  Task       16 on host eos026 reporting.
  Task       17 on host eos026 reporting.
  Task       18 on host eos026 reporting.
  Task       19 on host eos026 reporting.
  Task       20 on host eos026 reporting.
  Task       21 on host eos026 reporting.
  Task       22 on host eos026 reporting.
  Task       23 on host eos026 reporting.
  Task       24 on host eos026 reporting.
  Task       25 on host eos026 reporting.
  Task       26 on host eos026 reporting.
  Task       27 on host eos026 reporting.
  Task       28 on host eos026 reporting.
  Task       29 on host eos026 reporting.
  Task       30 on host eos026 reporting.
  Task       31 on host eos026 reporting.

  Performing system and environment tests:
  | Environment variable OMP_NUM_THREADS correctly set to 1.
  | Stacksize not measured: no C compiler
  | Checking for scalapack...
  | Testing pdtran()...
  | All pdtran() tests passed.

  Obtaining array dimensions for all initial allocations:
  
  -----------------------------------------------------------------------
  Parsing control.in (first pass over file, find array dimensions only).
  The contents of control.in will be repeated verbatim below
  unless switched off by setting 'verbatim_writeout .false.' .
  in the first line of control.in .
  -----------------------------------------------------------------------
  
  #########################################################################################
  #
  # Input for System
  #
  #########################################################################################
  #
  #
  #  Physical model
  #
    xc                 pbe
    vdw_correction_hirshfeld
    spin               none
    charge             0.
  #
  #  SCF convergence
  #
    occupation_type    gaussian 0.05
    mixer              pulay
      n_max_pulay        10
      charge_mix_param   0.5
    sc_accuracy_rho    1E-4
    sc_accuracy_eev    1E-2
    sc_accuracy_etot   1E-5
    sc_accuracy_forces 1E-4
    sc_iter_limit      1000
  #
  #  ESP charge
  #
    output esp
    esp equal_grid_n 80 80 80
  #
  #
  ################################################################################
  #
  #  FHI-aims code project
  # Volker Blum, Fritz Haber Institute Berlin, 2009
  #
  #  Suggested "tight" defaults for H atom (to be pasted into control.in file)
  #
  ################################################################################
    species        H
  #     global species definitions
      nucleus             1
      mass                1.00794
  #
      l_hartree           6
  #
      cut_pot             4.0  2.0  1.0
      basis_dep_cutoff    1e-4
  #
      radial_base         24 7.0
      radial_multiplier   2
      angular_grids       specified
        division   0.1930   50
        division   0.3175  110
        division   0.4293  194
        division   0.5066  302
        division   0.5626  434
  #      division   0.5922  590
  #      division   0.6227  974
  #      division   0.6868 1202
  #      outer_grid  770
        outer_grid  434
  ################################################################################
  #
  #  Definition of "minimal" basis
  #
  ################################################################################
  #     valence basis states
      valence      1  s   1.
  #     ion occupancy
      ion_occ      1  s   0.5
  ################################################################################
  #
  #  Suggested additional basis functions. For production calculations,
  #  uncomment them one after another (the most important basis functions are
  #  listed first).
  #
  #  Basis constructed for dimers: 0.5 A, 0.7 A, 1.0 A, 1.5 A, 2.5 A
  #
  ################################################################################
  #  "First tier" - improvements: -1014.90 meV to -62.69 meV
       hydro 2 s 2.1
       hydro 2 p 3.5
  #  "Second tier" - improvements: -12.89 meV to -1.83 meV
       hydro 1 s 0.85
       hydro 2 p 3.7
       hydro 2 s 1.2
       hydro 3 d 7
  #  "Third tier" - improvements: -0.25 meV to -0.12 meV
  #     hydro 4 f 11.2
  #     hydro 3 p 4.8
  #     hydro 4 d 9
  #     hydro 3 s 3.2
  ################################################################################
  #
  # For methods that use the localized form of the "resolution of identity" for
  # the two-electron Coulomb operator (RI_method LVL), particularly Hartree-Fock and
  # hybrid density functional calculations, the highest accuracy can be obtained by
  # uncommenting the line beginning with "for_aux"  below, thus adding an extra g radial
  # function to the construction of the product basis set for the expansion.
  # See Ref. New J. Phys. 17, 093020 (2015) for more information, particularly Figs. 1 and 6.
  #
  ################################################################################
  #
  # for_aux hydro 5 g 6.0
  ################################################################################
  #
  #  FHI-aims code project
  # Volker Blum, Fritz Haber Institute Berlin, 2009
  #
  #  Suggested "tight" defaults for C atom (to be pasted into control.in file)
  #
  ################################################################################
    species        C
  #     global species definitions
      nucleus             6
      mass                12.0107
  #
      l_hartree           6
  #
      cut_pot             4.0  2.0  1.0
      basis_dep_cutoff    1e-4
  #
      radial_base         34 7.0
      radial_multiplier   2
      angular_grids specified
        division   0.2187   50
        division   0.4416  110
        division   0.6335  194
        division   0.7727  302
        division   0.8772  434
  #      division   0.9334  590
  #      division   0.9924  770
  #      division   1.0230  974
  #      division   1.5020 1202
  #     outer_grid  974
        outer_grid  434
  ################################################################################
  #
  #  Definition of "minimal" basis
  #
  ################################################################################
  #     valence basis states
      valence      2  s   2.
      valence      2  p   2.
  #     ion occupancy
      ion_occ      2  s   1.
      ion_occ      2  p   1.
  ################################################################################
  #
  #  Suggested additional basis functions. For production calculations,
  #  uncomment them one after another (the most important basis functions are
  #  listed first).
  #
  #  Constructed for dimers: 1.0 A, 1.25 A, 1.5 A, 2.0 A, 3.0 A
  #
  ################################################################################
  #  "First tier" - improvements: -1214.57 meV to -155.61 meV
       hydro 2 p 1.7
       hydro 3 d 6
       hydro 2 s 4.9
  #  "Second tier" - improvements: -67.75 meV to -5.23 meV
       hydro 4 f 9.8
       hydro 3 p 5.2
       hydro 3 s 4.3
       hydro 5 g 14.4
       hydro 3 d 6.2
  #  "Third tier" - improvements: -2.43 meV to -0.60 meV
  #     hydro 2 p 5.6
  #     hydro 2 s 1.4
  #     hydro 3 d 4.9
  #     hydro 4 f 11.2
  #  "Fourth tier" - improvements: -0.39 meV to -0.18 meV
  #     hydro 2 p 2.1
  #     hydro 5 g 16.4
  #     hydro 4 d 13.2
  #     hydro 3 s 13.6
  #     hydro 4 f 17.6
  #  Further basis functions - improvements: -0.08 meV and below
  #     hydro 3 s 2
  #     hydro 3 p 6
  #     hydro 4 d 20
  ################################################################################
  #
  # For methods that use the localized form of the "resolution of identity" for
  # the two-electron Coulomb operator (RI_method LVL), particularly Hartree-Fock and
  # hybrid density functional calculations, the highest accuracy can be obtained by
  # uncommenting the line beginning with "for_aux"  below, thus adding an extra g radial
  # function to the construction of the product basis set for the expansion.
  # See Ref. New J. Phys. 17, 093020 (2015) for more information, particularly Figs. 1 and 6.
  #
  ################################################################################
  #
  # for_aux hydro 5 g 6.0
  ################################################################################
  #
  #  FHI-aims code project
  # Volker Blum, Fritz Haber Institute Berlin, 2009
  #
  #  Suggested "tight" defaults for N atom (to be pasted into control.in file)
  #
  ################################################################################
    species        N
  #     global species definitions
      nucleus             7
      mass                14.0067
  #
      l_hartree           6
  #
      cut_pot             4.0  2.0  1.0
      basis_dep_cutoff    1e-4
  #
      radial_base         35 7.0
      radial_multiplier   2
      angular_grids       specified
        division   0.1841   50
        division   0.3514  110
        division   0.5126  194
        division   0.6292  302
        division   0.6939  434
  #      division   0.7396  590
  #      division   0.7632  770
  #      division   0.8122  974
  #      division   1.1604 1202
  #      outer_grid  974
        outer_grid  434
  ################################################################################
  #
  #  Definition of "minimal" basis
  #
  ################################################################################
  #     valence basis states
      valence      2  s   2.
      valence      2  p   3.
  #     ion occupancy
      ion_occ      2  s   1.
      ion_occ      2  p   2.
  ################################################################################
  #
  #  Suggested additional basis functions. For production calculations,
  #  uncomment them one after another (the most important basis functions are
  #  listed first).
  #
  #  Constructed for dimers: 1.0 A, 1.1 A, 1.5 A, 2.0 A, 3.0 A
  #
  ################################################################################
  #  "First tier" - improvements: -1193.42 meV to -220.60 meV
       hydro 2 p 1.8
       hydro 3 d 6.8
       hydro 3 s 5.8
  #  "Second tier" - improvements: -80.21 meV to -6.86 meV
       hydro 4 f 10.8
       hydro 3 p 5.8
       hydro 1 s 0.8
       hydro 5 g 16
       hydro 3 d 4.9
  #  "Third tier" - improvements: -4.29 meV to -0.53 meV
  #     hydro 3 s 16
  #     ionic 2 p auto
  #     hydro 3 d 6.6
  #     hydro 4 f 11.6
  #  "Fourth tier" - improvements: -0.75 meV to -0.25 meV
  #     hydro 2 p 4.5
  #     hydro 2 s 2.4
  #     hydro 5 g 14.4
  #     hydro 4 d 14.4
  #     hydro 4 f 16.8
  # Further basis functions - -0.21 meV and below
  #     hydro 3 p 14.8
  #     hydro 3 s 4.4
  #     hydro 3 d 19.6
  #     hydro 5 g 12.8
  ################################################################################
  #
  # For methods that use the localized form of the "resolution of identity" for
  # the two-electron Coulomb operator (RI_method LVL), particularly Hartree-Fock and
  # hybrid density functional calculations, the highest accuracy can be obtained by
  # uncommenting the line beginning with "for_aux"  below, thus adding an extra g radial
  # function to the construction of the product basis set for the expansion.
  # See Ref. New J. Phys. 17, 093020 (2015) for more information, particularly Figs. 1 and 6.
  #
  ################################################################################
  #
  # for_aux hydro 5 g 6.0
  ################################################################################
  #
  #  FHI-aims code project
  # Volker Blum, Fritz Haber Institute Berlin, 2009
  #
  #  Suggested "tight" defaults for O atom (to be pasted into control.in file)
  #
  ################################################################################
    species        O
  #     global species definitions
      nucleus             8
      mass                15.9994
  #
      l_hartree           6
  #
      cut_pot             4.0  2.0  1.0
      basis_dep_cutoff    1e-4
  #
      radial_base         36 7.0
      radial_multiplier   2
       angular_grids specified
        division   0.1817   50
        division   0.3417  110
        division   0.4949  194
        division   0.6251  302
        division   0.8014  434
  #      division   0.8507  590
  #      division   0.8762  770
  #      division   0.9023  974
  #      division   1.2339 1202
  #      outer_grid 974
        outer_grid  434
  ################################################################################
  #
  #  Definition of "minimal" basis
  #
  ################################################################################
  #     valence basis states
      valence      2  s   2.
      valence      2  p   4.
  #     ion occupancy
      ion_occ      2  s   1.
      ion_occ      2  p   3.
  ################################################################################
  #
  #  Suggested additional basis functions. For production calculations,
  #  uncomment them one after another (the most important basis functions are
  #  listed first).
  #
  #  Constructed for dimers: 1.0 A, 1.208 A, 1.5 A, 2.0 A, 3.0 A
  #
  ################################################################################
  #  "First tier" - improvements: -699.05 meV to -159.38 meV
       hydro 2 p 1.8
       hydro 3 d 7.6
       hydro 3 s 6.4
  #  "Second tier" - improvements: -49.91 meV to -5.39 meV
       hydro 4 f 11.6
       hydro 3 p 6.2
       hydro 3 d 5.6
       hydro 5 g 17.6
       hydro 1 s 0.75
  #  "Third tier" - improvements: -2.83 meV to -0.50 meV
  #     ionic 2 p auto
  #     hydro 4 f 10.8
  #     hydro 4 d 4.7
  #     hydro 2 s 6.8
  #  "Fourth tier" - improvements: -0.40 meV to -0.12 meV
  #     hydro 3 p 5
  #     hydro 3 s 3.3
  #     hydro 5 g 15.6
  #     hydro 4 f 17.6
  #     hydro 4 d 14
  # Further basis functions - -0.08 meV and below
  #     hydro 3 s 2.1
  #     hydro 4 d 11.6
  #     hydro 3 p 16
  #     hydro 2 s 17.2
  ################################################################################
  #
  # For methods that use the localized form of the "resolution of identity" for
  # the two-electron Coulomb operator (RI_method LVL), particularly Hartree-Fock and
  # hybrid density functional calculations, the highest accuracy can be obtained by
  # uncommenting the line beginning with "for_aux"  below, thus adding an extra g radial
  # function to the construction of the product basis set for the expansion.
  # See Ref. New J. Phys. 17, 093020 (2015) for more information, particularly Figs. 1 and 6.
  #
  ################################################################################
  #
  # for_aux hydro 5 g 6.0
  
  -----------------------------------------------------------------------
  Completed first pass over input file control.in .
  -----------------------------------------------------------------------
  
  
  -----------------------------------------------------------------------
  Parsing geometry.in (first pass over file, find array dimensions only).
  The contents of geometry.in will be repeated verbatim below
  unless switched off by setting 'verbatim_writeout .false.' .
  in the first line of geometry.in .
  -----------------------------------------------------------------------
  
  #
  # This is the geometry file that corresponds to the current relaxation step.
  # If you do not want this file to be written, set the "write_restart_geometry" flag to .false.
  #
  atom      -0.45336250      0.22788619      0.12202546 C
  atom      -0.25669797      0.70370356      1.54419516 C
  atom       0.38681432      1.71305340      1.81183824 O
  atom      -1.36273771     -0.36182052     -0.03906646 H
  atom       0.39974673     -0.40439059     -0.16790577 H
  atom      -0.46387037      1.10649276     -0.53008822 H
  atom      -0.75079266     -0.08133489      2.58122812 N
  atom      -1.81150583     -1.09381803      2.53906738 C
  atom      -1.41352477     -2.35393236      1.72895176 C
  atom      -2.25035449     -3.01980389      1.12027370 O
  atom      -0.60171584      0.37194868      3.47935713 H
  atom      -1.88597214     -1.46164819      3.57617499 H
  atom      -3.19008202     -0.56120337      2.14055407 C
  atom      -3.93619368     -1.36137290      2.19825971 H
  atom      -3.19750839     -0.17216126      1.11543722 H
  atom      -3.48128720      0.25025105      2.81905664 H
  atom      -0.09722381     -2.68021996      1.82261543 N
  atom       0.53512923     -3.78960481      1.10233382 C
  atom       0.56465837     -3.45975874     -0.41843454 C
  atom       1.32683179     -2.55641077     -0.77652714 O
  atom       0.50814784     -1.96470193      2.21314465 H
  atom       1.60169637     -3.70537631      1.35072115 H
  atom       0.05799835     -5.15701312      1.59770890 C
  atom       0.53554568     -5.96180405      1.02360049 H
  atom      -1.02741621     -5.27257528      1.53754342 H
  atom       0.35410325     -5.27463644      2.64839606 H
  atom      -0.17303300     -4.14139023     -1.33627346 N
  atom      -1.29291041     -5.06390541     -1.18431399 C
  atom       0.01086101     -3.79523611     -2.27390231 H
  atom      -1.82982717     -5.09427038     -2.13881847 H
  atom      -1.98544835     -4.70969135     -0.41271865 H
  atom      -0.96292241     -6.08655071     -0.95251150 H
  
  -----------------------------------------------------------------------
  Completed first pass over input file geometry.in .
  -----------------------------------------------------------------------
  

  Basic array size parameters:
  | Number of species                 :        4
  | Number of atoms                   :       32
  | Max. basis fn. angular momentum   :        4
  | Max. atomic/ionic basis occupied n:        2
  | Max. number of basis fn. types    :        2
  | Max. radial fns per species/type  :        8
  | Max. logarithmic grid size        :     1301
  | Max. radial integration grid size :       73
  | Max. angular integration grid size:      434
  | Max. angular grid division number :        8
  | Radial grid for Hartree potential :     1301
  | Number of spin channels           :        1

------------------------------------------------------------
          Reading file control.in.
------------------------------------------------------------
  XC: Using PBE gradient-corrected functionals.
  Spin treatment: No spin polarisation.
  Charge =   0.000000E+00: Neutral system requested explicitly.
  Occupation type: Gaussian broadening, width =   0.500000E-01 eV.
  Using pulay charge density mixing.
  Pulay mixing - number of memorized iterations:   10
  Charge density mixing - mixing parameter:     0.5000
  Convergence accuracy of self-consistent charge density:  0.1000E-03
  Convergence accuracy of sum of eigenvalues:  0.1000E-01
  Convergence accuracy of total energy:  0.1000E-04
  Convergence accuracy of forces:  0.1000E-03
  Maximum number of s.-c. iterations  :  1000
  Fitting ESP-charges to Potential. 
  | Esp charge output options: 
  | ESP Grid method: 3, cubic grid
  | Number of points in x, ,y, z:  0080 0080 0080
  |
 
  Reading configuration options for species H                   .
  | Found nuclear charge :   1.0000
  | Found atomic mass :    1.00794000000000      amu
  | Found l_max for Hartree potential  :   6
  | Found cutoff potl. onset [A], width [A], scale factor :    4.00000    2.00000    1.00000
  | Threshold for basis-dependent cutoff potential is   0.100000E-03
  | Found data for basic radial integration grid :    24 points, outermost radius =    7.000 A
  | Found multiplier for basic radial grid :   2
  | Found angular grid specification: user-specified.
  | Specified grid contains     6 separate shells.
  | Check grid settings after all constraints further below.
  | Found free-atom valence shell :  1 s   1.000
  | No ionic wave fns used. Skipping ion_occ.
  | Found hydrogenic basis function :  2 s   2.100
  | Found hydrogenic basis function :  2 p   3.500
  | Found hydrogenic basis function :  1 s   0.850
  | Found hydrogenic basis function :  2 p   3.700
  | Found hydrogenic basis function :  2 s   1.200
  | Found hydrogenic basis function :  3 d   7.000
  Species H                   : Missing cutoff potential type.
  Defaulting to exp(1/x)/(1-x)^2 type cutoff potential.
  Species H : No 'logarithmic' tag. Using default grid for free atom:
  | Default logarithmic grid data [bohr] : 0.1000E-03 0.1000E+03 0.1012E+01
  Species H : On-site basis accuracy parameter (for Gram-Schmidt orthonormalisation) not specified.
  Using default value basis_acc =  0.1000000E-03.
  Species H                   : Using default innermost maximum threshold i_radial=  2 for radial functions.
  Species H                   : Default cutoff onset for free atom density etc. : 0.40000000E+01 AA.
  Species H                   : Basic radial grid will be enhanced according to radial_multiplier =   2, to contain    49 grid points.
 
  Reading configuration options for species C                   .
  | Found nuclear charge :   6.0000
  | Found atomic mass :    12.0107000000000      amu
  | Found l_max for Hartree potential  :   6
  | Found cutoff potl. onset [A], width [A], scale factor :    4.00000    2.00000    1.00000
  | Threshold for basis-dependent cutoff potential is   0.100000E-03
  | Found data for basic radial integration grid :    34 points, outermost radius =    7.000 A
  | Found multiplier for basic radial grid :   2
  | Found angular grid specification: user-specified.
  | Specified grid contains     6 separate shells.
  | Check grid settings after all constraints further below.
  | Found free-atom valence shell :  2 s   2.000
  | Found free-atom valence shell :  2 p   2.000
  | No ionic wave fns used. Skipping ion_occ.
  | No ionic wave fns used. Skipping ion_occ.
  | Found hydrogenic basis function :  2 p   1.700
  | Found hydrogenic basis function :  3 d   6.000
  | Found hydrogenic basis function :  2 s   4.900
  | Found hydrogenic basis function :  4 f   9.800
  | Found hydrogenic basis function :  3 p   5.200
  | Found hydrogenic basis function :  3 s   4.300
  | Found hydrogenic basis function :  5 g  14.400
  | Found hydrogenic basis function :  3 d   6.200
  Species C                   : Missing cutoff potential type.
  Defaulting to exp(1/x)/(1-x)^2 type cutoff potential.
  Species C : No 'logarithmic' tag. Using default grid for free atom:
  | Default logarithmic grid data [bohr] : 0.1000E-03 0.1000E+03 0.1012E+01
  Species C : On-site basis accuracy parameter (for Gram-Schmidt orthonormalisation) not specified.
  Using default value basis_acc =  0.1000000E-03.
  Species C                   : Using default innermost maximum threshold i_radial=  2 for radial functions.
  Species C                   : Default cutoff onset for free atom density etc. : 0.40000000E+01 AA.
  Species C                   : Basic radial grid will be enhanced according to radial_multiplier =   2, to contain    69 grid points.
 
  Reading configuration options for species N                   .
  | Found nuclear charge :   7.0000
  | Found atomic mass :    14.0067000000000      amu
  | Found l_max for Hartree potential  :   6
  | Found cutoff potl. onset [A], width [A], scale factor :    4.00000    2.00000    1.00000
  | Threshold for basis-dependent cutoff potential is   0.100000E-03
  | Found data for basic radial integration grid :    35 points, outermost radius =    7.000 A
  | Found multiplier for basic radial grid :   2
  | Found angular grid specification: user-specified.
  | Specified grid contains     6 separate shells.
  | Check grid settings after all constraints further below.
  | Found free-atom valence shell :  2 s   2.000
  | Found free-atom valence shell :  2 p   3.000
  | No ionic wave fns used. Skipping ion_occ.
  | No ionic wave fns used. Skipping ion_occ.
  | Found hydrogenic basis function :  2 p   1.800
  | Found hydrogenic basis function :  3 d   6.800
  | Found hydrogenic basis function :  3 s   5.800
  | Found hydrogenic basis function :  4 f  10.800
  | Found hydrogenic basis function :  3 p   5.800
  | Found hydrogenic basis function :  1 s   0.800
  | Found hydrogenic basis function :  5 g  16.000
  | Found hydrogenic basis function :  3 d   4.900
  Species N                   : Missing cutoff potential type.
  Defaulting to exp(1/x)/(1-x)^2 type cutoff potential.
  Species N : No 'logarithmic' tag. Using default grid for free atom:
  | Default logarithmic grid data [bohr] : 0.1000E-03 0.1000E+03 0.1012E+01
  Species N : On-site basis accuracy parameter (for Gram-Schmidt orthonormalisation) not specified.
  Using default value basis_acc =  0.1000000E-03.
  Species N                   : Using default innermost maximum threshold i_radial=  2 for radial functions.
  Species N                   : Default cutoff onset for free atom density etc. : 0.40000000E+01 AA.
  Species N                   : Basic radial grid will be enhanced according to radial_multiplier =   2, to contain    71 grid points.
 
  Reading configuration options for species O                   .
  | Found nuclear charge :   8.0000
  | Found atomic mass :    15.9994000000000      amu
  | Found l_max for Hartree potential  :   6
  | Found cutoff potl. onset [A], width [A], scale factor :    4.00000    2.00000    1.00000
  | Threshold for basis-dependent cutoff potential is   0.100000E-03
  | Found data for basic radial integration grid :    36 points, outermost radius =    7.000 A
  | Found multiplier for basic radial grid :   2
  | Found angular grid specification: user-specified.
  | Specified grid contains     6 separate shells.
  | Check grid settings after all constraints further below.
  | Found free-atom valence shell :  2 s   2.000
  | Found free-atom valence shell :  2 p   4.000
  | No ionic wave fns used. Skipping ion_occ.
  | No ionic wave fns used. Skipping ion_occ.
  | Found hydrogenic basis function :  2 p   1.800
  | Found hydrogenic basis function :  3 d   7.600
  | Found hydrogenic basis function :  3 s   6.400
  | Found hydrogenic basis function :  4 f  11.600
  | Found hydrogenic basis function :  3 p   6.200
  | Found hydrogenic basis function :  3 d   5.600
  | Found hydrogenic basis function :  5 g  17.600
  | Found hydrogenic basis function :  1 s   0.750
  Species O                   : Missing cutoff potential type.
  Defaulting to exp(1/x)/(1-x)^2 type cutoff potential.
  Species O : No 'logarithmic' tag. Using default grid for free atom:
  | Default logarithmic grid data [bohr] : 0.1000E-03 0.1000E+03 0.1012E+01
  Species O : On-site basis accuracy parameter (for Gram-Schmidt orthonormalisation) not specified.
  Using default value basis_acc =  0.1000000E-03.
  Species O                   : Using default innermost maximum threshold i_radial=  2 for radial functions.
  Species O                   : Default cutoff onset for free atom density etc. : 0.40000000E+01 AA.
  Species O                   : Basic radial grid will be enhanced according to radial_multiplier =   2, to contain    73 grid points.
 
  Finished reading input file 'control.in'. Consistency checks are next.
 
  Target number of points in a grid batch is not set. Defaulting to  100
  Method for grid partitioning is not set. Defaulting to parallel hash+maxmin partitioning.
  Batch size limit is not set. Defaulting to    200
  By default, will store active basis functions for each batch.
  If in need of memory, prune_basis_once .false. can be used to disable this option.
  communication_type for Hartree potential was not specified.
  Defaulting to calc_hartree .
  Pulay mixer: Number of initial linear mixing iterations not set.
  Defaulting to    0 iterations.
  Work space size for distributed Hartree potential not set.
  Defaulting to   0.200000E+03 MB.
  Algorithm-dependent basis array size parameters:
  | n_max_pulay                         :       10
  Geometry relaxation not requested: no relaxation will be performed.
  Handling of forces: Unphysical translation and rotation will be removed from forces.
  No accuracy limit for integral partition fn. given. Defaulting to  0.1000E-14.
  No threshold value for u(r) in integrations given. Defaulting to  0.1000E-05.
  No accuracy for occupation numbers given. Defaulting to  0.1000E-07.
  No threshold value for occupation numbers given. Defaulting to  0.0000E+00.
  No accuracy for fermi level given. Defaulting to  0.1000E-19.
  Maximum # of iterations to find E_F not set. Defaulting to  200.
  Preferred method for the eigenvalue solver ('KS_method') not specified in 'control.in'.
  Calling blacs routine to test compilation state
  Since scalapack support is enabled, defaulting to 'elpa'.
  Preferred method for the MBD eigenvalue solver ('mbd_eigensolver') not specified in 'control.in'.
  Calling blacs routine to test compilation state
  Since scalapack support is enabled, defaulting to 'scaLAPACK'.
  Will not use alltoall communication since running on < 1024 CPUs.
  Threshold for basis singularities not set.
  Default threshold for basis singularities:  0.1000E-04
  partition_type (choice of integration weights) for integrals was not specified.
  | Using a version of the partition function of Stratmann and coworkers ('stratmann_smoother').
  | At each grid point, the set of atoms used to build the partition table is smoothly restricted to
  | only those atoms whose free-atom density would be non-zero at that grid point.
  Partitioning for Hartree potential was not defined. Using partition_type for integrals.
  | Adjusted default value of keyword multip_moments_threshold to:       0.10000000E-11
  | This value may affect high angular momentum components of the Hartree potential in periodic systems.
  No q(lm)/r^(l+1) cutoff set for long-range Hartree potential.
  | Using default value of  0.100000E-09 .
  | Verify using the multipole_threshold keyword.
  Defaulting to new monopole extrapolation.
  Density update method: automatic selection selected.
------------------------------------------------------------


------------------------------------------------------------
          Reading geometry description geometry.in.
------------------------------------------------------------
 * Warning! You did not set the 'relativistic' flag in input file 'control.in'.
 * Since you are not attempting to treat any elements beyond Ca(Z=20), FHI-aims
 * will default to 'relativistic none'.
 * You must ensure that this is really what you want!!
 * For example, DO NOT compute total-energy differences between results from
 * different settings of the 'relativistic' flag.
  Input structure read successfully.
  The structure contains       32 atoms,  and a total of        116.000 electrons.

  Input geometry:
  | No unit cell requested.
  | Atomic structure:
  |       Atom                x [A]            y [A]            z [A]
  |    1: Species C             -0.453363         0.227886         0.122025
  |    2: Species C             -0.256698         0.703704         1.544195
  |    3: Species O              0.386814         1.713053         1.811838
  |    4: Species H             -1.362738        -0.361821        -0.039066
  |    5: Species H              0.399747        -0.404391        -0.167906
  |    6: Species H             -0.463870         1.106493        -0.530088
  |    7: Species N             -0.750793        -0.081335         2.581228
  |    8: Species C             -1.811506        -1.093818         2.539067
  |    9: Species C             -1.413525        -2.353932         1.728952
  |   10: Species O             -2.250354        -3.019804         1.120274
  |   11: Species H             -0.601716         0.371949         3.479357
  |   12: Species H             -1.885972        -1.461648         3.576175
  |   13: Species C             -3.190082        -0.561203         2.140554
  |   14: Species H             -3.936194        -1.361373         2.198260
  |   15: Species H             -3.197508        -0.172161         1.115437
  |   16: Species H             -3.481287         0.250251         2.819057
  |   17: Species N             -0.097224        -2.680220         1.822615
  |   18: Species C              0.535129        -3.789605         1.102334
  |   19: Species C              0.564658        -3.459759        -0.418435
  |   20: Species O              1.326832        -2.556411        -0.776527
  |   21: Species H              0.508148        -1.964702         2.213145
  |   22: Species H              1.601696        -3.705376         1.350721
  |   23: Species C              0.057998        -5.157013         1.597709
  |   24: Species H              0.535546        -5.961804         1.023600
  |   25: Species H             -1.027416        -5.272575         1.537543
  |   26: Species H              0.354103        -5.274636         2.648396
  |   27: Species N             -0.173033        -4.141390        -1.336273
  |   28: Species C             -1.292910        -5.063905        -1.184314
  |   29: Species H              0.010861        -3.795236        -2.273902
  |   30: Species H             -1.829827        -5.094270        -2.138818
  |   31: Species H             -1.985448        -4.709691        -0.412719
  |   32: Species H             -0.962922        -6.086551        -0.952511
  |

  | The smallest distance between any two atoms is         1.01535903 AA.
  |
  | The first atom of this pair is atom number                     17 .
  | The second atom of this pair is atom number                    21 .

  Number of empty states per atom not set in control.in - providing a guess from actual geometry.
  | Total number of empty states used during s.c.f. cycle:       71
  If you use a very high smearing, use empty_states (per atom!) in control.in to increase this value.

  Structure-dependent array size parameters: 
  | Maximum number of distinct radial functions  :       40
  | Maximum number of basis functions            :      840
  | Number of Kohn-Sham states (occupied + empty):      129
------------------------------------------------------------

------------------------------------------------------------
          Preparing all fixed parts of the calculation.
------------------------------------------------------------
  Determining machine precision:
    2.225073858507201E-308
  Setting up grids for atomic and cluster calculations.

  Creating wave function, potential, and density for free atoms.

  Species: H

  List of occupied orbitals and eigenvalues:
    n    l              occ      energy [Ha]    energy [eV]
    1    0           1.0000        -0.238382        -6.4867


  Species: C

  List of occupied orbitals and eigenvalues:
    n    l              occ      energy [Ha]    energy [eV]
    1    0           2.0000       -10.041232      -273.2358
    2    0           2.0000        -0.504327       -13.7234
    2    1           2.0000        -0.193750        -5.2722


  Species: N

  List of occupied orbitals and eigenvalues:
    n    l              occ      energy [Ha]    energy [eV]
    1    0           2.0000       -14.129007      -384.4699
    2    0           2.0000        -0.681802       -18.5528
    2    1           3.0000        -0.260543        -7.0897


  Species: O

  List of occupied orbitals and eigenvalues:
    n    l              occ      energy [Ha]    energy [eV]
    1    0           2.0000       -18.898576      -514.2564
    2    0           2.0000        -0.878795       -23.9132
    2    1           4.0000        -0.332075        -9.0362

  Creating fixed part of basis set: Ionic, confined, hydrogenic.
 
  H                    hydrogenic:
 
  List of hydrogenic basis orbitals: 
    n    l      effective z      eigenvalue [eV]  inner max. [A]     outer max. [A]     outer radius [A]   
    2    0         2.100000       -14.9965           0.193243           1.317208           5.373006
    2    1         3.500000       -41.6672           0.602369           0.602369           4.056063
    1    0         0.850000        -9.8292           0.624871           0.624871           5.373006
    2    1         3.700000       -46.5653           0.573622           0.573622           3.910002
    2    0         1.200000        -4.5995           0.334980           2.228188           5.505995
    3    2         7.000000       -74.0753           0.680699           0.680699           3.769201
 
 
  C                    hydrogenic:
 
  List of hydrogenic basis orbitals: 
    n    l      effective z      eigenvalue [eV]  inner max. [A]     outer max. [A]     outer radius [A]   
    2    1         1.700000        -9.8152           1.245706           1.245706           5.401630
    3    2         6.000000       -54.4226           0.792453           0.792453           4.178599
    2    0         4.900000       -81.6681           0.082559           0.562749           3.353238
    4    3         9.800000       -81.6681           0.863254           0.863254           4.028125
    3    1         5.200000       -40.8774           0.305389           1.215618           4.898362
    3    0         4.300000       -27.9508           0.091041           1.610311           5.401630
    5    4        14.400000      -112.8510           0.917666           0.917666           3.883070
    3    2         6.200000       -58.1113           0.763917           0.763917           4.077671
 
 
  N                    hydrogenic:
 
  List of hydrogenic basis orbitals: 
    n    l      effective z      eigenvalue [eV]  inner max. [A]     outer max. [A]     outer radius [A]   
    2    1         1.800000       -11.0118           1.177451           1.177451           5.427479
    3    2         6.800000       -69.9029           0.704619           0.704619           3.854246
    3    0         5.800000       -50.8549           0.067388           1.191934           4.629968
    4    3        10.800000       -99.1854           0.786571           0.786571           3.761152
    3    1         5.800000       -50.8549           0.274880           1.094176           4.518138
    1    0         0.800000        -8.7059           0.662839           0.662839           5.361532
    5    4        16.000000      -139.3222           0.825990           0.825990           3.625711
    3    2         4.900000       -36.2967           0.968267           0.968267           4.862000
 
 
  O                    hydrogenic:
 
  List of hydrogenic basis orbitals: 
    n    l      effective z      eigenvalue [eV]  inner max. [A]     outer max. [A]     outer radius [A]   
    2    1         1.800000       -11.0118           1.178562           1.178562           5.432602
    3    2         7.600000       -87.3182           0.624125           0.624125           3.541477
    3    0         6.400000       -61.9209           0.061167           1.081902           4.306578
    4    3        11.600000      -114.4238           0.731631           0.731631           3.585037
    3    1         6.200000       -58.1113           0.255680           1.030270           4.306578
    3    2         5.600000       -47.4081           0.847233           0.847233           4.413171
    5    4        17.600000      -168.5799           0.749740           0.749740           3.372465
    1    0         0.750000        -7.6499           0.705284           0.705284           5.366593
 

  Adding cutoff potential to free-atom effective potential.
  Creating atomic-like basis functions for current effective potential.

  Species H                   :

  List of atomic basis orbitals and eigenvalues:
    n    l      energy [Ha]    energy [eV]    outer radius [A]
    1    0        -0.238382        -6.4867       5.373006


  Species C                   :

  List of atomic basis orbitals and eigenvalues:
    n    l      energy [Ha]    energy [eV]    outer radius [A]
    1    0       -10.041232      -273.2358       1.934409
    2    0        -0.504327       -13.7234       5.271162
    2    1        -0.193750        -5.2722       5.401630


  Species N                   :

  List of atomic basis orbitals and eigenvalues:
    n    l      energy [Ha]    energy [eV]    outer radius [A]
    1    0       -14.129007      -384.4699       1.637919
    2    0        -0.681802       -18.5528       5.168461
    2    1        -0.260543        -7.0897       5.361532


  Species O                   :

  List of atomic basis orbitals and eigenvalues:
    n    l      energy [Ha]    energy [eV]    outer radius [A]
    1    0       -18.898576      -514.2564       1.415765
    2    0        -0.878795       -23.9132       5.048385
    2    1        -0.332075        -9.0362       5.301386

  Assembling full basis from fixed parts.
  | Species H :   atomic orbital   1 s accepted.
  | Species H :    hydro orbital   2 s accepted.
  | Species H :    hydro orbital   1 s accepted.
  | Species H :    hydro orbital   2 s accepted.
  | Species H :    hydro orbital   2 p accepted.
  | Species H :    hydro orbital   2 p accepted.
  | Species H :    hydro orbital   3 d accepted.
  | Species C :   atomic orbital   1 s accepted.
  | Species C :    hydro orbital   2 s accepted.
  | Species C :   atomic orbital   2 s accepted.
  | Species C :    hydro orbital   3 s accepted.
  | Species C :    hydro orbital   3 p accepted.
  | Species C :   atomic orbital   2 p accepted.
  | Species C :    hydro orbital   2 p accepted.
  | Species C :    hydro orbital   3 d accepted.
  | Species C :    hydro orbital   3 d accepted.
  | Species C :    hydro orbital   4 f accepted.
  | Species C :    hydro orbital   5 g accepted.
  | Species N :   atomic orbital   1 s accepted.
  | Species N :    hydro orbital   3 s accepted.
  | Species N :   atomic orbital   2 s accepted.
  | Species N :    hydro orbital   1 s accepted.
  | Species N :    hydro orbital   3 p accepted.
  | Species N :   atomic orbital   2 p accepted.
  | Species N :    hydro orbital   2 p accepted.
  | Species N :    hydro orbital   3 d accepted.
  | Species N :    hydro orbital   3 d accepted.
  | Species N :    hydro orbital   4 f accepted.
  | Species N :    hydro orbital   5 g accepted.
  | Species O :   atomic orbital   1 s accepted.
  | Species O :    hydro orbital   3 s accepted.
  | Species O :   atomic orbital   2 s accepted.
  | Species O :    hydro orbital   1 s accepted.
  | Species O :    hydro orbital   3 p accepted.
  | Species O :   atomic orbital   2 p accepted.
  | Species O :    hydro orbital   2 p accepted.
  | Species O :    hydro orbital   3 d accepted.
  | Species O :    hydro orbital   3 d accepted.
  | Species O :    hydro orbital   4 f accepted.
  | Species O :    hydro orbital   5 g accepted.
 
  Basis size parameters after reduction:
  | Total number of radial functions:       40
  | Total number of basis functions :      840
 
  Testing on-site integration grid accuracy.
  |  Species  Function  <phi|h_atom|phi> (log., in eV)  <phi|h_atom|phi> (rad., in eV)
           1        1                 -6.4869821809                 -6.4870742227
           1        2                 13.5044133542                 13.5041049177
           1        3                 32.7854418792                 32.7779770519
           1        4                 33.7995553101                 33.7152624900 ***
           1        5                 28.8558651799                 28.8558652046
           1        6                 59.6361831893                 59.6362535845
           1        7                 60.2733718049                 60.2733715484
           2        8               -273.2358277112               -273.2358261765
           2        9                -10.7624923123                -10.7625144012
           2       10                 17.4634079027                 17.4634252127
           2       11                 53.0363661832                 53.0366180446
           2       12                 15.0981351967                 15.0981317714
           2       13                  3.8522181899                  3.8522770949
           2       14                 12.1181835661                 12.1206868578
           2       15                 29.4320778347                 29.4320780959
           2       16                 54.8753777694                 54.8752901936
           2       17                 59.3533975461                 59.3533974833
           2       18                 93.4537491195                 93.4537492066
           3       19               -384.4698526889               -384.4698499465
           3       20                 12.5691022037                 12.5690910168
           3       21                -15.7489097511                -15.7489165588
           3       22                 27.0978334940                 27.0985589490
           3       23                 18.5949116966                 18.5949125562
           3       24                  1.2212828291                  1.2212855301
           3       25                 13.4428926797                 13.4434051125
           3       26                 35.9380614500                 35.9380613666
           3       27                 39.9231532098                 39.9231654735
           3       28                 72.9957335806                 72.9957336833
           3       29                116.4231321147                116.4231321431
           4       30               -514.2564144315               -514.2564099626
           4       31                 15.1726678541                 15.1726530877
           4       32                -21.5447785304                -21.5447874973
           4       33                 14.4944558459                 14.4944698284
           4       34                 20.8882174564                 20.8882178906
           4       35                 -2.4850315908                 -2.4850322289
           4       36                 13.8600193195                 13.8599826966
           4       37                 45.8243383616                 45.8243383675
           4       38                 52.1840606465                 52.1840622440
           4       39                 85.4074185510                 85.4074185819
           4       40                142.0983717302                142.0983717339
 * Note: Onsite integrals marked "***" above are less accurate than
 * onsite_accuracy_threshold =    0.03000 eV. Usually, this is harmless.
 * When in doubt, tighten the "radial" and/or "radial_multiplier" flags to check.

  Preparing densities etc. for the partition functions (integrals / Hartree potential).

  Preparations completed.
  max(cpu_time)          :      0.236 s.
  Wall clock time (cpu1) :      0.236 s.
------------------------------------------------------------

------------------------------------------------------------
          Begin self-consistency loop: Initialization.

          Date     :  20170309, Time     :  190156.747
------------------------------------------------------------

  Initializing index lists of integration centers etc. from given atomic structure:
  | Number of centers in hartree potential         :        32
  | Number of centers in hartree multipole         :        32
  | Number of centers in electron density summation:        32
  | Number of centers in basis integrals           :        32
  | Number of centers in integrals                 :        32
  | Number of centers in hamiltonian               :        32
  Using modified Scalapack Eigenvalue solver (ELPA)
  * Using 32 tasks for Scalapack Eigenvalue solver.
  Detailed listing of tasks and assigned k-points:
  (for non-periodic systems, the "k-point" denotes an internal label only)
   Task     0 k-point     1 on eos026
   Task     1 k-point     1 on eos026
   Task     2 k-point     1 on eos026
   Task     3 k-point     1 on eos026
   Task     4 k-point     1 on eos026
   Task     5 k-point     1 on eos026
   Task     6 k-point     1 on eos026
   Task     7 k-point     1 on eos026
   Task     8 k-point     1 on eos026
   Task     9 k-point     1 on eos026
   Task    10 k-point     1 on eos026
   Task    11 k-point     1 on eos026
   Task    12 k-point     1 on eos026
   Task    13 k-point     1 on eos026
   Task    14 k-point     1 on eos026
   Task    15 k-point     1 on eos026
   Task    16 k-point     1 on eos026
   Task    17 k-point     1 on eos026
   Task    18 k-point     1 on eos026
   Task    19 k-point     1 on eos026
   Task    20 k-point     1 on eos026
   Task    21 k-point     1 on eos026
   Task    22 k-point     1 on eos026
   Task    23 k-point     1 on eos026
   Task    24 k-point     1 on eos026
   Task    25 k-point     1 on eos026
   Task    26 k-point     1 on eos026
   Task    27 k-point     1 on eos026
   Task    28 k-point     1 on eos026
   Task    29 k-point     1 on eos026
   Task    30 k-point     1 on eos026
   Task    31 k-point     1 on eos026
  Tasks:    32 split into      8 X      4 BLACS grid
  Calculating blocksize based on n_basis =          840 max_nprow =            8 max_npcol =            4
  Scalapack blocksize set to:           16
  Required Scalapack workspace - INTEGER:            1 REAL:             1
  Partitioning the integration grid into batches with parallel hashing+maxmin method.
  | Number of batches:     4968
  | Maximal batch size:     198
  | Minimal batch size:      46
  | Average batch size:     106.225
  | Standard deviation of batch sizes:      34.946

  Integration load balanced across    32 MPI tasks.
  Work distribution over tasks is as follows:
  Task     0 has      16544 integration points.
  Task     1 has      16458 integration points.
  Task     2 has      16453 integration points.
  Task     3 has      16454 integration points.
  Task     4 has      16479 integration points.
  Task     5 has      16475 integration points.
  Task     6 has      16456 integration points.
  Task     7 has      16457 integration points.
  Task     8 has      16481 integration points.
  Task     9 has      16538 integration points.
  Task    10 has      16484 integration points.
  Task    11 has      16459 integration points.
  Task    12 has      16483 integration points.
  Task    13 has      16526 integration points.
  Task    14 has      16611 integration points.
  Task    15 has      16474 integration points.
  Task    16 has      16454 integration points.
  Task    17 has      16540 integration points.
  Task    18 has      16541 integration points.
  Task    19 has      16605 integration points.
  Task    20 has      16461 integration points.
  Task    21 has      16450 integration points.
  Task    22 has      16446 integration points.
  Task    23 has      16478 integration points.
  Task    24 has      16535 integration points.
  Task    25 has      16508 integration points.
  Task    26 has      16461 integration points.
  Task    27 has      16444 integration points.
  Task    28 has      16499 integration points.
  Task    29 has      16535 integration points.
  Task    30 has      16460 integration points.
  Task    31 has      16479 integration points.
  Initializing partition tables, free-atom densities, potentials, etc. across the integration grid (initialize_grid_storage).
  | initialize_grid_storage: Actual outermost partition radius vs. multipole_radius_free
  | (-- VB: in principle, multipole_radius_free should be larger, hence this output)
  | Species        1: Confinement radius =              6.000000000000000 AA, multipole_radius_free =              6.071692442739658 AA.
  | Species        1: outer_partition_radius set to              6.071692442739658 AA .
  | Species        2: Confinement radius =              6.000000000000000 AA, multipole_radius_free =              6.029870734432609 AA.
  | Species        2: outer_partition_radius set to              6.029870734432609 AA .
  | Species        3: Confinement radius =              6.000000000000000 AA, multipole_radius_free =              6.058726835495003 AA.
  | Species        3: outer_partition_radius set to              6.058726835495003 AA .
  | Species        4: Confinement radius =              6.000000000000000 AA, multipole_radius_free =              6.064445521808699 AA.
  | Species        4: outer_partition_radius set to              6.064445521808699 AA .
  | Original list of interatomic distances with          32 x         32 entries is created.
  | Net number of integration points:   527728
  | of which are non-zero points    :   412800
  Obtaining max. number of non-zero basis functions in each batch (get_n_compute_maxes).
  | Maximal number of non-zero basis functions:      799 in task     0
  | Maximal number of non-zero basis functions:      781 in task     1
  | Maximal number of non-zero basis functions:      790 in task     2
  | Maximal number of non-zero basis functions:      798 in task     3
  | Maximal number of non-zero basis functions:      787 in task     4
  | Maximal number of non-zero basis functions:      792 in task     5
  | Maximal number of non-zero basis functions:      804 in task     6
  | Maximal number of non-zero basis functions:      796 in task     7
  | Maximal number of non-zero basis functions:      797 in task     8
  | Maximal number of non-zero basis functions:      790 in task     9
  | Maximal number of non-zero basis functions:      805 in task    10
  | Maximal number of non-zero basis functions:      789 in task    11
  | Maximal number of non-zero basis functions:      790 in task    12
  | Maximal number of non-zero basis functions:      802 in task    13
  | Maximal number of non-zero basis functions:      789 in task    14
  | Maximal number of non-zero basis functions:      790 in task    15
  | Maximal number of non-zero basis functions:      797 in task    16
  | Maximal number of non-zero basis functions:      794 in task    17
  | Maximal number of non-zero basis functions:      796 in task    18
  | Maximal number of non-zero basis functions:      804 in task    19
  | Maximal number of non-zero basis functions:      780 in task    20
  | Maximal number of non-zero basis functions:      788 in task    21
  | Maximal number of non-zero basis functions:      777 in task    22
  | Maximal number of non-zero basis functions:      799 in task    23
  | Maximal number of non-zero basis functions:      792 in task    24
  | Maximal number of non-zero basis functions:      781 in task    25
  | Maximal number of non-zero basis functions:      809 in task    26
  | Maximal number of non-zero basis functions:      801 in task    27
  | Maximal number of non-zero basis functions:      797 in task    28
  | Maximal number of non-zero basis functions:      799 in task    29
  | Maximal number of non-zero basis functions:      794 in task    30
  | Maximal number of non-zero basis functions:      783 in task    31
  Selecting the method for density update.
  Loop over occupied states selected for charge density update.
  Integrating Hamiltonian matrix: batch-based integration.
  Time summed over all CPUs for integration: real work       22.763 s, elapsed       23.448 s
  Integrating overlap matrix.
  Time summed over all CPUs for integration: real work       14.048 s, elapsed       14.466 s
  Deallocating overlap matrix.

  Updating Kohn-Sham eigenvalues, eigenvectors, occupation numbers, and Fermi level.
  Solving generalized eigenproblem
  Solving real symmetric generalised eigenvalue problem by standard ScaLAPACK.
  Transforming overlap matrix with ScaLAPACK and checking for singularities.
  : Overlap matrix is nonsingular, using Cholesky decomposition
  | Lowest eigenvalue:  0.894549E-04
  Factoring overlap matrix with Cholesky decomposition
  Using Cholesky factor for transformation
  Using 1-stage real ELPA solver
  Determining occupation numbers for Kohn-Sham eigenstates.
  | Chemical potential (Fermi level) in eV                 : -.93882120E+01
  | Error in electron count due to remaining E_F inaccuracy: 0.00000000E+00
  | Maximum occupation number of highest empty state:  0.00E+00

  Writing Kohn-Sham eigenvalues.

  State    Occupation    Eigenvalue [Ha]    Eigenvalue [eV]
      1       2.00000         -18.974602         -516.32518
      2       2.00000         -18.974445         -516.32092
      3       2.00000         -18.972981         -516.28108
      4       2.00000         -14.255087         -387.90065
      5       2.00000         -14.254757         -387.89167
      6       2.00000         -14.249741         -387.75518
      7       2.00000         -10.171466         -276.77966
      8       2.00000         -10.171317         -276.77563
      9       2.00000         -10.171301         -276.77518
     10       2.00000         -10.166563         -276.64626
     11       2.00000         -10.147312         -276.12241
     12       2.00000         -10.147063         -276.11563
     13       2.00000         -10.134709         -275.77948
     14       2.00000         -10.134540         -275.77486
     15       2.00000         -10.132852         -275.72893
     16       2.00000          -1.133571          -30.84604
     17       2.00000          -1.131765          -30.79690
     18       2.00000          -1.127766          -30.68809
     19       2.00000          -1.020667          -27.77375
     20       2.00000          -1.009213          -27.46207
     21       2.00000          -1.001270          -27.24595
     22       2.00000          -0.883697          -24.04661
     23       2.00000          -0.871696          -23.72005
     24       2.00000          -0.849157          -23.10674
     25       2.00000          -0.818679          -22.27740
     26       2.00000          -0.786980          -21.41481
     27       2.00000          -0.754255          -20.52433
     28       2.00000          -0.703871          -19.15331
     29       2.00000          -0.681789          -18.55243
     30       2.00000          -0.664688          -18.08709
     31       2.00000          -0.637475          -17.34658
     32       2.00000          -0.625830          -17.02971
     33       2.00000          -0.614202          -16.71329
     34       2.00000          -0.606848          -16.51318
     35       2.00000          -0.593653          -16.15411
     36       2.00000          -0.578664          -15.74625
     37       2.00000          -0.568588          -15.47205
     38       2.00000          -0.562788          -15.31423
     39       2.00000          -0.558478          -15.19696
     40       2.00000          -0.555057          -15.10386
     41       2.00000          -0.545705          -14.84940
     42       2.00000          -0.538215          -14.64558
     43       2.00000          -0.533725          -14.52339
     44       2.00000          -0.527486          -14.35362
     45       2.00000          -0.522823          -14.22673
     46       2.00000          -0.520409          -14.16106
     47       2.00000          -0.513345          -13.96883
     48       2.00000          -0.505067          -13.74358
     49       2.00000          -0.490193          -13.33883
     50       2.00000          -0.485263          -13.20468
     51       2.00000          -0.473924          -12.89614
     52       2.00000          -0.471243          -12.82319
     53       2.00000          -0.413605          -11.25477
     54       2.00000          -0.408439          -11.11419
     55       2.00000          -0.401183          -10.91675
     56       2.00000          -0.385686          -10.49504
     57       2.00000          -0.383702          -10.44105
     58       2.00000          -0.381283          -10.37524
     59       0.00000          -0.169194           -4.60401
     60       0.00000          -0.164913           -4.48751
     61       0.00000          -0.155165           -4.22227
     62       0.00000          -0.079969           -2.17606
     63       0.00000          -0.065663           -1.78679
     64       0.00000          -0.058177           -1.58307
     65       0.00000          -0.055270           -1.50397
     66       0.00000          -0.047732           -1.29885
     67       0.00000          -0.045000           -1.22451
     68       0.00000          -0.031328           -0.85247
     69       0.00000          -0.026897           -0.73190
     70       0.00000          -0.024606           -0.66955
     71       0.00000          -0.019864           -0.54053
     72       0.00000          -0.019240           -0.52355
     73       0.00000          -0.012113           -0.32961
     74       0.00000          -0.008476           -0.23065
     75       0.00000           0.001646            0.04479
     76       0.00000           0.002895            0.07878
     77       0.00000           0.007189            0.19563
     78       0.00000           0.008114            0.22079
     79       0.00000           0.011356            0.30901
     80       0.00000           0.020195            0.54955
     81       0.00000           0.024368            0.66309
     82       0.00000           0.032003            0.87086
     83       0.00000           0.035335            0.96151
     84       0.00000           0.042906            1.16753
     85       0.00000           0.048867            1.32974
     86       0.00000           0.050054            1.36205
     87       0.00000           0.054430            1.48112
     88       0.00000           0.061857            1.68322
     89       0.00000           0.063063            1.71602
     90       0.00000           0.068820            1.87268
     91       0.00000           0.075773            2.06187
     92       0.00000           0.076461            2.08061
     93       0.00000           0.090648            2.46666
     94       0.00000           0.093200            2.53611
     95       0.00000           0.097585            2.65541
     96       0.00000           0.102013            2.77593
     97       0.00000           0.108618            2.95563
     98       0.00000           0.111827            3.04296
     99       0.00000           0.112962            3.07386
    100       0.00000           0.124230            3.38046
    101       0.00000           0.126635            3.44591
    102       0.00000           0.129253            3.51717
    103       0.00000           0.131933            3.59008
    104       0.00000           0.142033            3.86491
    105       0.00000           0.146337            3.98204
    106       0.00000           0.150378            4.09199
    107       0.00000           0.156293            4.25295
    108       0.00000           0.163698            4.45444
    109       0.00000           0.168594            4.58766
    110       0.00000           0.168879            4.59542
    111       0.00000           0.172584            4.69626
    112       0.00000           0.181379            4.93558
    113       0.00000           0.185184            5.03910
    114       0.00000           0.187556            5.10366
    115       0.00000           0.198415            5.39914
    116       0.00000           0.200072            5.44424
    117       0.00000           0.205686            5.59701
    118       0.00000           0.212839            5.79164
    119       0.00000           0.215363            5.86033
    120       0.00000           0.219556            5.97443
    121       0.00000           0.222394            6.05164
    122       0.00000           0.224598            6.11163
    123       0.00000           0.231607            6.30234
    124       0.00000           0.239604            6.51994
    125       0.00000           0.246537            6.70862
    126       0.00000           0.250098            6.80550
    127       0.00000           0.260766            7.09580
    128       0.00000           0.272659            7.41942
    129       0.00000           0.276359            7.52012

  Highest occupied state (VBM) at    -10.37523799 eV
  | Occupation number:      2.00000000

  Lowest unoccupied state (CBM) at    -4.60401301 eV
  | Occupation number:      0.00000000

  Overall HOMO-LUMO gap:      5.77122498 eV.
  Calculating total energy contributions from superposition of free atom densities.

  Total energy components:
  | Sum of eigenvalues            :        -437.80135857 Ha      -11913.18110264 eV
  | XC energy correction          :         -98.81674783 Ha       -2688.94052020 eV
  | XC potential correction       :         127.01770773 Ha        3456.32768341 eV
  | Free-atom electrostatic energy:        -333.67556361 Ha       -9079.77405953 eV
  | Hartree energy correction     :           0.00000000 Ha           0.00000000 eV
  | vdW energy correction         :           0.00000000 Ha           0.00000000 eV
  | Entropy correction            :          -0.00000000 Ha          -0.00000000 eV
  | ---------------------------
  | Total energy                  :        -743.27596227 Ha      -20225.56799896 eV
  | Total energy, T -> 0          :        -743.27596227 Ha      -20225.56799896 eV  <-- do not rely on this value for anything but (periodic) metals
  | Electronic free energy        :        -743.27596227 Ha      -20225.56799896 eV

  Derived energy quantities:
  | Kinetic energy                :         735.14728245 Ha       20004.37536686 eV
  | Electrostatic energy          :       -1379.60649689 Ha      -37541.00284563 eV
  | Energy correction for multipole
  | error in Hartree potential    :           0.00000000 Ha           0.00000000 eV
  | Sum of eigenvalues per atom                           :        -372.28690946 eV
  | Total energy (T->0) per atom                          :        -632.04899997 eV  <-- do not rely on this value for anything but (periodic) metals
  | Electronic free energy per atom                       :        -632.04899997 eV
  Initialize hartree_potential_storage
  Max. number of atoms included in rho_multipole:           32

  End scf initialization - timings             :  max(cpu_time)    wall_clock(cpu1)
  | Time for scf. initialization               :        1.940 s           1.941 s
  | Boundary condition initialization          :        0.000 s           0.000 s
  | Integration                                :        1.208 s           1.207 s
  | Solution of K.-S. eqns.                    :        0.100 s           0.101 s
  | Grid partitioning                          :        0.272 s           0.268 s
  | Preloading free-atom quantities on grid    :        0.028 s           0.027 s
  | Free-atom superposition energy             :        0.040 s           0.040 s
  | Total energy evaluation                    :        0.004 s           0.001 s
------------------------------------------------------------

------------------------------------------------------------
          Begin self-consistency iteration #    1

  Date     :  20170309, Time     :  190158.688
------------------------------------------------------------
  Evaluating new KS density.
  Integration grid: deviation in total charge (<rho> - N_e) =   9.947598E-14
  Pulay mixing of updated and previous charge densities.

  Evaluating partitioned Hartree potential by multipole expansion.
  | Analytical far-field extrapolation by fixed multipoles:
  | Hartree multipole sum: apparent total charge =  -0.427735E-04
  Summing up the Hartree potential.
  Time summed over all CPUs for potential: real work        9.590 s, elapsed        9.828 s
  | RMS charge density error from multipole expansion :   0.106461E-01

  Integrating Hamiltonian matrix: batch-based integration.
  Time summed over all CPUs for integration: real work       22.698 s, elapsed       23.425 s

  Updating Kohn-Sham eigenvalues, eigenvectors, occupation numbers, and Fermi level.
  Solving generalized eigenproblem
  Solving real symmetric generalised eigenvalue problem by standard ScaLAPACK.
  Using Cholesky factor for transformation
  Using 2-stage real ELPA solver
  K-Point:    1, Trafo times: 1-stage=     0.021 s, 2-stage=     0.020 s ==> Using 2-stage solver
  Determining occupation numbers for Kohn-Sham eigenstates.
  | Chemical potential (Fermi level) in eV                 : -.39954434E+01
  | Error in electron count due to remaining E_F inaccuracy: 0.00000000E+00
  | Maximum occupation number of highest empty state:  0.00E+00

  Writing Kohn-Sham eigenvalues.

  State    Occupation    Eigenvalue [Ha]    Eigenvalue [eV]
      1       2.00000         -18.631777         -506.99645
      2       2.00000         -18.613039         -506.48656
      3       2.00000         -18.610517         -506.41794
      4       2.00000         -13.995534         -380.83785
      5       2.00000         -13.994045         -380.79735
      6       2.00000         -13.980620         -380.43204
      7       2.00000         -10.060743         -273.76673
      8       2.00000         -10.052958         -273.55491
      9       2.00000         -10.051982         -273.52834
     10       2.00000          -9.972160         -271.35628
     11       2.00000          -9.962859         -271.10320
     12       2.00000          -9.884521         -268.97151
     13       2.00000          -9.837350         -267.68790
     14       2.00000          -9.834757         -267.61734
     15       2.00000          -9.832128         -267.54582
     16       2.00000          -0.971358          -26.43200
     17       2.00000          -0.957652          -26.05904
     18       2.00000          -0.955028          -25.98763
     19       2.00000          -0.876746          -23.85748
     20       2.00000          -0.859218          -23.38051
     21       2.00000          -0.850423          -23.14120
     22       2.00000          -0.740190          -20.14160
     23       2.00000          -0.717053          -19.51200
     24       2.00000          -0.690400          -18.78673
     25       2.00000          -0.667881          -18.17396
     26       2.00000          -0.640045          -17.41651
     27       2.00000          -0.614543          -16.72256
     28       2.00000          -0.578155          -15.73241
     29       2.00000          -0.556276          -15.13705
     30       2.00000          -0.536010          -14.58557
     31       2.00000          -0.507591          -13.81225
     32       2.00000          -0.492987          -13.41485
     33       2.00000          -0.466627          -12.69755
     34       2.00000          -0.461761          -12.56516
     35       2.00000          -0.446912          -12.16110
     36       2.00000          -0.428994          -11.67351
     37       2.00000          -0.428287          -11.65427
     38       2.00000          -0.421322          -11.46476
     39       2.00000          -0.408830          -11.12484
     40       2.00000          -0.398955          -10.85612
     41       2.00000          -0.388850          -10.58115
     42       2.00000          -0.383891          -10.44621
     43       2.00000          -0.381234          -10.37391
     44       2.00000          -0.379884          -10.33716
     45       2.00000          -0.370669          -10.08641
     46       2.00000          -0.368798          -10.03551
     47       2.00000          -0.358784           -9.76301
     48       2.00000          -0.354177           -9.63763
     49       2.00000          -0.348923           -9.49467
     50       2.00000          -0.345970           -9.41434
     51       2.00000          -0.336176           -9.14781
     52       2.00000          -0.326628           -8.88799
     53       2.00000          -0.249675           -6.79400
     54       2.00000          -0.241789           -6.57943
     55       2.00000          -0.225091           -6.12505
     56       2.00000          -0.217314           -5.91341
     57       2.00000          -0.209386           -5.69769
     58       2.00000          -0.205320           -5.58705
     59       0.00000          -0.061870           -1.68356
     60       0.00000          -0.051263           -1.39494
     61       0.00000          -0.045063           -1.22622
     62       0.00000          -0.028326           -0.77080
     63       0.00000          -0.023115           -0.62900
     64       0.00000          -0.011011           -0.29962
     65       0.00000          -0.005214           -0.14187
     66       0.00000          -0.000062           -0.00170
     67       0.00000           0.009943            0.27055
     68       0.00000           0.016786            0.45676
     69       0.00000           0.021763            0.59219
     70       0.00000           0.027031            0.73555
     71       0.00000           0.040112            1.09151
     72       0.00000           0.041548            1.13058
     73       0.00000           0.045533            1.23903
     74       0.00000           0.051243            1.39440
     75       0.00000           0.063553            1.72936
     76       0.00000           0.069164            1.88206
     77       0.00000           0.074218            2.01957
     78       0.00000           0.082585            2.24726
     79       0.00000           0.087290            2.37527
     80       0.00000           0.088874            2.41838
     81       0.00000           0.100927            2.74636
     82       0.00000           0.102131            2.77911
     83       0.00000           0.104191            2.83518
     84       0.00000           0.105044            2.85839
     85       0.00000           0.110393            3.00393
     86       0.00000           0.119180            3.24304
     87       0.00000           0.121476            3.30552
     88       0.00000           0.126085            3.43095
     89       0.00000           0.130421            3.54894
     90       0.00000           0.140702            3.82870
     91       0.00000           0.143671            3.90949
     92       0.00000           0.153165            4.16783
     93       0.00000           0.156079            4.24711
     94       0.00000           0.161972            4.40747
     95       0.00000           0.168348            4.58099
     96       0.00000           0.173270            4.71491
     97       0.00000           0.176390            4.79982
     98       0.00000           0.180702            4.91714
     99       0.00000           0.183496            4.99317
    100       0.00000           0.185456            5.04651
    101       0.00000           0.193302            5.26002
    102       0.00000           0.198508            5.40169
    103       0.00000           0.203334            5.53300
    104       0.00000           0.205967            5.60466
    105       0.00000           0.208822            5.68235
    106       0.00000           0.214087            5.82561
    107       0.00000           0.215548            5.86536
    108       0.00000           0.224372            6.10548
    109       0.00000           0.230751            6.27905
    110       0.00000           0.234383            6.37788
    111       0.00000           0.235402            6.40560
    112       0.00000           0.239737            6.52357
    113       0.00000           0.251555            6.84516
    114       0.00000           0.256228            6.97231
    115       0.00000           0.263504            7.17032
    116       0.00000           0.267649            7.28311
    117       0.00000           0.270593            7.36320
    118       0.00000           0.275663            7.50118
    119       0.00000           0.284499            7.74162
    120       0.00000           0.287939            7.83521
    121       0.00000           0.289981            7.89079
    122       0.00000           0.294607            8.01665
    123       0.00000           0.297571            8.09733
    124       0.00000           0.302044            8.21904
    125       0.00000           0.318489            8.66653
    126       0.00000           0.325945            8.86941
    127       0.00000           0.329900            8.97704
    128       0.00000           0.341677            9.29750
    129       0.00000           0.347402            9.45330

  Highest occupied state (VBM) at     -5.58704545 eV
  | Occupation number:      2.00000000

  Lowest unoccupied state (CBM) at    -1.68355755 eV
  | Occupation number:      0.00000000

  Overall HOMO-LUMO gap:      3.90348790 eV.

  Total energy components:
  | Sum of eigenvalues            :        -417.36158747 Ha      -11356.98663220 eV
  | XC energy correction          :        -100.74293272 Ha       -2741.35467780 eV
  | XC potential correction       :         129.51521151 Ha        3524.28821892 eV
  | Free-atom electrostatic energy:        -333.67556361 Ha       -9079.77405953 eV
  | Hartree energy correction     :         -20.44211184 Ha        -556.25816535 eV
  | vdW energy correction         :           0.00000000 Ha           0.00000000 eV
  | Entropy correction            :           0.00000000 Ha           0.00000000 eV
  | ---------------------------
  | Total energy                  :        -742.70698413 Ha      -20210.08531596 eV
  | Total energy, T -> 0          :        -742.70698413 Ha      -20210.08531596 eV  <-- do not rely on this value for anything but (periodic) metals
  | Electronic free energy        :        -742.70698413 Ha      -20210.08531596 eV

  Derived energy quantities:
  | Kinetic energy                :         743.98803203 Ha       20244.94440290 eV
  | Electrostatic energy          :       -1385.95208344 Ha      -37713.67504107 eV
  | Energy correction for multipole
  | error in Hartree potential    :          -0.04166778 Ha          -1.13383811 eV
  | Sum of eigenvalues per atom                           :        -354.90583226 eV
  | Total energy (T->0) per atom                          :        -631.56516612 eV  <-- do not rely on this value for anything but (periodic) metals
  | Electronic free energy per atom                       :        -631.56516612 eV

  Self-consistency convergence accuracy:
  | Change of charge density      :  0.9029E+00
  | Change of sum of eigenvalues  :  0.5562E+03 eV
  | Change of total energy        :  0.1548E+02 eV

  End self-consistency iteration #     1       :  max(cpu_time)    wall_clock(cpu1)
  | Time for this iteration                    :        1.596 s           1.597 s
  | Charge density update                      :        0.504 s           0.503 s
[...]
   ----------------------------------------------------------------
   Total forces(  20)            :  0.150636E-02  0.241476E-02 -0.459895E-03
  atom #   21
   Hellmann-Feynman              : -0.374798E-01 -0.743413E-03 -0.276047E-01
   Ionic forces                  :  0.000000E+00  0.000000E+00  0.000000E+00
   Multipole                     :  0.143419E-01 -0.313769E-01 -0.748885E-02
   Pulay + GGA                   :  0.280043E-01  0.389617E-01  0.346293E-01
   Van der Waals                 : -0.382557E-02 -0.698974E-02 -0.390815E-03
   ----------------------------------------------------------------
   Total forces(  21)            :  0.104086E-02 -0.148326E-03 -0.855100E-03
  atom #   22
   Hellmann-Feynman              : -0.441346E-01  0.122784E-01 -0.139928E-01
   Ionic forces                  :  0.000000E+00  0.000000E+00  0.000000E+00
   Multipole                     : -0.753632E-02 -0.168156E-01 -0.137509E-01
   Pulay + GGA                   :  0.580007E-01 -0.150614E-02  0.319330E-01
   Van der Waals                 : -0.730902E-02  0.727961E-02 -0.469761E-02
   ----------------------------------------------------------------
   Total forces(  22)            : -0.979256E-03  0.123623E-02 -0.508355E-03
  atom #   23
   Hellmann-Feynman              : -0.566352E+00 -0.948257E+00  0.502890E+00
   Ionic forces                  :  0.000000E+00  0.000000E+00  0.000000E+00
   Multipole                     :  0.179543E+00  0.348118E+00 -0.172065E+00
   Pulay + GGA                   :  0.364270E+00  0.611530E+00 -0.361798E+00
   Van der Waals                 :  0.232001E-01 -0.919720E-02  0.303909E-01
   ----------------------------------------------------------------
   Total forces(  23)            :  0.661910E-03  0.219341E-02 -0.581394E-03
  atom #   24
   Hellmann-Feynman              :  0.683553E-02  0.506574E-01  0.802572E-02
   Ionic forces                  :  0.000000E+00  0.000000E+00  0.000000E+00
   Multipole                     : -0.264503E-01 -0.494501E-02  0.187619E-01
   Pulay + GGA                   :  0.215067E-01 -0.434140E-01 -0.331928E-01
   Van der Waals                 : -0.199971E-02 -0.238286E-02  0.631001E-02
   ----------------------------------------------------------------
   Total forces(  24)            : -0.107837E-03 -0.844945E-04 -0.952607E-04
  atom #   25
   Hellmann-Feynman              :  0.208773E-01  0.427854E-01 -0.351162E-02
   Ionic forces                  :  0.000000E+00  0.000000E+00  0.000000E+00
   Multipole                     :  0.221965E-01 -0.109711E-01  0.617475E-03
   Pulay + GGA                   : -0.455785E-01 -0.199171E-01 -0.707522E-02
   Van der Waals                 :  0.374417E-02 -0.125249E-01  0.984617E-02
   ----------------------------------------------------------------
   Total forces(  25)            :  0.123947E-02 -0.627665E-03 -0.123195E-03
  atom #   26
   Hellmann-Feynman              :  0.572398E-02  0.402882E-01 -0.506533E-01
   Ionic forces                  :  0.000000E+00  0.000000E+00  0.000000E+00
   Multipole                     : -0.199535E-01 -0.293953E-01 -0.364498E-02
   Pulay + GGA                   :  0.206562E-01 -0.118680E-01  0.576901E-01
   Van der Waals                 : -0.572449E-02  0.666396E-03 -0.390762E-02
   ----------------------------------------------------------------
   Total forces(  26)            :  0.702232E-03 -0.308597E-03 -0.515750E-03
  atom #   27
   Hellmann-Feynman              :  0.169709E+01 -0.421533E-01 -0.146412E+00
   Ionic forces                  :  0.000000E+00  0.000000E+00  0.000000E+00
   Multipole                     :  0.123451E+00  0.132086E+00  0.397280E-01
   Pulay + GGA                   : -0.181716E+01 -0.104593E+00  0.917399E-01
   Van der Waals                 : -0.422393E-02  0.155516E-01  0.130265E-01
   ----------------------------------------------------------------
   Total forces(  27)            : -0.849930E-03  0.891785E-03 -0.191714E-02
  atom #   28
   Hellmann-Feynman              : -0.212003E+01 -0.132932E+01  0.351027E+00
   Ionic forces                  :  0.000000E+00  0.000000E+00  0.000000E+00
   Multipole                     :  0.134272E+00  0.119884E+00 -0.111803E-02
   Pulay + GGA                   :  0.199427E+01  0.120205E+01 -0.328922E+00
   Van der Waals                 : -0.841899E-02  0.692917E-02 -0.198725E-01
   ----------------------------------------------------------------
   Total forces(  28)            :  0.885974E-04 -0.452461E-03  0.111432E-02
  atom #   29
   Hellmann-Feynman              :  0.236772E-01  0.206711E-01  0.704351E-01
   Ionic forces                  :  0.000000E+00  0.000000E+00  0.000000E+00
   Multipole                     : -0.287597E-01 -0.352139E-01 -0.151117E-01
   Pulay + GGA                   :  0.424768E-02  0.121944E-01 -0.653910E-01
   Van der Waals                 :  0.146808E-04  0.877428E-03  0.107902E-01
   ----------------------------------------------------------------
   Total forces(  29)            : -0.820080E-03 -0.147103E-02  0.722585E-03
  atom #   30
   Hellmann-Feynman              :  0.432028E-01  0.251411E-01  0.288803E-01
   Ionic forces                  :  0.000000E+00  0.000000E+00  0.000000E+00
   Multipole                     : -0.213259E-01 -0.251237E-01  0.242743E-01
   Pulay + GGA                   : -0.253773E-01 -0.215442E-02 -0.616536E-01
   Van der Waals                 :  0.210775E-02  0.239176E-02  0.733916E-02
   ----------------------------------------------------------------
   Total forces(  30)            : -0.139270E-02  0.254805E-03 -0.115989E-02
  atom #   31
   Hellmann-Feynman              :  0.356223E-01  0.444746E-01 -0.197987E-01
   Ionic forces                  :  0.000000E+00  0.000000E+00  0.000000E+00
   Multipole                     :  0.885077E-02 -0.345309E-01 -0.896134E-02
   Pulay + GGA                   : -0.357165E-01 -0.118159E-01  0.332071E-01
   Van der Waals                 : -0.832847E-02  0.209599E-02 -0.363366E-02
   ----------------------------------------------------------------
   Total forces(  31)            :  0.428092E-03  0.223767E-03  0.813433E-03
  atom #   32
   Hellmann-Feynman              :  0.170283E-01  0.462585E-01 -0.818623E-02
   Ionic forces                  :  0.000000E+00  0.000000E+00  0.000000E+00
   Multipole                     : -0.207596E-01  0.180499E-01  0.310799E-02
   Pulay + GGA                   :  0.746477E-02 -0.661406E-01  0.146477E-01
   Van der Waals                 : -0.329953E-02  0.137172E-02 -0.963354E-02
   ----------------------------------------------------------------
   Total forces(  32)            :  0.433939E-03 -0.460581E-03 -0.640352E-04

  Timings for VdW correction (Tkatchenko-Scheffler 2009 or later):
  | CPU time:        0.128 s, Wall clock time:        0.125 s.
  Removing unitary transformations (pure translations, rotations) from forces on atoms.
  Atomic forces before filtering:
  | Net force on center of mass :  -0.209088E-03 -0.264929E-03  0.524810E-03 eV/A
  | Net torque on center of mass:  -0.550169E-03  0.713734E-03  0.528113E-03 eV
  Atomic forces after filtering:
  | Net force on center of mass :  -0.174225E-17 -0.348449E-18  0.370228E-18 eV/A
  | Net torque on center of mass:   0.516296E-17  0.178341E-17 -0.719127E-17 eV

  Energy and forces in a compact form:
  | Total energy uncorrected      :         -0.202084729995127E+05 eV
  | Total energy corrected        :         -0.202084729995127E+05 eV  <-- do not rely on this value for anything but (periodic) metals
  | Electronic free energy        :         -0.202084729995127E+05 eV
  Total atomic forces (unitary forces cleaned) [eV/Ang]:
  |   1         -0.504880621488841E-03         -0.381229198074836E-03          0.141144043124958E-02
  |   2          0.401167221936816E-02          0.445860890539571E-02         -0.616664842953998E-03
  |   3         -0.896991462611168E-03         -0.417097784535549E-02         -0.710275353930752E-03
  |   4         -0.512850665975063E-03         -0.557976937471976E-03          0.195200279443969E-03
  |   5          0.431682370261394E-03         -0.255933294182813E-04          0.363487481613286E-03
  |   6         -0.820145278829815E-04          0.663757693243465E-03         -0.351304834501443E-03
  |   7          0.760173933307152E-03         -0.433735395040005E-03          0.313345062382652E-03
  |   8         -0.149111122777662E-02          0.272418197309866E-03          0.126030811386489E-02
  |   9         -0.215025628169511E-02         -0.138795533604766E-02         -0.679687373752409E-03
  |  10          0.185108223435434E-02          0.517287627609288E-03          0.161521350072634E-02
  |  11         -0.908580035135907E-03         -0.277324340934538E-05          0.122384676115662E-02
  |  12         -0.137520916494858E-02          0.146096308558234E-02          0.500903164491802E-03
  |  13          0.160145176832719E-02          0.260622347980938E-03         -0.153123284087153E-02
  |  14         -0.199050553309526E-03         -0.237719306240184E-03         -0.282968980905821E-03
  |  15         -0.152496071758739E-03         -0.689763319917509E-04         -0.505512935892248E-03
  |  16         -0.109142423699864E-02          0.243544055094299E-03         -0.410441256155210E-03
  |  17         -0.285492377003653E-02          0.938295318605823E-03          0.193382327494643E-02
  |  18          0.169724022770440E-02         -0.421921070799865E-02          0.739341776516193E-04
  |  19         -0.136125505730687E-03         -0.110245938798564E-02          0.738668503030405E-04
  |  20          0.152376154833162E-02          0.242013200507962E-02         -0.462308905060745E-03
  |  21          0.104012891966239E-02         -0.149066509457027E-03         -0.861269822679969E-03
  |  22         -0.980750250244367E-03          0.123397294306056E-02         -0.512443799098716E-03
  |  23          0.653184820427017E-03          0.219629592529802E-02         -0.600499237084741E-03
  |  24         -0.115719678892429E-03         -0.816634758841568E-04         -0.113595309560132E-03
  |  25          0.123071466789723E-02         -0.620451524181864E-03         -0.150061337982423E-03
  |  26          0.685890873505772E-03         -0.310093385085004E-03         -0.533198700562226E-03
  |  27         -0.834761794894710E-03          0.904615601625890E-03         -0.193467935695737E-02
  |  28          0.992052619890955E-04         -0.435822670998578E-03          0.108629093384421E-02
  |  29         -0.797193152913664E-03         -0.145600058997840E-02          0.707366902346525E-03
  |  30         -0.137569873389375E-02          0.276444191664781E-03         -0.119167606367923E-02
  |  31          0.434789552450424E-03          0.240666877565518E-03          0.781770858568340E-03
  |  32          0.439059338601127E-03         -0.445919600497272E-03         -0.929768409603618E-04

  ------------------------------------ 
  Start decomposition of the XC Energy 
  ------------------------------------ 
  Hartree-Fock part   :          0.000000000 Ha              0.000000000 eV
  ------------------------------------ 
  X Energy            :        -96.981031456 Ha          -2638.988136165 eV
  C Energy GGA        :         -3.870531171 Ha           -105.322511916 eV
  Total XC Energy     :       -100.851562627 Ha          -2744.310648081 eV
  LDA X and C from self-consistent density 
  X Energy LDA        :        -88.000999286 Ha          -2394.629027963 eV
  C Energy LDA        :         -7.532551640 Ha           -204.971158940 eV
  ------------------------------------ 
  End decomposition of the XC Energy 
  ------------------------------------ 
   
  ESP charge fitting starts.
  | Calculation :  00000001  of  00000001
  | Full density
  Computing multipole expansion for total density.
  Generating points for esp charges.
  Partitioning the integration grid into batches with parallel hashing+maxmin method.
  | Number of batches:     3874
  | Maximal batch size:     192
  | Minimal batch size:      94
  | Average batch size:     125.649
  | Standard deviation of batch sizes:      17.596

  Integration load balanced across    32 MPI tasks.
  Work distribution over tasks is as follows:
  Initializing partition tables, free-atom densities, potentials, etc. across the integration grid (initialize_grid_storage).
  | Original list of interatomic distances with          32 x         32 entries is created.
  | Net number of integration points:   486764
  | of which are non-zero points    :   486764
  Summing up potential from multipole expanded  density.
  Summing up the Hartree potential.
  Time summed over all CPUs for potential: real work        6.401 s, elapsed        6.620 s
  Fitting esp charges to potential.
  |
  | ESP charges fitted to the electrostatic potential :
  |
  | Atom         1: C, ESP charge:      0.59156248
  |
  | Atom         2: C, ESP charge:     -0.74369851
  |
  | Atom         3: O, ESP charge:      0.55735330
  |
  | Atom         4: H, ESP charge:     -0.19256597
  |
  | Atom         5: H, ESP charge:     -0.21199521
  |
  | Atom         6: H, ESP charge:     -0.15508469
  |
  | Atom         7: N, ESP charge:      0.71177285
  |
  | Atom         8: C, ESP charge:     -0.41217576
  |
  | Atom         9: C, ESP charge:     -0.28221486
  |
  | Atom        10: O, ESP charge:      0.43486519
  |
  | Atom        11: H, ESP charge:     -0.32277670
  |
  | Atom        12: H, ESP charge:     -0.05678035
  |
  | Atom        13: C, ESP charge:      0.49776048
  |
  | Atom        14: H, ESP charge:     -0.12483976
  |
  | Atom        15: H, ESP charge:     -0.13979467
  |
  | Atom        16: H, ESP charge:     -0.13248900
  |
  | Atom        17: N, ESP charge:      0.47032297
  |
  | Atom        18: C, ESP charge:     -0.40138520
  |
  | Atom        19: C, ESP charge:     -0.26581194
  |
  | Atom        20: O, ESP charge:      0.53026208
  |
  | Atom        21: H, ESP charge:     -0.26581958
  |
  | Atom        22: H, ESP charge:     -0.09352341
  |
  | Atom        23: C, ESP charge:      0.82214932
  |
  | Atom        24: H, ESP charge:     -0.22089125
  |
  | Atom        25: H, ESP charge:     -0.27025321
  |
  | Atom        26: H, ESP charge:     -0.19889271
  |
  | Atom        27: N, ESP charge:      0.20437364
  |
  | Atom        28: C, ESP charge:      0.45242061
  |
  | Atom        29: H, ESP charge:     -0.29055588
  |
  | Atom        30: H, ESP charge:     -0.18291703
  |
  | Atom        31: H, ESP charge:     -0.17177448
  |
  | Atom        32: H, ESP charge:     -0.13660277

  RRMS:       0.00401832

  Done.

------------------------------------------------------------------------------
  Final output of selected total energy values:

  The following output summarizes some interesting total energy values
  at the end of a run (AFTER all relaxation, molecular dynamics, etc.).

  | Total energy of the DFT / Hartree-Fock s.c.f. calculation      :         -20208.472999513 eV
  | Final zero-broadening corrected energy (caution - metals only) :         -20208.472999513 eV
  | For reference only, the value of 1 Hartree used in FHI-aims is :             27.211384500 eV

  Before relying on these values, please be sure to understand exactly which
  total energy value is referred to by a given number. Different objects may
  all carry the same name 'total energy'. Definitions:

  Total energy of the DFT / Hartree-Fock s.c.f. calculation:
  | Note that this energy does not include ANY quantities calculated after the
  | s.c.f. cycle, in particular not ANY RPA, MP2, etc. many-body perturbation terms.

  Final zero-broadening corrected energy:
  | For metallic systems only, a broadening of the occupation numbers at the Fermi
  | level can be extrapolated back to zero broadening by an electron-gas inspired
  | formula. For all systems that are not real metals, this value can be
  | meaningless and should be avoided.

------------------------------------------------------------------------------
  Methods described in the following list of references were used in this FHI-aims run.
  If you publish the results, please make sure to cite these reference if they apply.
  FHI-aims is an academic code, and for our developers (often, Ph.D. students
  and postdocs), scientific credit in the community is essential.
  Thank you for helping us!

  For any use of FHI-aims, please cite:

    Volker Blum, Ralf Gehrke, Felix Hanke, Paula Havu, Ville Havu,
    Xinguo Ren, Karsten Reuter, and Matthias Scheffler
    'Ab initio molecular simulations with numeric atom-centered orbitals'
    Computer Physics Communications 180, 2175-2196 (2009)
    http://dx.doi.org/10.1016/j.cpc.2009.06.022


  The scalable eigensolver library ELPA was used in your run.
  ELPA is essential especially for large systems on hundreds or thousands of CPUs.
  For ELPA, please cite:

    Andreas Marek, Volker Blum, Rainer Johanni, Ville Havu, Bruno Lang,
    Thomas Auckenthaler, Alexander Heinecke, Hans-Joachim Bungartz, and Hermann Lederer,
    'The ELPA Library - Scalable Parallel Eigenvalue Solutions
    for Electronic Structure Theory and Computational Science'
    The Journal of Physics: Condensed Matter 26, 213201 (2014).
    http://dx.doi.org/10.1088/0953-8984/26/21/213201


  For ELPA's efficient two-stage tridiagonalization used in your run, please cite:

    T. Auckenthaler, V. Blum, H.-J. Bungartz, T. Huckle, R. Johanni, L. Kraemer,
    B. Lang, H. Lederer, and P. R. Willems,
    'Parallel solution of partial symmetric eigenvalue problems'
    'from  electronic structure calculations'
    Parallel Computing 37, 783-794 (2011).
    http://dx.doi.org/10.1016/j.parco.2011.05.002


  For the real-space grid partitioning and parallelization used in this calculation, please cite:

    Ville Havu, Volker Blum, Paula Havu, and Matthias Scheffler,
    'Efficient O(N) integration for all-electron electronic structure calculation'
    'using numerically tabulated basis functions'
    Journal of Computational Physics 228, 8367-8379 (2009).
    http://dx.doi.org/10.1016/j.jcp.2009.08.008

  Of course, there are many other important community references, e.g., those cited in the
  above references. Our list is limited to references that describe implementations in the
  FHI-aims code. The reason is purely practical (length of this list) - please credit others as well.

------------------------------------------------------------
          Leaving FHI-aims.
          Date     :  20170309, Time     :  190227.292

          Computational steps:
          | Number of self-consistency cycles          :           14

          Detailed time accounting                     :  max(cpu_time)    wall_clock(cpu1)
          | Total time                                 :       31.454 s          31.584 s
          | Preparation time                           :        0.236 s           0.236 s
          | Grid partitioning                          :        0.272 s           0.268 s
          | Preloading free-atom quantities on grid    :        0.028 s           0.027 s
          | Free-atom superposition energy             :        0.040 s           0.040 s
          | Total time for integrations                :       11.661 s          11.651 s
          | Total time for solution of K.-S. equations :        0.552 s           0.524 s
          | Total time for density & force components  :       10.021 s           9.990 s
          | Total time for mixing                      :        0.124 s           0.104 s
          | Total time for Hartree multipole update    :        0.068 s           0.060 s
          | Total time for Hartree multipole sum       :        6.332 s           6.312 s
          | Total time for total energy evaluation     :        0.032 s           0.018 s
          | Total time for vdW correction              :        0.128 s           0.125 s

          Have a nice day.
------------------------------------------------------------
