  MPI-parallelism will be employed.
------------------------------------------------------------
          Invoking FHI-aims ...
          Version 150427
          Git rev.: 9dd23e0 BL: Update Version stamp
          Compiled on 2015/11/03 at 22:05:20 on host eos03.

          When using FHI-aims, please cite the following reference:

          Volker Blum, Ralf Gehrke, Felix Hanke, Paula Havu,
          Ville Havu, Xinguo Ren, Karsten Reuter, and Matthias Scheffler,
          'Ab Initio Molecular Simulations with Numeric Atom-Centered Orbitals: FHI-aims',
          Computer Physics Communications 180, 2175-2196 (2009)

          For any questions about FHI-aims, please visit the aimsclub website
          with its forums and wiki. Contributions to both the forums and the
          wiki are warmly encouraged - they are for you, and everyone is welcome there.

------------------------------------------------------------

  Date     :  20170309, Time     :  183025.607
  Time zero on CPU 1             :   0.424026000000000E+00  s.
  Internal wall clock time zero  :           258316225.607  s.

  Using       32 parallel tasks.
  Task        0 on host eos366 reporting.
  Task        1 on host eos366 reporting.
  Task        2 on host eos366 reporting.
  Task        3 on host eos366 reporting.
  Task        4 on host eos366 reporting.
  Task        5 on host eos366 reporting.
  Task        6 on host eos366 reporting.
  Task        7 on host eos366 reporting.
  Task        8 on host eos366 reporting.
  Task        9 on host eos366 reporting.
  Task       10 on host eos366 reporting.
  Task       11 on host eos366 reporting.
  Task       12 on host eos366 reporting.
  Task       13 on host eos366 reporting.
  Task       14 on host eos366 reporting.
  Task       15 on host eos366 reporting.
  Task       16 on host eos366 reporting.
  Task       17 on host eos366 reporting.
  Task       18 on host eos366 reporting.
  Task       19 on host eos366 reporting.
  Task       20 on host eos366 reporting.
  Task       21 on host eos366 reporting.
  Task       22 on host eos366 reporting.
  Task       23 on host eos366 reporting.
  Task       24 on host eos366 reporting.
  Task       25 on host eos366 reporting.
  Task       26 on host eos366 reporting.
  Task       27 on host eos366 reporting.
  Task       28 on host eos366 reporting.
  Task       29 on host eos366 reporting.
  Task       30 on host eos366 reporting.
  Task       31 on host eos366 reporting.

  Performing system and environment tests:
  | Environment variable OMP_NUM_THREADS correctly set to 1.
  | Stacksize not measured: no C compiler
  | Checking for scalapack...
  | Testing pdtran()...
  | All pdtran() tests passed.

  Obtaining array dimensions for all initial allocations:
  
  -----------------------------------------------------------------------
  Parsing control.in (first pass over file, find array dimensions only).
  The contents of control.in will be repeated verbatim below
  unless switched off by setting 'verbatim_writeout .false.' .
  in the first line of control.in .
  -----------------------------------------------------------------------
  
  #########################################################################################
  #
  # Input for System
  #
  #########################################################################################
  #
  #
  #  Physical model
  #
    xc                 pbe
    vdw_correction_hirshfeld
    spin               none
    charge             0.
  #
  #  SCF convergence
  #
    occupation_type    gaussian 0.05
    mixer              pulay
      n_max_pulay        10
      charge_mix_param   0.5
    sc_accuracy_rho    1E-4
    sc_accuracy_eev    1E-2
    sc_accuracy_etot   1E-5
    sc_accuracy_forces 1E-4
    sc_iter_limit      1000
  #
  #  ESP charge
  #
    output esp
    esp equal_grid_n 80 80 80
  #
  #
  ################################################################################
  #
  #  FHI-aims code project
  # Volker Blum, Fritz Haber Institute Berlin, 2009
  #
  #  Suggested "tight" defaults for H atom (to be pasted into control.in file)
  #
  ################################################################################
    species        H
  #     global species definitions
      nucleus             1
      mass                1.00794
  #
      l_hartree           6
  #
      cut_pot             4.0  2.0  1.0
      basis_dep_cutoff    1e-4
  #
      radial_base         24 7.0
      radial_multiplier   2
      angular_grids       specified
        division   0.1930   50
        division   0.3175  110
        division   0.4293  194
        division   0.5066  302
        division   0.5626  434
  #      division   0.5922  590
  #      division   0.6227  974
  #      division   0.6868 1202
  #      outer_grid  770
        outer_grid  434
  ################################################################################
  #
  #  Definition of "minimal" basis
  #
  ################################################################################
  #     valence basis states
      valence      1  s   1.
  #     ion occupancy
      ion_occ      1  s   0.5
  ################################################################################
  #
  #  Suggested additional basis functions. For production calculations,
  #  uncomment them one after another (the most important basis functions are
  #  listed first).
  #
  #  Basis constructed for dimers: 0.5 A, 0.7 A, 1.0 A, 1.5 A, 2.5 A
  #
  ################################################################################
  #  "First tier" - improvements: -1014.90 meV to -62.69 meV
       hydro 2 s 2.1
       hydro 2 p 3.5
  #  "Second tier" - improvements: -12.89 meV to -1.83 meV
       hydro 1 s 0.85
       hydro 2 p 3.7
       hydro 2 s 1.2
       hydro 3 d 7
  #  "Third tier" - improvements: -0.25 meV to -0.12 meV
  #     hydro 4 f 11.2
  #     hydro 3 p 4.8
  #     hydro 4 d 9
  #     hydro 3 s 3.2
  ################################################################################
  #
  # For methods that use the localized form of the "resolution of identity" for
  # the two-electron Coulomb operator (RI_method LVL), particularly Hartree-Fock and
  # hybrid density functional calculations, the highest accuracy can be obtained by
  # uncommenting the line beginning with "for_aux"  below, thus adding an extra g radial
  # function to the construction of the product basis set for the expansion.
  # See Ref. New J. Phys. 17, 093020 (2015) for more information, particularly Figs. 1 and 6.
  #
  ################################################################################
  #
  # for_aux hydro 5 g 6.0
  ################################################################################
  #
  #  FHI-aims code project
  # Volker Blum, Fritz Haber Institute Berlin, 2009
  #
  #  Suggested "tight" defaults for C atom (to be pasted into control.in file)
  #
  ################################################################################
    species        C
  #     global species definitions
      nucleus             6
      mass                12.0107
  #
      l_hartree           6
  #
      cut_pot             4.0  2.0  1.0
      basis_dep_cutoff    1e-4
  #
      radial_base         34 7.0
      radial_multiplier   2
      angular_grids specified
        division   0.2187   50
        division   0.4416  110
        division   0.6335  194
        division   0.7727  302
        division   0.8772  434
  #      division   0.9334  590
  #      division   0.9924  770
  #      division   1.0230  974
  #      division   1.5020 1202
  #     outer_grid  974
        outer_grid  434
  ################################################################################
  #
  #  Definition of "minimal" basis
  #
  ################################################################################
  #     valence basis states
      valence      2  s   2.
      valence      2  p   2.
  #     ion occupancy
      ion_occ      2  s   1.
      ion_occ      2  p   1.
  ################################################################################
  #
  #  Suggested additional basis functions. For production calculations,
  #  uncomment them one after another (the most important basis functions are
  #  listed first).
  #
  #  Constructed for dimers: 1.0 A, 1.25 A, 1.5 A, 2.0 A, 3.0 A
  #
  ################################################################################
  #  "First tier" - improvements: -1214.57 meV to -155.61 meV
       hydro 2 p 1.7
       hydro 3 d 6
       hydro 2 s 4.9
  #  "Second tier" - improvements: -67.75 meV to -5.23 meV
       hydro 4 f 9.8
       hydro 3 p 5.2
       hydro 3 s 4.3
       hydro 5 g 14.4
       hydro 3 d 6.2
  #  "Third tier" - improvements: -2.43 meV to -0.60 meV
  #     hydro 2 p 5.6
  #     hydro 2 s 1.4
  #     hydro 3 d 4.9
  #     hydro 4 f 11.2
  #  "Fourth tier" - improvements: -0.39 meV to -0.18 meV
  #     hydro 2 p 2.1
  #     hydro 5 g 16.4
  #     hydro 4 d 13.2
  #     hydro 3 s 13.6
  #     hydro 4 f 17.6
  #  Further basis functions - improvements: -0.08 meV and below
  #     hydro 3 s 2
  #     hydro 3 p 6
  #     hydro 4 d 20
  ################################################################################
  #
  # For methods that use the localized form of the "resolution of identity" for
  # the two-electron Coulomb operator (RI_method LVL), particularly Hartree-Fock and
  # hybrid density functional calculations, the highest accuracy can be obtained by
  # uncommenting the line beginning with "for_aux"  below, thus adding an extra g radial
  # function to the construction of the product basis set for the expansion.
  # See Ref. New J. Phys. 17, 093020 (2015) for more information, particularly Figs. 1 and 6.
  #
  ################################################################################
  #
  # for_aux hydro 5 g 6.0
  ################################################################################
  #
  #  FHI-aims code project
  # Volker Blum, Fritz Haber Institute Berlin, 2009
  #
  #  Suggested "tight" defaults for N atom (to be pasted into control.in file)
  #
  ################################################################################
    species        N
  #     global species definitions
      nucleus             7
      mass                14.0067
  #
      l_hartree           6
  #
      cut_pot             4.0  2.0  1.0
      basis_dep_cutoff    1e-4
  #
      radial_base         35 7.0
      radial_multiplier   2
      angular_grids       specified
        division   0.1841   50
        division   0.3514  110
        division   0.5126  194
        division   0.6292  302
        division   0.6939  434
  #      division   0.7396  590
  #      division   0.7632  770
  #      division   0.8122  974
  #      division   1.1604 1202
  #      outer_grid  974
        outer_grid  434
  ################################################################################
  #
  #  Definition of "minimal" basis
  #
  ################################################################################
  #     valence basis states
      valence      2  s   2.
      valence      2  p   3.
  #     ion occupancy
      ion_occ      2  s   1.
      ion_occ      2  p   2.
  ################################################################################
  #
  #  Suggested additional basis functions. For production calculations,
  #  uncomment them one after another (the most important basis functions are
  #  listed first).
  #
  #  Constructed for dimers: 1.0 A, 1.1 A, 1.5 A, 2.0 A, 3.0 A
  #
  ################################################################################
  #  "First tier" - improvements: -1193.42 meV to -220.60 meV
       hydro 2 p 1.8
       hydro 3 d 6.8
       hydro 3 s 5.8
  #  "Second tier" - improvements: -80.21 meV to -6.86 meV
       hydro 4 f 10.8
       hydro 3 p 5.8
       hydro 1 s 0.8
       hydro 5 g 16
       hydro 3 d 4.9
  #  "Third tier" - improvements: -4.29 meV to -0.53 meV
  #     hydro 3 s 16
  #     ionic 2 p auto
  #     hydro 3 d 6.6
  #     hydro 4 f 11.6
  #  "Fourth tier" - improvements: -0.75 meV to -0.25 meV
  #     hydro 2 p 4.5
  #     hydro 2 s 2.4
  #     hydro 5 g 14.4
  #     hydro 4 d 14.4
  #     hydro 4 f 16.8
  # Further basis functions - -0.21 meV and below
  #     hydro 3 p 14.8
  #     hydro 3 s 4.4
  #     hydro 3 d 19.6
  #     hydro 5 g 12.8
  ################################################################################
  #
  # For methods that use the localized form of the "resolution of identity" for
  # the two-electron Coulomb operator (RI_method LVL), particularly Hartree-Fock and
  # hybrid density functional calculations, the highest accuracy can be obtained by
  # uncommenting the line beginning with "for_aux"  below, thus adding an extra g radial
  # function to the construction of the product basis set for the expansion.
  # See Ref. New J. Phys. 17, 093020 (2015) for more information, particularly Figs. 1 and 6.
  #
  ################################################################################
  #
  # for_aux hydro 5 g 6.0
  ################################################################################
  #
  #  FHI-aims code project
  # Volker Blum, Fritz Haber Institute Berlin, 2009
  #
  #  Suggested "tight" defaults for O atom (to be pasted into control.in file)
  #
  ################################################################################
    species        O
  #     global species definitions
      nucleus             8
      mass                15.9994
  #
      l_hartree           6
  #
      cut_pot             4.0  2.0  1.0
      basis_dep_cutoff    1e-4
  #
      radial_base         36 7.0
      radial_multiplier   2
       angular_grids specified
        division   0.1817   50
        division   0.3417  110
        division   0.4949  194
        division   0.6251  302
        division   0.8014  434
  #      division   0.8507  590
  #      division   0.8762  770
  #      division   0.9023  974
  #      division   1.2339 1202
  #      outer_grid 974
        outer_grid  434
  ################################################################################
  #
  #  Definition of "minimal" basis
  #
  ################################################################################
  #     valence basis states
      valence      2  s   2.
      valence      2  p   4.
  #     ion occupancy
      ion_occ      2  s   1.
      ion_occ      2  p   3.
  ################################################################################
  #
  #  Suggested additional basis functions. For production calculations,
  #  uncomment them one after another (the most important basis functions are
  #  listed first).
  #
  #  Constructed for dimers: 1.0 A, 1.208 A, 1.5 A, 2.0 A, 3.0 A
  #
  ################################################################################
  #  "First tier" - improvements: -699.05 meV to -159.38 meV
       hydro 2 p 1.8
       hydro 3 d 7.6
       hydro 3 s 6.4
  #  "Second tier" - improvements: -49.91 meV to -5.39 meV
       hydro 4 f 11.6
       hydro 3 p 6.2
       hydro 3 d 5.6
       hydro 5 g 17.6
       hydro 1 s 0.75
  #  "Third tier" - improvements: -2.83 meV to -0.50 meV
  #     ionic 2 p auto
  #     hydro 4 f 10.8
  #     hydro 4 d 4.7
  #     hydro 2 s 6.8
  #  "Fourth tier" - improvements: -0.40 meV to -0.12 meV
  #     hydro 3 p 5
  #     hydro 3 s 3.3
  #     hydro 5 g 15.6
  #     hydro 4 f 17.6
  #     hydro 4 d 14
  # Further basis functions - -0.08 meV and below
  #     hydro 3 s 2.1
  #     hydro 4 d 11.6
  #     hydro 3 p 16
  #     hydro 2 s 17.2
  ################################################################################
  #
  # For methods that use the localized form of the "resolution of identity" for
  # the two-electron Coulomb operator (RI_method LVL), particularly Hartree-Fock and
  # hybrid density functional calculations, the highest accuracy can be obtained by
  # uncommenting the line beginning with "for_aux"  below, thus adding an extra g radial
  # function to the construction of the product basis set for the expansion.
  # See Ref. New J. Phys. 17, 093020 (2015) for more information, particularly Figs. 1 and 6.
  #
  ################################################################################
  #
  # for_aux hydro 5 g 6.0
  
  -----------------------------------------------------------------------
  Completed first pass over input file control.in .
  -----------------------------------------------------------------------
  
  
  -----------------------------------------------------------------------
  Parsing geometry.in (first pass over file, find array dimensions only).
  The contents of geometry.in will be repeated verbatim below
  unless switched off by setting 'verbatim_writeout .false.' .
  in the first line of geometry.in .
  -----------------------------------------------------------------------
  
  #
  # This is the geometry file that corresponds to the current relaxation step.
  # If you do not want this file to be written, set the "write_restart_geometry" flag to .false.
  #
  atom      -0.05058416      0.63822782      0.01663768 C
  atom      -0.22298994      0.76772371      1.51842307 C
  atom       0.43693239      1.56629863      2.18322502 O
  atom      -0.49268297     -0.27509668     -0.39997282 H
  atom       1.01810726      0.66804981     -0.22234463 H
  atom      -0.52382956      1.50670604     -0.46184781 H
  atom      -1.15655637     -0.06790060      2.07079543 N
  atom      -1.63056615      0.06636881      3.45156465 C
  atom      -2.51072513      1.35147157      3.55670464 C
  atom      -3.39307701      1.47184538      2.70505617 O
  atom      -1.80332142     -0.50715396      1.42642757 H
  atom      -2.39625054     -0.71781128      3.55620067 H
  atom      -0.53130193     -0.26050690      4.46506839 C
  atom      -0.95097318     -0.33930725      5.47637435 H
  atom       0.28411627      0.46832252      4.45444159 H
  atom      -0.10531199     -1.24000429      4.21057261 H
  atom      -2.42989070      2.23592399      4.59101971 N
  atom      -1.36849855      2.58983702      5.52241243 C
  atom      -2.04049304      3.43347294      6.62435806 C
  atom      -3.04995684      4.09854204      6.40104258 O
  atom      -3.16390741      2.94891329      4.56215967 H
  atom      -0.94895626      1.68567484      5.97990509 H
  atom      -0.24375768      3.40917856      4.86223731 C
  atom       0.55501400      3.63226402      5.58354197 H
  atom      -0.64521266      4.35945483      4.48610213 H
  atom       0.18074988      2.85383556      4.01688877 H
  atom      -1.40209378      3.41129069      7.82673557 N
  atom      -1.81074399      4.23107614      8.95271070 C
  atom      -0.57172958      2.83791524      7.91648605 H
  atom      -1.99847119      3.61334264      9.84125704 H
  atom      -2.73782722      4.74055245      8.67026158 H
  atom      -1.05013457      4.98649041      9.19699878 H
  
  -----------------------------------------------------------------------
  Completed first pass over input file geometry.in .
  -----------------------------------------------------------------------
  

  Basic array size parameters:
  | Number of species                 :        4
  | Number of atoms                   :       32
  | Max. basis fn. angular momentum   :        4
  | Max. atomic/ionic basis occupied n:        2
  | Max. number of basis fn. types    :        2
  | Max. radial fns per species/type  :        8
  | Max. logarithmic grid size        :     1301
  | Max. radial integration grid size :       73
  | Max. angular integration grid size:      434
  | Max. angular grid division number :        8
  | Radial grid for Hartree potential :     1301
  | Number of spin channels           :        1

------------------------------------------------------------
          Reading file control.in.
------------------------------------------------------------
  XC: Using PBE gradient-corrected functionals.
  Spin treatment: No spin polarisation.
  Charge =   0.000000E+00: Neutral system requested explicitly.
  Occupation type: Gaussian broadening, width =   0.500000E-01 eV.
  Using pulay charge density mixing.
  Pulay mixing - number of memorized iterations:   10
  Charge density mixing - mixing parameter:     0.5000
  Convergence accuracy of self-consistent charge density:  0.1000E-03
  Convergence accuracy of sum of eigenvalues:  0.1000E-01
  Convergence accuracy of total energy:  0.1000E-04
  Convergence accuracy of forces:  0.1000E-03
  Maximum number of s.-c. iterations  :  1000
  Fitting ESP-charges to Potential. 
  | Esp charge output options: 
  | ESP Grid method: 3, cubic grid
  | Number of points in x, ,y, z:  0080 0080 0080
  |
 
  Reading configuration options for species H                   .
  | Found nuclear charge :   1.0000
  | Found atomic mass :    1.00794000000000      amu
  | Found l_max for Hartree potential  :   6
  | Found cutoff potl. onset [A], width [A], scale factor :    4.00000    2.00000    1.00000
  | Threshold for basis-dependent cutoff potential is   0.100000E-03
  | Found data for basic radial integration grid :    24 points, outermost radius =    7.000 A
  | Found multiplier for basic radial grid :   2
  | Found angular grid specification: user-specified.
  | Specified grid contains     6 separate shells.
  | Check grid settings after all constraints further below.
  | Found free-atom valence shell :  1 s   1.000
  | No ionic wave fns used. Skipping ion_occ.
  | Found hydrogenic basis function :  2 s   2.100
  | Found hydrogenic basis function :  2 p   3.500
  | Found hydrogenic basis function :  1 s   0.850
  | Found hydrogenic basis function :  2 p   3.700
  | Found hydrogenic basis function :  2 s   1.200
  | Found hydrogenic basis function :  3 d   7.000
  Species H                   : Missing cutoff potential type.
  Defaulting to exp(1/x)/(1-x)^2 type cutoff potential.
  Species H : No 'logarithmic' tag. Using default grid for free atom:
  | Default logarithmic grid data [bohr] : 0.1000E-03 0.1000E+03 0.1012E+01
  Species H : On-site basis accuracy parameter (for Gram-Schmidt orthonormalisation) not specified.
  Using default value basis_acc =  0.1000000E-03.
  Species H                   : Using default innermost maximum threshold i_radial=  2 for radial functions.
  Species H                   : Default cutoff onset for free atom density etc. : 0.40000000E+01 AA.
  Species H                   : Basic radial grid will be enhanced according to radial_multiplier =   2, to contain    49 grid points.
 
  Reading configuration options for species C                   .
  | Found nuclear charge :   6.0000
  | Found atomic mass :    12.0107000000000      amu
  | Found l_max for Hartree potential  :   6
  | Found cutoff potl. onset [A], width [A], scale factor :    4.00000    2.00000    1.00000
  | Threshold for basis-dependent cutoff potential is   0.100000E-03
  | Found data for basic radial integration grid :    34 points, outermost radius =    7.000 A
  | Found multiplier for basic radial grid :   2
  | Found angular grid specification: user-specified.
  | Specified grid contains     6 separate shells.
  | Check grid settings after all constraints further below.
  | Found free-atom valence shell :  2 s   2.000
  | Found free-atom valence shell :  2 p   2.000
  | No ionic wave fns used. Skipping ion_occ.
  | No ionic wave fns used. Skipping ion_occ.
  | Found hydrogenic basis function :  2 p   1.700
  | Found hydrogenic basis function :  3 d   6.000
  | Found hydrogenic basis function :  2 s   4.900
  | Found hydrogenic basis function :  4 f   9.800
  | Found hydrogenic basis function :  3 p   5.200
  | Found hydrogenic basis function :  3 s   4.300
  | Found hydrogenic basis function :  5 g  14.400
  | Found hydrogenic basis function :  3 d   6.200
  Species C                   : Missing cutoff potential type.
  Defaulting to exp(1/x)/(1-x)^2 type cutoff potential.
  Species C : No 'logarithmic' tag. Using default grid for free atom:
  | Default logarithmic grid data [bohr] : 0.1000E-03 0.1000E+03 0.1012E+01
  Species C : On-site basis accuracy parameter (for Gram-Schmidt orthonormalisation) not specified.
  Using default value basis_acc =  0.1000000E-03.
  Species C                   : Using default innermost maximum threshold i_radial=  2 for radial functions.
  Species C                   : Default cutoff onset for free atom density etc. : 0.40000000E+01 AA.
  Species C                   : Basic radial grid will be enhanced according to radial_multiplier =   2, to contain    69 grid points.
 
  Reading configuration options for species N                   .
  | Found nuclear charge :   7.0000
  | Found atomic mass :    14.0067000000000      amu
  | Found l_max for Hartree potential  :   6
  | Found cutoff potl. onset [A], width [A], scale factor :    4.00000    2.00000    1.00000
  | Threshold for basis-dependent cutoff potential is   0.100000E-03
  | Found data for basic radial integration grid :    35 points, outermost radius =    7.000 A
  | Found multiplier for basic radial grid :   2
  | Found angular grid specification: user-specified.
  | Specified grid contains     6 separate shells.
  | Check grid settings after all constraints further below.
  | Found free-atom valence shell :  2 s   2.000
  | Found free-atom valence shell :  2 p   3.000
  | No ionic wave fns used. Skipping ion_occ.
  | No ionic wave fns used. Skipping ion_occ.
  | Found hydrogenic basis function :  2 p   1.800
  | Found hydrogenic basis function :  3 d   6.800
  | Found hydrogenic basis function :  3 s   5.800
  | Found hydrogenic basis function :  4 f  10.800
  | Found hydrogenic basis function :  3 p   5.800
  | Found hydrogenic basis function :  1 s   0.800
  | Found hydrogenic basis function :  5 g  16.000
  | Found hydrogenic basis function :  3 d   4.900
  Species N                   : Missing cutoff potential type.
  Defaulting to exp(1/x)/(1-x)^2 type cutoff potential.
  Species N : No 'logarithmic' tag. Using default grid for free atom:
  | Default logarithmic grid data [bohr] : 0.1000E-03 0.1000E+03 0.1012E+01
  Species N : On-site basis accuracy parameter (for Gram-Schmidt orthonormalisation) not specified.
  Using default value basis_acc =  0.1000000E-03.
  Species N                   : Using default innermost maximum threshold i_radial=  2 for radial functions.
  Species N                   : Default cutoff onset for free atom density etc. : 0.40000000E+01 AA.
  Species N                   : Basic radial grid will be enhanced according to radial_multiplier =   2, to contain    71 grid points.
 
  Reading configuration options for species O                   .
  | Found nuclear charge :   8.0000
  | Found atomic mass :    15.9994000000000      amu
  | Found l_max for Hartree potential  :   6
  | Found cutoff potl. onset [A], width [A], scale factor :    4.00000    2.00000    1.00000
  | Threshold for basis-dependent cutoff potential is   0.100000E-03
  | Found data for basic radial integration grid :    36 points, outermost radius =    7.000 A
  | Found multiplier for basic radial grid :   2
  | Found angular grid specification: user-specified.
  | Specified grid contains     6 separate shells.
  | Check grid settings after all constraints further below.
  | Found free-atom valence shell :  2 s   2.000
  | Found free-atom valence shell :  2 p   4.000
  | No ionic wave fns used. Skipping ion_occ.
  | No ionic wave fns used. Skipping ion_occ.
  | Found hydrogenic basis function :  2 p   1.800
  | Found hydrogenic basis function :  3 d   7.600
  | Found hydrogenic basis function :  3 s   6.400
  | Found hydrogenic basis function :  4 f  11.600
  | Found hydrogenic basis function :  3 p   6.200
  | Found hydrogenic basis function :  3 d   5.600
  | Found hydrogenic basis function :  5 g  17.600
  | Found hydrogenic basis function :  1 s   0.750
  Species O                   : Missing cutoff potential type.
  Defaulting to exp(1/x)/(1-x)^2 type cutoff potential.
  Species O : No 'logarithmic' tag. Using default grid for free atom:
  | Default logarithmic grid data [bohr] : 0.1000E-03 0.1000E+03 0.1012E+01
  Species O : On-site basis accuracy parameter (for Gram-Schmidt orthonormalisation) not specified.
  Using default value basis_acc =  0.1000000E-03.
  Species O                   : Using default innermost maximum threshold i_radial=  2 for radial functions.
  Species O                   : Default cutoff onset for free atom density etc. : 0.40000000E+01 AA.
  Species O                   : Basic radial grid will be enhanced according to radial_multiplier =   2, to contain    73 grid points.
 
  Finished reading input file 'control.in'. Consistency checks are next.
 
  Target number of points in a grid batch is not set. Defaulting to  100
  Method for grid partitioning is not set. Defaulting to parallel hash+maxmin partitioning.
  Batch size limit is not set. Defaulting to    200
  By default, will store active basis functions for each batch.
  If in need of memory, prune_basis_once .false. can be used to disable this option.
  communication_type for Hartree potential was not specified.
  Defaulting to calc_hartree .
  Pulay mixer: Number of initial linear mixing iterations not set.
  Defaulting to    0 iterations.
  Work space size for distributed Hartree potential not set.
  Defaulting to   0.200000E+03 MB.
  Algorithm-dependent basis array size parameters:
  | n_max_pulay                         :       10
  Geometry relaxation not requested: no relaxation will be performed.
  Handling of forces: Unphysical translation and rotation will be removed from forces.
  No accuracy limit for integral partition fn. given. Defaulting to  0.1000E-14.
  No threshold value for u(r) in integrations given. Defaulting to  0.1000E-05.
  No accuracy for occupation numbers given. Defaulting to  0.1000E-07.
  No threshold value for occupation numbers given. Defaulting to  0.0000E+00.
  No accuracy for fermi level given. Defaulting to  0.1000E-19.
  Maximum # of iterations to find E_F not set. Defaulting to  200.
  Preferred method for the eigenvalue solver ('KS_method') not specified in 'control.in'.
  Calling blacs routine to test compilation state
  Since scalapack support is enabled, defaulting to 'elpa'.
  Preferred method for the MBD eigenvalue solver ('mbd_eigensolver') not specified in 'control.in'.
  Calling blacs routine to test compilation state
  Since scalapack support is enabled, defaulting to 'scaLAPACK'.
  Will not use alltoall communication since running on < 1024 CPUs.
  Threshold for basis singularities not set.
  Default threshold for basis singularities:  0.1000E-04
  partition_type (choice of integration weights) for integrals was not specified.
  | Using a version of the partition function of Stratmann and coworkers ('stratmann_smoother').
  | At each grid point, the set of atoms used to build the partition table is smoothly restricted to
  | only those atoms whose free-atom density would be non-zero at that grid point.
  Partitioning for Hartree potential was not defined. Using partition_type for integrals.
  | Adjusted default value of keyword multip_moments_threshold to:       0.10000000E-11
  | This value may affect high angular momentum components of the Hartree potential in periodic systems.
  No q(lm)/r^(l+1) cutoff set for long-range Hartree potential.
  | Using default value of  0.100000E-09 .
  | Verify using the multipole_threshold keyword.
  Defaulting to new monopole extrapolation.
  Density update method: automatic selection selected.
------------------------------------------------------------


------------------------------------------------------------
          Reading geometry description geometry.in.
------------------------------------------------------------
 * Warning! You did not set the 'relativistic' flag in input file 'control.in'.
 * Since you are not attempting to treat any elements beyond Ca(Z=20), FHI-aims
 * will default to 'relativistic none'.
 * You must ensure that this is really what you want!!
 * For example, DO NOT compute total-energy differences between results from
 * different settings of the 'relativistic' flag.
  Input structure read successfully.
  The structure contains       32 atoms,  and a total of        116.000 electrons.

  Input geometry:
  | No unit cell requested.
  | Atomic structure:
  |       Atom                x [A]            y [A]            z [A]
  |    1: Species C             -0.050584         0.638228         0.016638
  |    2: Species C             -0.222990         0.767724         1.518423
  |    3: Species O              0.436932         1.566299         2.183225
  |    4: Species H             -0.492683        -0.275097        -0.399973
  |    5: Species H              1.018107         0.668050        -0.222345
  |    6: Species H             -0.523830         1.506706        -0.461848
  |    7: Species N             -1.156556        -0.067901         2.070795
  |    8: Species C             -1.630566         0.066369         3.451565
  |    9: Species C             -2.510725         1.351472         3.556705
  |   10: Species O             -3.393077         1.471845         2.705056
  |   11: Species H             -1.803321        -0.507154         1.426428
  |   12: Species H             -2.396251        -0.717811         3.556201
  |   13: Species C             -0.531302        -0.260507         4.465068
  |   14: Species H             -0.950973        -0.339307         5.476374
  |   15: Species H              0.284116         0.468323         4.454442
  |   16: Species H             -0.105312        -1.240004         4.210573
  |   17: Species N             -2.429891         2.235924         4.591020
  |   18: Species C             -1.368499         2.589837         5.522412
  |   19: Species C             -2.040493         3.433473         6.624358
  |   20: Species O             -3.049957         4.098542         6.401043
  |   21: Species H             -3.163907         2.948913         4.562160
  |   22: Species H             -0.948956         1.685675         5.979905
  |   23: Species C             -0.243758         3.409179         4.862237
  |   24: Species H              0.555014         3.632264         5.583542
  |   25: Species H             -0.645213         4.359455         4.486102
  |   26: Species H              0.180750         2.853836         4.016889
  |   27: Species N             -1.402094         3.411291         7.826736
  |   28: Species C             -1.810744         4.231076         8.952711
  |   29: Species H             -0.571730         2.837915         7.916486
  |   30: Species H             -1.998471         3.613343         9.841257
  |   31: Species H             -2.737827         4.740552         8.670262
  |   32: Species H             -1.050135         4.986490         9.196999
  |

  | The smallest distance between any two atoms is         1.01307416 AA.
  |
  | The first atom of this pair is atom number                     27 .
  | The second atom of this pair is atom number                    29 .

  Number of empty states per atom not set in control.in - providing a guess from actual geometry.
  | Total number of empty states used during s.c.f. cycle:       71
  If you use a very high smearing, use empty_states (per atom!) in control.in to increase this value.

  Structure-dependent array size parameters: 
  | Maximum number of distinct radial functions  :       40
  | Maximum number of basis functions            :      840
  | Number of Kohn-Sham states (occupied + empty):      129
------------------------------------------------------------

------------------------------------------------------------
          Preparing all fixed parts of the calculation.
------------------------------------------------------------
  Determining machine precision:
    2.225073858507201E-308
  Setting up grids for atomic and cluster calculations.

  Creating wave function, potential, and density for free atoms.

  Species: H

  List of occupied orbitals and eigenvalues:
    n    l              occ      energy [Ha]    energy [eV]
    1    0           1.0000        -0.238382        -6.4867


  Species: C

  List of occupied orbitals and eigenvalues:
    n    l              occ      energy [Ha]    energy [eV]
    1    0           2.0000       -10.041232      -273.2358
    2    0           2.0000        -0.504327       -13.7234
    2    1           2.0000        -0.193750        -5.2722


  Species: N

  List of occupied orbitals and eigenvalues:
    n    l              occ      energy [Ha]    energy [eV]
    1    0           2.0000       -14.129007      -384.4699
    2    0           2.0000        -0.681802       -18.5528
    2    1           3.0000        -0.260543        -7.0897


  Species: O

  List of occupied orbitals and eigenvalues:
    n    l              occ      energy [Ha]    energy [eV]
    1    0           2.0000       -18.898576      -514.2564
    2    0           2.0000        -0.878795       -23.9132
    2    1           4.0000        -0.332075        -9.0362

  Creating fixed part of basis set: Ionic, confined, hydrogenic.
 
  H                    hydrogenic:
 
  List of hydrogenic basis orbitals: 
    n    l      effective z      eigenvalue [eV]  inner max. [A]     outer max. [A]     outer radius [A]   
    2    0         2.100000       -14.9965           0.193243           1.317208           5.373006
    2    1         3.500000       -41.6672           0.602369           0.602369           4.056063
    1    0         0.850000        -9.8292           0.624871           0.624871           5.373006
    2    1         3.700000       -46.5653           0.573622           0.573622           3.910002
    2    0         1.200000        -4.5995           0.334980           2.228188           5.505995
    3    2         7.000000       -74.0753           0.680699           0.680699           3.769201
 
 
  C                    hydrogenic:
 
  List of hydrogenic basis orbitals: 
    n    l      effective z      eigenvalue [eV]  inner max. [A]     outer max. [A]     outer radius [A]   
    2    1         1.700000        -9.8152           1.245706           1.245706           5.401630
    3    2         6.000000       -54.4226           0.792453           0.792453           4.178599
    2    0         4.900000       -81.6681           0.082559           0.562749           3.353238
    4    3         9.800000       -81.6681           0.863254           0.863254           4.028125
    3    1         5.200000       -40.8774           0.305389           1.215618           4.898362
    3    0         4.300000       -27.9508           0.091041           1.610311           5.401630
    5    4        14.400000      -112.8510           0.917666           0.917666           3.883070
    3    2         6.200000       -58.1113           0.763917           0.763917           4.077671
 
 
  N                    hydrogenic:
 
  List of hydrogenic basis orbitals: 
    n    l      effective z      eigenvalue [eV]  inner max. [A]     outer max. [A]     outer radius [A]   
    2    1         1.800000       -11.0118           1.177451           1.177451           5.427479
    3    2         6.800000       -69.9029           0.704619           0.704619           3.854246
    3    0         5.800000       -50.8549           0.067388           1.191934           4.629968
    4    3        10.800000       -99.1854           0.786571           0.786571           3.761152
    3    1         5.800000       -50.8549           0.274880           1.094176           4.518138
    1    0         0.800000        -8.7059           0.662839           0.662839           5.361532
    5    4        16.000000      -139.3222           0.825990           0.825990           3.625711
    3    2         4.900000       -36.2967           0.968267           0.968267           4.862000
 
 
  O                    hydrogenic:
 
  List of hydrogenic basis orbitals: 
    n    l      effective z      eigenvalue [eV]  inner max. [A]     outer max. [A]     outer radius [A]   
    2    1         1.800000       -11.0118           1.178562           1.178562           5.432602
    3    2         7.600000       -87.3182           0.624125           0.624125           3.541477
    3    0         6.400000       -61.9209           0.061167           1.081902           4.306578
    4    3        11.600000      -114.4238           0.731631           0.731631           3.585037
    3    1         6.200000       -58.1113           0.255680           1.030270           4.306578
    3    2         5.600000       -47.4081           0.847233           0.847233           4.413171
    5    4        17.600000      -168.5799           0.749740           0.749740           3.372465
    1    0         0.750000        -7.6499           0.705284           0.705284           5.366593
 

  Adding cutoff potential to free-atom effective potential.
  Creating atomic-like basis functions for current effective potential.

  Species H                   :

  List of atomic basis orbitals and eigenvalues:
    n    l      energy [Ha]    energy [eV]    outer radius [A]
    1    0        -0.238382        -6.4867       5.373006


  Species C                   :

  List of atomic basis orbitals and eigenvalues:
    n    l      energy [Ha]    energy [eV]    outer radius [A]
    1    0       -10.041232      -273.2358       1.934409
    2    0        -0.504327       -13.7234       5.271162
    2    1        -0.193750        -5.2722       5.401630


  Species N                   :

  List of atomic basis orbitals and eigenvalues:
    n    l      energy [Ha]    energy [eV]    outer radius [A]
    1    0       -14.129007      -384.4699       1.637919
    2    0        -0.681802       -18.5528       5.168461
    2    1        -0.260543        -7.0897       5.361532


  Species O                   :

  List of atomic basis orbitals and eigenvalues:
    n    l      energy [Ha]    energy [eV]    outer radius [A]
    1    0       -18.898576      -514.2564       1.415765
    2    0        -0.878795       -23.9132       5.048385
    2    1        -0.332075        -9.0362       5.301386

  Assembling full basis from fixed parts.
  | Species H :   atomic orbital   1 s accepted.
  | Species H :    hydro orbital   2 s accepted.
  | Species H :    hydro orbital   1 s accepted.
  | Species H :    hydro orbital   2 s accepted.
  | Species H :    hydro orbital   2 p accepted.
  | Species H :    hydro orbital   2 p accepted.
  | Species H :    hydro orbital   3 d accepted.
  | Species C :   atomic orbital   1 s accepted.
  | Species C :    hydro orbital   2 s accepted.
  | Species C :   atomic orbital   2 s accepted.
  | Species C :    hydro orbital   3 s accepted.
  | Species C :    hydro orbital   3 p accepted.
  | Species C :   atomic orbital   2 p accepted.
  | Species C :    hydro orbital   2 p accepted.
  | Species C :    hydro orbital   3 d accepted.
  | Species C :    hydro orbital   3 d accepted.
  | Species C :    hydro orbital   4 f accepted.
  | Species C :    hydro orbital   5 g accepted.
  | Species N :   atomic orbital   1 s accepted.
  | Species N :    hydro orbital   3 s accepted.
  | Species N :   atomic orbital   2 s accepted.
  | Species N :    hydro orbital   1 s accepted.
  | Species N :    hydro orbital   3 p accepted.
  | Species N :   atomic orbital   2 p accepted.
  | Species N :    hydro orbital   2 p accepted.
  | Species N :    hydro orbital   3 d accepted.
  | Species N :    hydro orbital   3 d accepted.
  | Species N :    hydro orbital   4 f accepted.
  | Species N :    hydro orbital   5 g accepted.
  | Species O :   atomic orbital   1 s accepted.
  | Species O :    hydro orbital   3 s accepted.
  | Species O :   atomic orbital   2 s accepted.
  | Species O :    hydro orbital   1 s accepted.
  | Species O :    hydro orbital   3 p accepted.
  | Species O :   atomic orbital   2 p accepted.
  | Species O :    hydro orbital   2 p accepted.
  | Species O :    hydro orbital   3 d accepted.
  | Species O :    hydro orbital   3 d accepted.
  | Species O :    hydro orbital   4 f accepted.
  | Species O :    hydro orbital   5 g accepted.
 
  Basis size parameters after reduction:
  | Total number of radial functions:       40
  | Total number of basis functions :      840
 
  Testing on-site integration grid accuracy.
  |  Species  Function  <phi|h_atom|phi> (log., in eV)  <phi|h_atom|phi> (rad., in eV)
           1        1                 -6.4869821809                 -6.4870742227
           1        2                 13.5044133542                 13.5041049177
           1        3                 32.7854418792                 32.7779770519
           1        4                 33.7995553101                 33.7152624900 ***
           1        5                 28.8558651799                 28.8558652046
           1        6                 59.6361831893                 59.6362535845
           1        7                 60.2733718049                 60.2733715484
           2        8               -273.2358277112               -273.2358261765
           2        9                -10.7624923123                -10.7625144012
           2       10                 17.4634079027                 17.4634252127
           2       11                 53.0363661832                 53.0366180446
           2       12                 15.0981351967                 15.0981317714
           2       13                  3.8522181899                  3.8522770949
           2       14                 12.1181835661                 12.1206868578
           2       15                 29.4320778347                 29.4320780959
           2       16                 54.8753777694                 54.8752901936
           2       17                 59.3533975461                 59.3533974833
           2       18                 93.4537491195                 93.4537492066
           3       19               -384.4698526889               -384.4698499465
           3       20                 12.5691022037                 12.5690910168
           3       21                -15.7489097511                -15.7489165588
           3       22                 27.0978334940                 27.0985589490
           3       23                 18.5949116966                 18.5949125562
           3       24                  1.2212828291                  1.2212855301
           3       25                 13.4428926797                 13.4434051125
           3       26                 35.9380614500                 35.9380613666
           3       27                 39.9231532098                 39.9231654735
           3       28                 72.9957335806                 72.9957336833
           3       29                116.4231321147                116.4231321431
           4       30               -514.2564144315               -514.2564099626
           4       31                 15.1726678541                 15.1726530877
           4       32                -21.5447785304                -21.5447874973
           4       33                 14.4944558459                 14.4944698284
           4       34                 20.8882174564                 20.8882178906
           4       35                 -2.4850315908                 -2.4850322289
           4       36                 13.8600193195                 13.8599826966
           4       37                 45.8243383616                 45.8243383675
           4       38                 52.1840606465                 52.1840622440
           4       39                 85.4074185510                 85.4074185819
           4       40                142.0983717302                142.0983717339
 * Note: Onsite integrals marked "***" above are less accurate than
 * onsite_accuracy_threshold =    0.03000 eV. Usually, this is harmless.
 * When in doubt, tighten the "radial" and/or "radial_multiplier" flags to check.

  Preparing densities etc. for the partition functions (integrals / Hartree potential).

  Preparations completed.
  max(cpu_time)          :      0.236 s.
  Wall clock time (cpu1) :      0.233 s.
------------------------------------------------------------

------------------------------------------------------------
          Begin self-consistency loop: Initialization.

          Date     :  20170309, Time     :  183026.670
------------------------------------------------------------

  Initializing index lists of integration centers etc. from given atomic structure:
  | Number of centers in hartree potential         :        32
  | Number of centers in hartree multipole         :        32
  | Number of centers in electron density summation:        32
  | Number of centers in basis integrals           :        32
  | Number of centers in integrals                 :        32
  | Number of centers in hamiltonian               :        32
  Using modified Scalapack Eigenvalue solver (ELPA)
  * Using 32 tasks for Scalapack Eigenvalue solver.
  Detailed listing of tasks and assigned k-points:
  (for non-periodic systems, the "k-point" denotes an internal label only)
   Task     0 k-point     1 on eos366
   Task     1 k-point     1 on eos366
   Task     2 k-point     1 on eos366
   Task     3 k-point     1 on eos366
   Task     4 k-point     1 on eos366
   Task     5 k-point     1 on eos366
   Task     6 k-point     1 on eos366
   Task     7 k-point     1 on eos366
   Task     8 k-point     1 on eos366
   Task     9 k-point     1 on eos366
   Task    10 k-point     1 on eos366
   Task    11 k-point     1 on eos366
   Task    12 k-point     1 on eos366
   Task    13 k-point     1 on eos366
   Task    14 k-point     1 on eos366
   Task    15 k-point     1 on eos366
   Task    16 k-point     1 on eos366
   Task    17 k-point     1 on eos366
   Task    18 k-point     1 on eos366
   Task    19 k-point     1 on eos366
   Task    20 k-point     1 on eos366
   Task    21 k-point     1 on eos366
   Task    22 k-point     1 on eos366
   Task    23 k-point     1 on eos366
   Task    24 k-point     1 on eos366
   Task    25 k-point     1 on eos366
   Task    26 k-point     1 on eos366
   Task    27 k-point     1 on eos366
   Task    28 k-point     1 on eos366
   Task    29 k-point     1 on eos366
   Task    30 k-point     1 on eos366
   Task    31 k-point     1 on eos366
  Tasks:    32 split into      8 X      4 BLACS grid
  Calculating blocksize based on n_basis =          840 max_nprow =            8 max_npcol =            4
  Scalapack blocksize set to:           16
  Required Scalapack workspace - INTEGER:            1 REAL:             1
  Partitioning the integration grid into batches with parallel hashing+maxmin method.
  | Number of batches:     5225
  | Maximal batch size:     200
  | Minimal batch size:      15
  | Average batch size:     101.001
  | Standard deviation of batch sizes:      25.117

  Integration load balanced across    32 MPI tasks.
  Work distribution over tasks is as follows:
  Task     0 has      16435 integration points.
  Task     1 has      16457 integration points.
  Task     2 has      16458 integration points.
  Task     3 has      16441 integration points.
  Task     4 has      16457 integration points.
  Task     5 has      16427 integration points.
  Task     6 has      16536 integration points.
  Task     7 has      16469 integration points.
  Task     8 has      16418 integration points.
  Task     9 has      16473 integration points.
  Task    10 has      16454 integration points.
  Task    11 has      16587 integration points.
  Task    12 has      16581 integration points.
  Task    13 has      16408 integration points.
  Task    14 has      16435 integration points.
  Task    15 has      16606 integration points.
  Task    16 has      16434 integration points.
  Task    17 has      16411 integration points.
  Task    18 has      16572 integration points.
  Task    19 has      16581 integration points.
  Task    20 has      16466 integration points.
  Task    21 has      16477 integration points.
  Task    22 has      16539 integration points.
  Task    23 has      16586 integration points.
  Task    24 has      16453 integration points.
  Task    25 has      16596 integration points.
  Task    26 has      16589 integration points.
  Task    27 has      16601 integration points.
  Task    28 has      16411 integration points.
  Task    29 has      16443 integration points.
  Task    30 has      16473 integration points.
  Task    31 has      16454 integration points.
  Initializing partition tables, free-atom densities, potentials, etc. across the integration grid (initialize_grid_storage).
  | initialize_grid_storage: Actual outermost partition radius vs. multipole_radius_free
  | (-- VB: in principle, multipole_radius_free should be larger, hence this output)
  | Species        1: Confinement radius =              6.000000000000000 AA, multipole_radius_free =              6.071692442739658 AA.
  | Species        1: outer_partition_radius set to              6.071692442739658 AA .
  | Species        2: Confinement radius =              6.000000000000000 AA, multipole_radius_free =              6.029870734432609 AA.
  | Species        2: outer_partition_radius set to              6.029870734432609 AA .
  | Species        3: Confinement radius =              6.000000000000000 AA, multipole_radius_free =              6.058726835495003 AA.
  | Species        3: outer_partition_radius set to              6.058726835495003 AA .
  | Species        4: Confinement radius =              6.000000000000000 AA, multipole_radius_free =              6.064445521808699 AA.
  | Species        4: outer_partition_radius set to              6.064445521808699 AA .
  | Original list of interatomic distances with          32 x         32 entries is created.
  | Net number of integration points:   527728
  | of which are non-zero points    :   417086
  Obtaining max. number of non-zero basis functions in each batch (get_n_compute_maxes).
  | Maximal number of non-zero basis functions:      706 in task     0
  | Maximal number of non-zero basis functions:      711 in task     1
  | Maximal number of non-zero basis functions:      689 in task     2
  | Maximal number of non-zero basis functions:      714 in task     3
  | Maximal number of non-zero basis functions:      707 in task     4
  | Maximal number of non-zero basis functions:      707 in task     5
  | Maximal number of non-zero basis functions:      716 in task     6
  | Maximal number of non-zero basis functions:      702 in task     7
  | Maximal number of non-zero basis functions:      701 in task     8
  | Maximal number of non-zero basis functions:      705 in task     9
  | Maximal number of non-zero basis functions:      710 in task    10
  | Maximal number of non-zero basis functions:      705 in task    11
  | Maximal number of non-zero basis functions:      725 in task    12
  | Maximal number of non-zero basis functions:      714 in task    13
  | Maximal number of non-zero basis functions:      711 in task    14
  | Maximal number of non-zero basis functions:      716 in task    15
  | Maximal number of non-zero basis functions:      716 in task    16
  | Maximal number of non-zero basis functions:      711 in task    17
  | Maximal number of non-zero basis functions:      709 in task    18
  | Maximal number of non-zero basis functions:      706 in task    19
  | Maximal number of non-zero basis functions:      722 in task    20
  | Maximal number of non-zero basis functions:      704 in task    21
  | Maximal number of non-zero basis functions:      714 in task    22
  | Maximal number of non-zero basis functions:      700 in task    23
  | Maximal number of non-zero basis functions:      710 in task    24
  | Maximal number of non-zero basis functions:      712 in task    25
  | Maximal number of non-zero basis functions:      711 in task    26
  | Maximal number of non-zero basis functions:      707 in task    27
  | Maximal number of non-zero basis functions:      710 in task    28
  | Maximal number of non-zero basis functions:      708 in task    29
  | Maximal number of non-zero basis functions:      701 in task    30
  | Maximal number of non-zero basis functions:      725 in task    31
  Selecting the method for density update.
  Loop over occupied states selected for charge density update.
  Integrating Hamiltonian matrix: batch-based integration.
  Time summed over all CPUs for integration: real work       20.376 s, elapsed       21.044 s
  Integrating overlap matrix.
  Time summed over all CPUs for integration: real work       12.267 s, elapsed       12.759 s
  Deallocating overlap matrix.

  Updating Kohn-Sham eigenvalues, eigenvectors, occupation numbers, and Fermi level.
  Solving generalized eigenproblem
  Solving real symmetric generalised eigenvalue problem by standard ScaLAPACK.
  Transforming overlap matrix with ScaLAPACK and checking for singularities.
  : Overlap matrix is nonsingular, using Cholesky decomposition
  | Lowest eigenvalue:  0.976798E-04
  Factoring overlap matrix with Cholesky decomposition
  Using Cholesky factor for transformation
  Using 1-stage real ELPA solver
  Determining occupation numbers for Kohn-Sham eigenstates.
  | Chemical potential (Fermi level) in eV                 : -.95271649E+01
  | Error in electron count due to remaining E_F inaccuracy: 0.00000000E+00
  | Maximum occupation number of highest empty state:  0.00E+00

  Writing Kohn-Sham eigenvalues.

  State    Occupation    Eigenvalue [Ha]    Eigenvalue [eV]
      1       2.00000         -18.974813         -516.33093
      2       2.00000         -18.974247         -516.31553
      3       2.00000         -18.973336         -516.29073
      4       2.00000         -14.256525         -387.93979
      5       2.00000         -14.253837         -387.86664
      6       2.00000         -14.253753         -387.86436
      7       2.00000         -10.171424         -276.77853
      8       2.00000         -10.170974         -276.76627
      9       2.00000         -10.169906         -276.73723
     10       2.00000         -10.166782         -276.65222
     11       2.00000         -10.148913         -276.16598
     12       2.00000         -10.146479         -276.09974
     13       2.00000         -10.136094         -275.81715
     14       2.00000         -10.135384         -275.79783
     15       2.00000         -10.132283         -275.71344
     16       2.00000          -1.135155          -30.88913
     17       2.00000          -1.131936          -30.80154
     18       2.00000          -1.127468          -30.67996
     19       2.00000          -1.015084          -27.62184
     20       2.00000          -1.013565          -27.58050
     21       2.00000          -1.011328          -27.51964
     22       2.00000          -0.885019          -24.08260
     23       2.00000          -0.878515          -23.90560
     24       2.00000          -0.841188          -22.88989
     25       2.00000          -0.819342          -22.29544
     26       2.00000          -0.775400          -21.09970
     27       2.00000          -0.761806          -20.72979
     28       2.00000          -0.701967          -19.10149
     29       2.00000          -0.687704          -18.71339
     30       2.00000          -0.665579          -18.11132
     31       2.00000          -0.645125          -17.55474
     32       2.00000          -0.634282          -17.25970
     33       2.00000          -0.608993          -16.57154
     34       2.00000          -0.595073          -16.19276
     35       2.00000          -0.588904          -16.02490
     36       2.00000          -0.583838          -15.88704
     37       2.00000          -0.572376          -15.57514
     38       2.00000          -0.561270          -15.27293
     39       2.00000          -0.556479          -15.14256
     40       2.00000          -0.555766          -15.12317
     41       2.00000          -0.552532          -15.03516
     42       2.00000          -0.544699          -14.82201
     43       2.00000          -0.532596          -14.49267
     44       2.00000          -0.529824          -14.41724
     45       2.00000          -0.519358          -14.13246
     46       2.00000          -0.517380          -14.07863
     47       2.00000          -0.512373          -13.94238
     48       2.00000          -0.507786          -13.81756
     49       2.00000          -0.491266          -13.36803
     50       2.00000          -0.482076          -13.11795
     51       2.00000          -0.474888          -12.92236
     52       2.00000          -0.471998          -12.84372
     53       2.00000          -0.408383          -11.11267
     54       2.00000          -0.403945          -10.99189
     55       2.00000          -0.402823          -10.96136
     56       2.00000          -0.390723          -10.63212
     57       2.00000          -0.386137          -10.50733
     58       2.00000          -0.382561          -10.41001
     59       0.00000          -0.166794           -4.53870
     60       0.00000          -0.159164           -4.33108
     61       0.00000          -0.155798           -4.23948
     62       0.00000          -0.080748           -2.19727
     63       0.00000          -0.069619           -1.89442
     64       0.00000          -0.055369           -1.50667
     65       0.00000          -0.050395           -1.37132
     66       0.00000          -0.048844           -1.32910
     67       0.00000          -0.042210           -1.14860
     68       0.00000          -0.034903           -0.94975
     69       0.00000          -0.029421           -0.80060
     70       0.00000          -0.021619           -0.58827
     71       0.00000          -0.016596           -0.45160
     72       0.00000          -0.014152           -0.38508
     73       0.00000          -0.006753           -0.18376
     74       0.00000          -0.004622           -0.12578
     75       0.00000          -0.000962           -0.02616
     76       0.00000           0.000093            0.00253
     77       0.00000           0.003546            0.09650
     78       0.00000           0.006432            0.17501
     79       0.00000           0.010341            0.28139
     80       0.00000           0.013697            0.37272
     81       0.00000           0.020129            0.54773
     82       0.00000           0.026057            0.70906
     83       0.00000           0.031464            0.85619
     84       0.00000           0.034432            0.93694
     85       0.00000           0.044527            1.21163
     86       0.00000           0.045894            1.24883
     87       0.00000           0.049169            1.33795
     88       0.00000           0.052696            1.43393
     89       0.00000           0.058543            1.59303
     90       0.00000           0.068417            1.86173
     91       0.00000           0.072028            1.95999
     92       0.00000           0.077483            2.10842
     93       0.00000           0.082887            2.25546
     94       0.00000           0.094859            2.58124
     95       0.00000           0.100049            2.72246
     96       0.00000           0.105795            2.87884
     97       0.00000           0.108406            2.94987
     98       0.00000           0.114828            3.12463
     99       0.00000           0.117387            3.19428
    100       0.00000           0.119998            3.26532
    101       0.00000           0.126075            3.43068
    102       0.00000           0.134285            3.65407
    103       0.00000           0.137682            3.74651
    104       0.00000           0.145956            3.97167
    105       0.00000           0.149018            4.05498
    106       0.00000           0.150802            4.10354
    107       0.00000           0.155518            4.23185
    108       0.00000           0.160210            4.35955
    109       0.00000           0.165664            4.50794
    110       0.00000           0.172675            4.69873
    111       0.00000           0.175959            4.78808
    112       0.00000           0.178984            4.87039
    113       0.00000           0.181309            4.93368
    114       0.00000           0.187336            5.09768
    115       0.00000           0.195010            5.30649
    116       0.00000           0.199862            5.43853
    117       0.00000           0.202888            5.52085
    118       0.00000           0.207916            5.65767
    119       0.00000           0.209789            5.70864
    120       0.00000           0.220827            6.00901
    121       0.00000           0.222868            6.06454
    122       0.00000           0.225363            6.13243
    123       0.00000           0.228775            6.22529
    124       0.00000           0.232651            6.33076
    125       0.00000           0.246719            6.71357
    126       0.00000           0.248896            6.77280
    127       0.00000           0.257434            7.00514
    128       0.00000           0.258959            7.04663
    129       0.00000           0.270599            7.36336

  Highest occupied state (VBM) at    -10.41001384 eV
  | Occupation number:      2.00000000

  Lowest unoccupied state (CBM) at    -4.53869816 eV
  | Occupation number:      0.00000000

  Overall HOMO-LUMO gap:      5.87131568 eV.
  Calculating total energy contributions from superposition of free atom densities.

  Total energy components:
  | Sum of eigenvalues            :        -437.85851827 Ha      -11914.73649718 eV
  | XC energy correction          :         -98.81685206 Ha       -2688.94335637 eV
  | XC potential correction       :         127.01665367 Ha        3456.29900095 eV
  | Free-atom electrostatic energy:        -333.62567406 Ha       -9078.41649598 eV
  | Hartree energy correction     :           0.00000000 Ha           0.00000000 eV
  | vdW energy correction         :           0.00000000 Ha           0.00000000 eV
  | Entropy correction            :          -0.00000000 Ha          -0.00000000 eV
  | ---------------------------
  | Total energy                  :        -743.28439071 Ha      -20225.79734858 eV
  | Total energy, T -> 0          :        -743.28439071 Ha      -20225.79734858 eV  <-- do not rely on this value for anything but (periodic) metals
  | Electronic free energy        :        -743.28439071 Ha      -20225.79734858 eV

  Derived energy quantities:
  | Kinetic energy                :         735.15385864 Ha       20004.55431398 eV
  | Electrostatic energy          :       -1379.62139729 Ha      -37541.40830620 eV
  | Energy correction for multipole
  | error in Hartree potential    :           0.00000000 Ha           0.00000000 eV
  | Sum of eigenvalues per atom                           :        -372.33551554 eV
  | Total energy (T->0) per atom                          :        -632.05616714 eV  <-- do not rely on this value for anything but (periodic) metals
  | Electronic free energy per atom                       :        -632.05616714 eV
  Initialize hartree_potential_storage
  Max. number of atoms included in rho_multipole:           32

  End scf initialization - timings             :  max(cpu_time)    wall_clock(cpu1)
  | Time for scf. initialization               :        1.796 s           1.790 s
  | Boundary condition initialization          :        0.004 s           0.000 s
  | Integration                                :        1.084 s           1.077 s
  | Solution of K.-S. eqns.                    :        0.076 s           0.075 s
  | Grid partitioning                          :        0.320 s           0.313 s
  | Preloading free-atom quantities on grid    :        0.028 s           0.028 s
  | Free-atom superposition energy             :        0.040 s           0.037 s
  | Total energy evaluation                    :        0.000 s           0.001 s
------------------------------------------------------------

------------------------------------------------------------
          Begin self-consistency iteration #    1

  Date     :  20170309, Time     :  183028.460
------------------------------------------------------------
  Evaluating new KS density.
  Integration grid: deviation in total charge (<rho> - N_e) =   0.000000E+00
  Pulay mixing of updated and previous charge densities.

  Evaluating partitioned Hartree potential by multipole expansion.
  | Analytical far-field extrapolation by fixed multipoles:
  | Hartree multipole sum: apparent total charge =   0.954015E-04
  Summing up the Hartree potential.
  Time summed over all CPUs for potential: real work        9.506 s, elapsed        9.751 s
  | RMS charge density error from multipole expansion :   0.106668E-01

  Integrating Hamiltonian matrix: batch-based integration.
  Time summed over all CPUs for integration: real work       20.160 s, elapsed       20.922 s

  Updating Kohn-Sham eigenvalues, eigenvectors, occupation numbers, and Fermi level.
  Solving generalized eigenproblem
  Solving real symmetric generalised eigenvalue problem by standard ScaLAPACK.
  Using Cholesky factor for transformation
  Using 2-stage real ELPA solver
  K-Point:    1, Trafo times: 1-stage=     0.021 s, 2-stage=     0.019 s ==> Using 2-stage solver
  Determining occupation numbers for Kohn-Sham eigenstates.
  | Chemical potential (Fermi level) in eV                 : -.36830172E+01
  | Error in electron count due to remaining E_F inaccuracy: 0.00000000E+00
  | Maximum occupation number of highest empty state:  0.00E+00

  Writing Kohn-Sham eigenvalues.

  State    Occupation    Eigenvalue [Ha]    Eigenvalue [eV]
      1       2.00000         -18.623141         -506.76146
      2       2.00000         -18.613303         -506.49375
      3       2.00000         -18.604535         -506.25517
      4       2.00000         -13.993742         -380.78909
      5       2.00000         -13.980330         -380.42413
      6       2.00000         -13.974747         -380.27222
      7       2.00000         -10.054013         -273.58361
      8       2.00000         -10.051974         -273.52813
      9       2.00000         -10.044057         -273.31271
     10       2.00000          -9.964221         -271.14025
     11       2.00000          -9.959335         -271.00728
     12       2.00000          -9.885587         -269.00050
     13       2.00000          -9.843077         -267.84374
     14       2.00000          -9.836025         -267.65185
     15       2.00000          -9.825418         -267.36322
     16       2.00000          -0.966114          -26.28929
     17       2.00000          -0.956657          -26.03197
     18       2.00000          -0.945743          -25.73498
     19       2.00000          -0.865953          -23.56379
     20       2.00000          -0.858648          -23.36501
     21       2.00000          -0.851809          -23.17889
     22       2.00000          -0.734289          -19.98101
     23       2.00000          -0.726495          -19.76893
     24       2.00000          -0.681507          -18.54475
     25       2.00000          -0.669589          -18.22045
     26       2.00000          -0.626894          -17.05864
     27       2.00000          -0.613753          -16.70106
     28       2.00000          -0.571230          -15.54395
     29       2.00000          -0.559774          -15.23223
     30       2.00000          -0.531555          -14.46436
     31       2.00000          -0.507612          -13.81283
     32       2.00000          -0.496518          -13.51095
     33       2.00000          -0.468603          -12.75134
     34       2.00000          -0.445469          -12.12183
     35       2.00000          -0.436981          -11.89085
     36       2.00000          -0.435086          -11.83928
     37       2.00000          -0.430968          -11.72725
     38       2.00000          -0.417442          -11.35917
     39       2.00000          -0.409374          -11.13964
     40       2.00000          -0.399648          -10.87498
     41       2.00000          -0.392983          -10.69362
     42       2.00000          -0.389607          -10.60174
     43       2.00000          -0.378719          -10.30546
     44       2.00000          -0.375744          -10.22452
     45       2.00000          -0.368883          -10.03780
     46       2.00000          -0.365496           -9.94564
     47       2.00000          -0.354445           -9.64493
     48       2.00000          -0.351570           -9.56671
     49       2.00000          -0.340395           -9.26262
     50       2.00000          -0.336293           -9.15099
     51       2.00000          -0.331563           -9.02229
     52       2.00000          -0.323537           -8.80388
     53       2.00000          -0.237451           -6.46137
     54       2.00000          -0.234783           -6.38878
     55       2.00000          -0.223121           -6.07143
     56       2.00000          -0.216931           -5.90298
     57       2.00000          -0.206287           -5.61335
     58       2.00000          -0.201972           -5.49593
     59       0.00000          -0.049492           -1.34675
     60       0.00000          -0.044131           -1.20086
     61       0.00000          -0.040662           -1.10648
     62       0.00000          -0.035803           -0.97426
     63       0.00000          -0.022601           -0.61501
     64       0.00000          -0.010199           -0.27753
     65       0.00000          -0.004289           -0.11670
     66       0.00000           0.004893            0.13315
     67       0.00000           0.008920            0.24273
     68       0.00000           0.016488            0.44865
     69       0.00000           0.029446            0.80128
     70       0.00000           0.031836            0.86631
     71       0.00000           0.037093            1.00935
     72       0.00000           0.044410            1.20846
     73       0.00000           0.046717            1.27123
     74       0.00000           0.050672            1.37886
     75       0.00000           0.056145            1.52778
     76       0.00000           0.061883            1.68393
     77       0.00000           0.065526            1.78304
     78       0.00000           0.076187            2.07316
     79       0.00000           0.078232            2.12881
     80       0.00000           0.090667            2.46716
     81       0.00000           0.097499            2.65308
     82       0.00000           0.099447            2.70609
     83       0.00000           0.100544            2.73593
     84       0.00000           0.110507            3.00704
     85       0.00000           0.111850            3.04358
     86       0.00000           0.117581            3.19955
     87       0.00000           0.123601            3.36334
     88       0.00000           0.124820            3.39651
     89       0.00000           0.131762            3.58542
     90       0.00000           0.135064            3.67529
     91       0.00000           0.141713            3.85621
     92       0.00000           0.147365            4.01002
     93       0.00000           0.153346            4.17277
     94       0.00000           0.154312            4.19904
     95       0.00000           0.160748            4.37417
     96       0.00000           0.169901            4.62325
     97       0.00000           0.178692            4.86246
     98       0.00000           0.184389            5.01747
     99       0.00000           0.188112            5.11880
    100       0.00000           0.189189            5.14809
    101       0.00000           0.198300            5.39602
    102       0.00000           0.201317            5.47812
    103       0.00000           0.205041            5.57945
    104       0.00000           0.210611            5.73102
    105       0.00000           0.219394            5.97000
    106       0.00000           0.220941            6.01211
    107       0.00000           0.225069            6.12443
    108       0.00000           0.226833            6.17244
    109       0.00000           0.231490            6.29916
    110       0.00000           0.234654            6.38526
    111       0.00000           0.240413            6.54196
    112       0.00000           0.244002            6.63962
    113       0.00000           0.245631            6.68395
    114       0.00000           0.249809            6.79766
    115       0.00000           0.256996            6.99321
    116       0.00000           0.260151            7.07908
    117       0.00000           0.267947            7.29121
    118       0.00000           0.274874            7.47969
    119       0.00000           0.277442            7.54957
    120       0.00000           0.285047            7.75654
    121       0.00000           0.290764            7.91209
    122       0.00000           0.291740            7.93866
    123       0.00000           0.301005            8.19075
    124       0.00000           0.314074            8.54640
    125       0.00000           0.315439            8.58353
    126       0.00000           0.323470            8.80207
    127       0.00000           0.328030            8.92616
    128       0.00000           0.336884            9.16707
    129       0.00000           0.344479            9.37374

  Highest occupied state (VBM) at     -5.49592643 eV
  | Occupation number:      2.00000000

  Lowest unoccupied state (CBM) at    -1.34674647 eV
  | Occupation number:      0.00000000

  Overall HOMO-LUMO gap:      4.14917996 eV.

  Total energy components:
  | Sum of eigenvalues            :        -416.98198504 Ha      -11346.65712438 eV
  | XC energy correction          :        -100.75226150 Ha       -2741.60852682 eV
  | XC potential correction       :         129.52696087 Ha        3524.60793523 eV
  | Free-atom electrostatic energy:        -333.62567406 Ha       -9078.41649598 eV
  | Hartree energy correction     :         -20.87963595 Ha        -568.16380202 eV
  | vdW energy correction         :           0.00000000 Ha           0.00000000 eV
  | Entropy correction            :           0.00000000 Ha           0.00000000 eV
  | ---------------------------
  | Total energy                  :        -742.71259568 Ha      -20210.23801397 eV
  | Total energy, T -> 0          :        -742.71259568 Ha      -20210.23801397 eV  <-- do not rely on this value for anything but (periodic) metals
  | Electronic free energy        :        -742.71259568 Ha      -20210.23801397 eV

  Derived energy quantities:
  | Kinetic energy                :         744.03559265 Ha       20246.23859331 eV
  | Electrostatic energy          :       -1385.99592683 Ha      -37714.86808046 eV
  | Energy correction for multipole
  | error in Hartree potential    :          -0.04168606 Ha          -1.13433530 eV
  | Sum of eigenvalues per atom                           :        -354.58303514 eV
  | Total energy (T->0) per atom                          :        -631.56993794 eV  <-- do not rely on this value for anything but (periodic) metals
  | Electronic free energy per atom                       :        -631.56993794 eV

  Self-consistency convergence accuracy:
  | Change of charge density      :  0.9027E+00
  | Change of sum of eigenvalues  :  0.5681E+03 eV
  | Change of total energy        :  0.1556E+02 eV

  End self-consistency iteration #     1       :  max(cpu_time)    wall_clock(cpu1)
  | Time for this iteration                    :        1.480 s           1.475 s
  | Charge density update                      :        0.468 s           0.463 s
[...]
   ----------------------------------------------------------------
   Total forces(  20)            : -0.853296E-03  0.651009E-03 -0.117604E-02
  atom #   21
   Hellmann-Feynman              :  0.308204E-01 -0.327963E-01 -0.171074E-01
   Ionic forces                  :  0.000000E+00  0.000000E+00  0.000000E+00
   Multipole                     :  0.115166E-02 -0.190769E-02  0.107531E-01
   Pulay + GGA                   : -0.362076E-01  0.437729E-01  0.881918E-02
   Van der Waals                 :  0.358524E-02 -0.733750E-02 -0.738429E-03
   ----------------------------------------------------------------
   Total forces(  21)            : -0.650289E-03  0.173145E-02  0.172640E-02
  atom #   22
   Hellmann-Feynman              : -0.365886E-01  0.364475E-01 -0.444459E-01
   Ionic forces                  :  0.000000E+00  0.000000E+00  0.000000E+00
   Multipole                     :  0.137587E-01  0.708455E-02 -0.968976E-02
   Pulay + GGA                   :  0.282769E-01 -0.442545E-01  0.476762E-01
   Van der Waals                 : -0.434667E-02  0.395816E-06  0.751930E-02
   ----------------------------------------------------------------
   Total forces(  22)            :  0.110030E-02 -0.721984E-03  0.105992E-02
  atom #   23
   Hellmann-Feynman              :  0.803227E+00  0.451935E+00 -0.817257E+00
   Ionic forces                  :  0.000000E+00  0.000000E+00  0.000000E+00
   Multipole                     : -0.221792E+00 -0.250490E+00  0.131589E+00
   Pulay + GGA                   : -0.591170E+00 -0.191209E+00  0.693666E+00
   Van der Waals                 :  0.137250E-01 -0.876212E-02 -0.102317E-01
   ----------------------------------------------------------------
   Total forces(  23)            :  0.398936E-02  0.147321E-02 -0.223346E-02
  atom #   24
   Hellmann-Feynman              : -0.325377E-01 -0.916387E-02 -0.154620E-01
   Ionic forces                  :  0.000000E+00  0.000000E+00  0.000000E+00
   Multipole                     : -0.811715E-02  0.979698E-02 -0.301389E-01
   Pulay + GGA                   :  0.385208E-01  0.176556E-02  0.532729E-01
   Van der Waals                 :  0.253460E-02 -0.181208E-02 -0.707081E-02
   ----------------------------------------------------------------
   Total forces(  24)            :  0.400457E-03  0.586583E-03  0.601117E-03
  atom #   25
   Hellmann-Feynman              : -0.165944E-01 -0.444131E-01  0.222784E-01
   Ionic forces                  :  0.000000E+00  0.000000E+00  0.000000E+00
   Multipole                     :  0.293097E-01 -0.943843E-02 -0.423424E-02
   Pulay + GGA                   : -0.154893E-01  0.581841E-01 -0.177459E-01
   Van der Waals                 :  0.237240E-02 -0.402796E-02 -0.162191E-02
   ----------------------------------------------------------------
   Total forces(  25)            : -0.401652E-03  0.304597E-03 -0.132369E-02
  atom #   26
   Hellmann-Feynman              : -0.277207E-01 -0.174673E-02  0.177008E-02
   Ionic forces                  :  0.000000E+00  0.000000E+00  0.000000E+00
   Multipole                     :  0.103000E-01  0.298747E-01  0.155721E-01
   Pulay + GGA                   :  0.179900E-01 -0.283554E-01 -0.140770E-01
   Van der Waals                 : -0.372487E-03 -0.611084E-03 -0.338591E-02
   ----------------------------------------------------------------
   Total forces(  26)            :  0.196885E-03 -0.838465E-03 -0.120722E-03
  atom #   27
   Hellmann-Feynman              : -0.354857E+00 -0.978512E+00 -0.767792E+00
   Ionic forces                  :  0.000000E+00  0.000000E+00  0.000000E+00
   Multipole                     : -0.119445E+00  0.734138E-01 -0.178352E+00
   Pulay + GGA                   :  0.479252E+00  0.908204E+00  0.949267E+00
   Van der Waals                 : -0.488066E-02 -0.233659E-02 -0.288221E-02
   ----------------------------------------------------------------
   Total forces(  27)            :  0.699051E-04  0.768619E-03  0.241293E-03
  atom #   28
   Hellmann-Feynman              : -0.952676E+00  0.145975E+01  0.168342E+01
   Ionic forces                  :  0.000000E+00  0.000000E+00  0.000000E+00
   Multipole                     :  0.458589E-01 -0.117472E+00 -0.130481E+00
   Pulay + GGA                   :  0.900134E+00 -0.133587E+01 -0.154480E+01
   Van der Waals                 :  0.601371E-02 -0.480910E-02 -0.573755E-02
   ----------------------------------------------------------------
   Total forces(  28)            : -0.668490E-03  0.160355E-02  0.240918E-02
  atom #   29
   Hellmann-Feynman              : -0.314132E-01  0.157843E-01 -0.159003E-01
   Ionic forces                  :  0.000000E+00  0.000000E+00  0.000000E+00
   Multipole                     : -0.206001E-01  0.245982E-01  0.232094E-01
   Pulay + GGA                   :  0.516031E-01 -0.402980E-01 -0.254583E-02
   Van der Waals                 : -0.199242E-03 -0.200417E-02 -0.690001E-02
   ----------------------------------------------------------------
   Total forces(  29)            : -0.609510E-03 -0.191968E-02 -0.213666E-02
  atom #   30
   Hellmann-Feynman              :  0.426582E-02 -0.100273E-02 -0.513343E-01
   Ionic forces                  :  0.000000E+00  0.000000E+00  0.000000E+00
   Multipole                     :  0.386758E-02  0.319922E-01 -0.698604E-02
   Pulay + GGA                   : -0.508215E-02 -0.317770E-01  0.602949E-01
   Van der Waals                 : -0.341338E-02  0.681715E-03 -0.226522E-02
   ----------------------------------------------------------------
   Total forces(  30)            : -0.362122E-03 -0.105769E-03 -0.290599E-03
  atom #   31
   Hellmann-Feynman              :  0.249844E-01 -0.420604E-01 -0.526077E-01
   Ionic forces                  :  0.000000E+00  0.000000E+00  0.000000E+00
   Multipole                     :  0.224124E-01  0.774551E-02  0.449562E-01
   Pulay + GGA                   : -0.500684E-01  0.353901E-01  0.620606E-02
   Van der Waals                 :  0.206998E-02 -0.982852E-03  0.744719E-03
   ----------------------------------------------------------------
   Total forces(  31)            : -0.601568E-03  0.922734E-04 -0.700683E-03
  atom #   32
   Hellmann-Feynman              : -0.148293E-01 -0.299620E-01 -0.406038E-01
   Ionic forces                  :  0.000000E+00  0.000000E+00  0.000000E+00
   Multipole                     : -0.283256E-01 -0.162349E-01  0.162296E-01
   Pulay + GGA                   :  0.452767E-01  0.441403E-01  0.271098E-01
   Van der Waals                 : -0.203891E-02  0.187689E-02 -0.319000E-02
   ----------------------------------------------------------------
   Total forces(  32)            :  0.829095E-04 -0.179643E-03 -0.454385E-03

  Timings for VdW correction (Tkatchenko-Scheffler 2009 or later):
  | CPU time:        0.120 s, Wall clock time:        0.118 s.
  Removing unitary transformations (pure translations, rotations) from forces on atoms.
  Atomic forces before filtering:
  | Net force on center of mass :  -0.234053E-03 -0.898389E-04  0.274573E-03 eV/A
  | Net torque on center of mass:  -0.627399E-03 -0.988919E-03 -0.117762E-02 eV
  Atomic forces after filtering:
  | Net force on center of mass :   0.237381E-17  0.805789E-18 -0.209070E-17 eV/A
  | Net torque on center of mass:  -0.820542E-17  0.455217E-18  0.184392E-18 eV

  Energy and forces in a compact form:
  | Total energy uncorrected      :         -0.202085230486626E+05 eV
  | Total energy corrected        :         -0.202085230486626E+05 eV  <-- do not rely on this value for anything but (periodic) metals
  | Electronic free energy        :         -0.202085230486626E+05 eV
  Total atomic forces (unitary forces cleaned) [eV/Ang]:
  |   1          0.547623290139505E-03          0.887469117345501E-03          0.100136033231701E-02
  |   2         -0.210467739402505E-02         -0.873081587843648E-03         -0.273128208925005E-02
  |   3          0.164553183812875E-02          0.178542894442185E-02          0.266859673463437E-02
  |   4         -0.225418567709297E-03         -0.244149064175640E-03          0.501295678687279E-03
  |   5          0.270819800605902E-03         -0.418451493233882E-04          0.497904761235128E-03
  |   6         -0.100962633607430E-03          0.599398590143853E-03          0.224638360030455E-03
  |   7         -0.613014675671876E-03         -0.828274588701391E-03         -0.229935959791361E-04
  |   8         -0.191994664011850E-02          0.142975102356658E-02         -0.265108308745544E-02
  |   9         -0.960700049716359E-03          0.117150335628175E-02         -0.428058652230982E-03
  |  10         -0.133110535705073E-03          0.389512999424690E-06         -0.840235026403098E-04
  |  11         -0.607169751633113E-03         -0.405444984082774E-03         -0.310939007748932E-04
  |  12          0.130052139854137E-04         -0.546778220398487E-03          0.107660636251605E-02
  |  13          0.254315213684592E-02         -0.353972602009024E-03          0.383037618896503E-02
  |  14          0.402801396585005E-03         -0.416539219694204E-03         -0.485937495254230E-03
  |  15          0.708297411952778E-03         -0.121627432086378E-04         -0.847920590263899E-03
  |  16         -0.139659052803980E-03         -0.634513551758172E-03         -0.125057916302502E-02
  |  17          0.171709791983581E-02         -0.298821436341830E-02          0.432685715746122E-04
  |  18         -0.474842855346605E-02         -0.397196401443072E-03          0.112839346750802E-02
  |  19          0.198151708748799E-02         -0.158852012269899E-02          0.557037382386027E-04
  |  20         -0.861841969777276E-03          0.625754479011505E-03         -0.116800042895261E-02
  |  21         -0.658059197916865E-03          0.170428257008508E-02          0.173559353885595E-02
  |  22          0.112392063893718E-02         -0.716026762340812E-03          0.104958704354715E-02
  |  23          0.397740400294103E-02          0.148953115989565E-02         -0.225026153213780E-02
  |  24          0.391588807170477E-03          0.614871605670446E-03          0.577199368445593E-03
  |  25         -0.431085566880572E-03          0.314896587352005E-03         -0.133703258381353E-02
  |  26          0.185686969938963E-03         -0.815931793937050E-03         -0.141223348569326E-03
  |  27          0.842463442055430E-04          0.768053643946538E-03          0.234782006430163E-03
  |  28         -0.656347553321815E-03          0.159704262024745E-02          0.240619705289823E-02
  |  29         -0.585840469470339E-03         -0.190787940377735E-02         -0.215047642555082E-02
  |  30         -0.332897000140029E-03         -0.114968001147227E-03         -0.291837642879788E-03
  |  31         -0.599514677693219E-03          0.719334821784097E-04         -0.695490346964141E-03
  |  32          0.859814308965747E-04         -0.174808133187881E-03         -0.464208820141655E-03

  ------------------------------------ 
  Start decomposition of the XC Energy 
  ------------------------------------ 
  Hartree-Fock part   :          0.000000000 Ha              0.000000000 eV
  ------------------------------------ 
  X Energy            :        -96.986330264 Ha          -2639.132324047 eV
  C Energy GGA        :         -3.869060779 Ha           -105.282500516 eV
  Total XC Energy     :       -100.855391043 Ha          -2744.414824563 eV
  LDA X and C from self-consistent density 
  X Energy LDA        :        -88.003573621 Ha          -2394.699079171 eV
  C Energy LDA        :         -7.532172129 Ha           -204.960831927 eV
  ------------------------------------ 
  End decomposition of the XC Energy 
  ------------------------------------ 
   
  ESP charge fitting starts.
  | Calculation :  00000001  of  00000001
  | Full density
  Computing multipole expansion for total density.
  Generating points for esp charges.
  Partitioning the integration grid into batches with parallel hashing+maxmin method.
  | Number of batches:     3935
  | Maximal batch size:     188
  | Minimal batch size:      52
  | Average batch size:     123.818
  | Standard deviation of batch sizes:      15.381

  Integration load balanced across    32 MPI tasks.
  Work distribution over tasks is as follows:
  Initializing partition tables, free-atom densities, potentials, etc. across the integration grid (initialize_grid_storage).
  | Original list of interatomic distances with          32 x         32 entries is created.
  | Net number of integration points:   487225
  | of which are non-zero points    :   487225
  Summing up potential from multipole expanded  density.
  Summing up the Hartree potential.
  Time summed over all CPUs for potential: real work        6.339 s, elapsed        6.612 s
  Fitting esp charges to potential.
  |
  | ESP charges fitted to the electrostatic potential :
  |
  | Atom         1: C, ESP charge:      0.82070224
  |
  | Atom         2: C, ESP charge:     -0.91537148
  |
  | Atom         3: O, ESP charge:      0.64754585
  |
  | Atom         4: H, ESP charge:     -0.19562572
  |
  | Atom         5: H, ESP charge:     -0.22380917
  |
  | Atom         6: H, ESP charge:     -0.22974648
  |
  | Atom         7: N, ESP charge:      0.64268145
  |
  | Atom         8: C, ESP charge:     -0.16783908
  |
  | Atom         9: C, ESP charge:     -0.41076241
  |
  | Atom        10: O, ESP charge:      0.51316453
  |
  | Atom        11: H, ESP charge:     -0.32540604
  |
  | Atom        12: H, ESP charge:     -0.11819527
  |
  | Atom        13: C, ESP charge:      0.44678148
  |
  | Atom        14: H, ESP charge:     -0.13442794
  |
  | Atom        15: H, ESP charge:     -0.18578462
  |
  | Atom        16: H, ESP charge:     -0.12274459
  |
  | Atom        17: N, ESP charge:      0.54067730
  |
  | Atom        18: C, ESP charge:     -0.46016666
  |
  | Atom        19: C, ESP charge:     -0.46539105
  |
  | Atom        20: O, ESP charge:      0.51783019
  |
  | Atom        21: H, ESP charge:     -0.31733731
  |
  | Atom        22: H, ESP charge:      0.20716096
  |
  | Atom        23: C, ESP charge:      0.31451908
  |
  | Atom        24: H, ESP charge:     -0.02483900
  |
  | Atom        25: H, ESP charge:     -0.08201446
  |
  | Atom        26: H, ESP charge:     -0.18423566
  |
  | Atom        27: N, ESP charge:      0.28925976
  |
  | Atom        28: C, ESP charge:      0.50808156
  |
  | Atom        29: H, ESP charge:     -0.32507553
  |
  | Atom        30: H, ESP charge:     -0.16967771
  |
  | Atom        31: H, ESP charge:     -0.22181545
  |
  | Atom        32: H, ESP charge:     -0.16813877

  RRMS:       0.00312463

  Done.

------------------------------------------------------------------------------
  Final output of selected total energy values:

  The following output summarizes some interesting total energy values
  at the end of a run (AFTER all relaxation, molecular dynamics, etc.).

  | Total energy of the DFT / Hartree-Fock s.c.f. calculation      :         -20208.523048663 eV
  | Final zero-broadening corrected energy (caution - metals only) :         -20208.523048663 eV
  | For reference only, the value of 1 Hartree used in FHI-aims is :             27.211384500 eV

  Before relying on these values, please be sure to understand exactly which
  total energy value is referred to by a given number. Different objects may
  all carry the same name 'total energy'. Definitions:

  Total energy of the DFT / Hartree-Fock s.c.f. calculation:
  | Note that this energy does not include ANY quantities calculated after the
  | s.c.f. cycle, in particular not ANY RPA, MP2, etc. many-body perturbation terms.

  Final zero-broadening corrected energy:
  | For metallic systems only, a broadening of the occupation numbers at the Fermi
  | level can be extrapolated back to zero broadening by an electron-gas inspired
  | formula. For all systems that are not real metals, this value can be
  | meaningless and should be avoided.

------------------------------------------------------------------------------
  Methods described in the following list of references were used in this FHI-aims run.
  If you publish the results, please make sure to cite these reference if they apply.
  FHI-aims is an academic code, and for our developers (often, Ph.D. students
  and postdocs), scientific credit in the community is essential.
  Thank you for helping us!

  For any use of FHI-aims, please cite:

    Volker Blum, Ralf Gehrke, Felix Hanke, Paula Havu, Ville Havu,
    Xinguo Ren, Karsten Reuter, and Matthias Scheffler
    'Ab initio molecular simulations with numeric atom-centered orbitals'
    Computer Physics Communications 180, 2175-2196 (2009)
    http://dx.doi.org/10.1016/j.cpc.2009.06.022


  The scalable eigensolver library ELPA was used in your run.
  ELPA is essential especially for large systems on hundreds or thousands of CPUs.
  For ELPA, please cite:

    Andreas Marek, Volker Blum, Rainer Johanni, Ville Havu, Bruno Lang,
    Thomas Auckenthaler, Alexander Heinecke, Hans-Joachim Bungartz, and Hermann Lederer,
    'The ELPA Library - Scalable Parallel Eigenvalue Solutions
    for Electronic Structure Theory and Computational Science'
    The Journal of Physics: Condensed Matter 26, 213201 (2014).
    http://dx.doi.org/10.1088/0953-8984/26/21/213201


  For ELPA's efficient two-stage tridiagonalization used in your run, please cite:

    T. Auckenthaler, V. Blum, H.-J. Bungartz, T. Huckle, R. Johanni, L. Kraemer,
    B. Lang, H. Lederer, and P. R. Willems,
    'Parallel solution of partial symmetric eigenvalue problems'
    'from  electronic structure calculations'
    Parallel Computing 37, 783-794 (2011).
    http://dx.doi.org/10.1016/j.parco.2011.05.002


  For the real-space grid partitioning and parallelization used in this calculation, please cite:

    Ville Havu, Volker Blum, Paula Havu, and Matthias Scheffler,
    'Efficient O(N) integration for all-electron electronic structure calculation'
    'using numerically tabulated basis functions'
    Journal of Computational Physics 228, 8367-8379 (2009).
    http://dx.doi.org/10.1016/j.jcp.2009.08.008

  Of course, there are many other important community references, e.g., those cited in the
  above references. Our list is limited to references that describe implementations in the
  FHI-aims code. The reason is purely practical (length of this list) - please credit others as well.

------------------------------------------------------------
          Leaving FHI-aims.
          Date     :  20170309, Time     :  183055.213

          Computational steps:
          | Number of self-consistency cycles          :           14

          Detailed time accounting                     :  max(cpu_time)    wall_clock(cpu1)
          | Total time                                 :       29.454 s          29.606 s
          | Preparation time                           :        0.236 s           0.233 s
          | Grid partitioning                          :        0.320 s           0.313 s
          | Preloading free-atom quantities on grid    :        0.028 s           0.028 s
          | Free-atom superposition energy             :        0.040 s           0.037 s
          | Total time for integrations                :       10.381 s          10.355 s
          | Total time for solution of K.-S. equations :        0.532 s           0.501 s
          | Total time for density & force components  :        9.245 s           9.209 s
          | Total time for mixing                      :        0.124 s           0.106 s
          | Total time for Hartree multipole update    :        0.060 s           0.057 s
          | Total time for Hartree multipole sum       :        6.444 s           6.418 s
          | Total time for total energy evaluation     :        0.024 s           0.019 s
          | Total time for vdW correction              :        0.120 s           0.118 s

          Have a nice day.
------------------------------------------------------------
