  MPI-parallelism will be employed.
------------------------------------------------------------
          Invoking FHI-aims ...
          Version 150427
          Git rev.: 9dd23e0 BL: Update Version stamp
          Compiled on 2015/11/03 at 22:05:20 on host eos03.

          When using FHI-aims, please cite the following reference:

          Volker Blum, Ralf Gehrke, Felix Hanke, Paula Havu,
          Ville Havu, Xinguo Ren, Karsten Reuter, and Matthias Scheffler,
          'Ab Initio Molecular Simulations with Numeric Atom-Centered Orbitals: FHI-aims',
          Computer Physics Communications 180, 2175-2196 (2009)

          For any questions about FHI-aims, please visit the aimsclub website
          with its forums and wiki. Contributions to both the forums and the
          wiki are warmly encouraged - they are for you, and everyone is welcome there.

------------------------------------------------------------

  Date     :  20170309, Time     :  185810.478
  Time zero on CPU 1             :   0.396024000000000E+00  s.
  Internal wall clock time zero  :           258317890.478  s.

  Using       32 parallel tasks.
  Task        0 on host eos366 reporting.
  Task        1 on host eos366 reporting.
  Task        2 on host eos366 reporting.
  Task        3 on host eos366 reporting.
  Task        4 on host eos366 reporting.
  Task        5 on host eos366 reporting.
  Task        6 on host eos366 reporting.
  Task        7 on host eos366 reporting.
  Task        8 on host eos366 reporting.
  Task        9 on host eos366 reporting.
  Task       10 on host eos366 reporting.
  Task       11 on host eos366 reporting.
  Task       12 on host eos366 reporting.
  Task       13 on host eos366 reporting.
  Task       14 on host eos366 reporting.
  Task       15 on host eos366 reporting.
  Task       16 on host eos366 reporting.
  Task       17 on host eos366 reporting.
  Task       18 on host eos366 reporting.
  Task       19 on host eos366 reporting.
  Task       20 on host eos366 reporting.
  Task       21 on host eos366 reporting.
  Task       22 on host eos366 reporting.
  Task       23 on host eos366 reporting.
  Task       24 on host eos366 reporting.
  Task       25 on host eos366 reporting.
  Task       26 on host eos366 reporting.
  Task       27 on host eos366 reporting.
  Task       28 on host eos366 reporting.
  Task       29 on host eos366 reporting.
  Task       30 on host eos366 reporting.
  Task       31 on host eos366 reporting.

  Performing system and environment tests:
  | Environment variable OMP_NUM_THREADS correctly set to 1.
  | Stacksize not measured: no C compiler
  | Checking for scalapack...
  | Testing pdtran()...
  | All pdtran() tests passed.

  Obtaining array dimensions for all initial allocations:
  
  -----------------------------------------------------------------------
  Parsing control.in (first pass over file, find array dimensions only).
  The contents of control.in will be repeated verbatim below
  unless switched off by setting 'verbatim_writeout .false.' .
  in the first line of control.in .
  -----------------------------------------------------------------------
  
  #########################################################################################
  #
  # Input for System
  #
  #########################################################################################
  #
  #
  #  Physical model
  #
    xc                 pbe
    vdw_correction_hirshfeld
    spin               none
    charge             0.
  #
  #  SCF convergence
  #
    occupation_type    gaussian 0.05
    mixer              pulay
      n_max_pulay        10
      charge_mix_param   0.5
    sc_accuracy_rho    1E-4
    sc_accuracy_eev    1E-2
    sc_accuracy_etot   1E-5
    sc_accuracy_forces 1E-4
    sc_iter_limit      1000
  #
  #  ESP charge
  #
    output esp
    esp equal_grid_n 80 80 80
  #
  #
  ################################################################################
  #
  #  FHI-aims code project
  # Volker Blum, Fritz Haber Institute Berlin, 2009
  #
  #  Suggested "tight" defaults for H atom (to be pasted into control.in file)
  #
  ################################################################################
    species        H
  #     global species definitions
      nucleus             1
      mass                1.00794
  #
      l_hartree           6
  #
      cut_pot             4.0  2.0  1.0
      basis_dep_cutoff    1e-4
  #
      radial_base         24 7.0
      radial_multiplier   2
      angular_grids       specified
        division   0.1930   50
        division   0.3175  110
        division   0.4293  194
        division   0.5066  302
        division   0.5626  434
  #      division   0.5922  590
  #      division   0.6227  974
  #      division   0.6868 1202
  #      outer_grid  770
        outer_grid  434
  ################################################################################
  #
  #  Definition of "minimal" basis
  #
  ################################################################################
  #     valence basis states
      valence      1  s   1.
  #     ion occupancy
      ion_occ      1  s   0.5
  ################################################################################
  #
  #  Suggested additional basis functions. For production calculations,
  #  uncomment them one after another (the most important basis functions are
  #  listed first).
  #
  #  Basis constructed for dimers: 0.5 A, 0.7 A, 1.0 A, 1.5 A, 2.5 A
  #
  ################################################################################
  #  "First tier" - improvements: -1014.90 meV to -62.69 meV
       hydro 2 s 2.1
       hydro 2 p 3.5
  #  "Second tier" - improvements: -12.89 meV to -1.83 meV
       hydro 1 s 0.85
       hydro 2 p 3.7
       hydro 2 s 1.2
       hydro 3 d 7
  #  "Third tier" - improvements: -0.25 meV to -0.12 meV
  #     hydro 4 f 11.2
  #     hydro 3 p 4.8
  #     hydro 4 d 9
  #     hydro 3 s 3.2
  ################################################################################
  #
  # For methods that use the localized form of the "resolution of identity" for
  # the two-electron Coulomb operator (RI_method LVL), particularly Hartree-Fock and
  # hybrid density functional calculations, the highest accuracy can be obtained by
  # uncommenting the line beginning with "for_aux"  below, thus adding an extra g radial
  # function to the construction of the product basis set for the expansion.
  # See Ref. New J. Phys. 17, 093020 (2015) for more information, particularly Figs. 1 and 6.
  #
  ################################################################################
  #
  # for_aux hydro 5 g 6.0
  ################################################################################
  #
  #  FHI-aims code project
  # Volker Blum, Fritz Haber Institute Berlin, 2009
  #
  #  Suggested "tight" defaults for C atom (to be pasted into control.in file)
  #
  ################################################################################
    species        C
  #     global species definitions
      nucleus             6
      mass                12.0107
  #
      l_hartree           6
  #
      cut_pot             4.0  2.0  1.0
      basis_dep_cutoff    1e-4
  #
      radial_base         34 7.0
      radial_multiplier   2
      angular_grids specified
        division   0.2187   50
        division   0.4416  110
        division   0.6335  194
        division   0.7727  302
        division   0.8772  434
  #      division   0.9334  590
  #      division   0.9924  770
  #      division   1.0230  974
  #      division   1.5020 1202
  #     outer_grid  974
        outer_grid  434
  ################################################################################
  #
  #  Definition of "minimal" basis
  #
  ################################################################################
  #     valence basis states
      valence      2  s   2.
      valence      2  p   2.
  #     ion occupancy
      ion_occ      2  s   1.
      ion_occ      2  p   1.
  ################################################################################
  #
  #  Suggested additional basis functions. For production calculations,
  #  uncomment them one after another (the most important basis functions are
  #  listed first).
  #
  #  Constructed for dimers: 1.0 A, 1.25 A, 1.5 A, 2.0 A, 3.0 A
  #
  ################################################################################
  #  "First tier" - improvements: -1214.57 meV to -155.61 meV
       hydro 2 p 1.7
       hydro 3 d 6
       hydro 2 s 4.9
  #  "Second tier" - improvements: -67.75 meV to -5.23 meV
       hydro 4 f 9.8
       hydro 3 p 5.2
       hydro 3 s 4.3
       hydro 5 g 14.4
       hydro 3 d 6.2
  #  "Third tier" - improvements: -2.43 meV to -0.60 meV
  #     hydro 2 p 5.6
  #     hydro 2 s 1.4
  #     hydro 3 d 4.9
  #     hydro 4 f 11.2
  #  "Fourth tier" - improvements: -0.39 meV to -0.18 meV
  #     hydro 2 p 2.1
  #     hydro 5 g 16.4
  #     hydro 4 d 13.2
  #     hydro 3 s 13.6
  #     hydro 4 f 17.6
  #  Further basis functions - improvements: -0.08 meV and below
  #     hydro 3 s 2
  #     hydro 3 p 6
  #     hydro 4 d 20
  ################################################################################
  #
  # For methods that use the localized form of the "resolution of identity" for
  # the two-electron Coulomb operator (RI_method LVL), particularly Hartree-Fock and
  # hybrid density functional calculations, the highest accuracy can be obtained by
  # uncommenting the line beginning with "for_aux"  below, thus adding an extra g radial
  # function to the construction of the product basis set for the expansion.
  # See Ref. New J. Phys. 17, 093020 (2015) for more information, particularly Figs. 1 and 6.
  #
  ################################################################################
  #
  # for_aux hydro 5 g 6.0
  ################################################################################
  #
  #  FHI-aims code project
  # Volker Blum, Fritz Haber Institute Berlin, 2009
  #
  #  Suggested "tight" defaults for N atom (to be pasted into control.in file)
  #
  ################################################################################
    species        N
  #     global species definitions
      nucleus             7
      mass                14.0067
  #
      l_hartree           6
  #
      cut_pot             4.0  2.0  1.0
      basis_dep_cutoff    1e-4
  #
      radial_base         35 7.0
      radial_multiplier   2
      angular_grids       specified
        division   0.1841   50
        division   0.3514  110
        division   0.5126  194
        division   0.6292  302
        division   0.6939  434
  #      division   0.7396  590
  #      division   0.7632  770
  #      division   0.8122  974
  #      division   1.1604 1202
  #      outer_grid  974
        outer_grid  434
  ################################################################################
  #
  #  Definition of "minimal" basis
  #
  ################################################################################
  #     valence basis states
      valence      2  s   2.
      valence      2  p   3.
  #     ion occupancy
      ion_occ      2  s   1.
      ion_occ      2  p   2.
  ################################################################################
  #
  #  Suggested additional basis functions. For production calculations,
  #  uncomment them one after another (the most important basis functions are
  #  listed first).
  #
  #  Constructed for dimers: 1.0 A, 1.1 A, 1.5 A, 2.0 A, 3.0 A
  #
  ################################################################################
  #  "First tier" - improvements: -1193.42 meV to -220.60 meV
       hydro 2 p 1.8
       hydro 3 d 6.8
       hydro 3 s 5.8
  #  "Second tier" - improvements: -80.21 meV to -6.86 meV
       hydro 4 f 10.8
       hydro 3 p 5.8
       hydro 1 s 0.8
       hydro 5 g 16
       hydro 3 d 4.9
  #  "Third tier" - improvements: -4.29 meV to -0.53 meV
  #     hydro 3 s 16
  #     ionic 2 p auto
  #     hydro 3 d 6.6
  #     hydro 4 f 11.6
  #  "Fourth tier" - improvements: -0.75 meV to -0.25 meV
  #     hydro 2 p 4.5
  #     hydro 2 s 2.4
  #     hydro 5 g 14.4
  #     hydro 4 d 14.4
  #     hydro 4 f 16.8
  # Further basis functions - -0.21 meV and below
  #     hydro 3 p 14.8
  #     hydro 3 s 4.4
  #     hydro 3 d 19.6
  #     hydro 5 g 12.8
  ################################################################################
  #
  # For methods that use the localized form of the "resolution of identity" for
  # the two-electron Coulomb operator (RI_method LVL), particularly Hartree-Fock and
  # hybrid density functional calculations, the highest accuracy can be obtained by
  # uncommenting the line beginning with "for_aux"  below, thus adding an extra g radial
  # function to the construction of the product basis set for the expansion.
  # See Ref. New J. Phys. 17, 093020 (2015) for more information, particularly Figs. 1 and 6.
  #
  ################################################################################
  #
  # for_aux hydro 5 g 6.0
  ################################################################################
  #
  #  FHI-aims code project
  # Volker Blum, Fritz Haber Institute Berlin, 2009
  #
  #  Suggested "tight" defaults for O atom (to be pasted into control.in file)
  #
  ################################################################################
    species        O
  #     global species definitions
      nucleus             8
      mass                15.9994
  #
      l_hartree           6
  #
      cut_pot             4.0  2.0  1.0
      basis_dep_cutoff    1e-4
  #
      radial_base         36 7.0
      radial_multiplier   2
       angular_grids specified
        division   0.1817   50
        division   0.3417  110
        division   0.4949  194
        division   0.6251  302
        division   0.8014  434
  #      division   0.8507  590
  #      division   0.8762  770
  #      division   0.9023  974
  #      division   1.2339 1202
  #      outer_grid 974
        outer_grid  434
  ################################################################################
  #
  #  Definition of "minimal" basis
  #
  ################################################################################
  #     valence basis states
      valence      2  s   2.
      valence      2  p   4.
  #     ion occupancy
      ion_occ      2  s   1.
      ion_occ      2  p   3.
  ################################################################################
  #
  #  Suggested additional basis functions. For production calculations,
  #  uncomment them one after another (the most important basis functions are
  #  listed first).
  #
  #  Constructed for dimers: 1.0 A, 1.208 A, 1.5 A, 2.0 A, 3.0 A
  #
  ################################################################################
  #  "First tier" - improvements: -699.05 meV to -159.38 meV
       hydro 2 p 1.8
       hydro 3 d 7.6
       hydro 3 s 6.4
  #  "Second tier" - improvements: -49.91 meV to -5.39 meV
       hydro 4 f 11.6
       hydro 3 p 6.2
       hydro 3 d 5.6
       hydro 5 g 17.6
       hydro 1 s 0.75
  #  "Third tier" - improvements: -2.83 meV to -0.50 meV
  #     ionic 2 p auto
  #     hydro 4 f 10.8
  #     hydro 4 d 4.7
  #     hydro 2 s 6.8
  #  "Fourth tier" - improvements: -0.40 meV to -0.12 meV
  #     hydro 3 p 5
  #     hydro 3 s 3.3
  #     hydro 5 g 15.6
  #     hydro 4 f 17.6
  #     hydro 4 d 14
  # Further basis functions - -0.08 meV and below
  #     hydro 3 s 2.1
  #     hydro 4 d 11.6
  #     hydro 3 p 16
  #     hydro 2 s 17.2
  ################################################################################
  #
  # For methods that use the localized form of the "resolution of identity" for
  # the two-electron Coulomb operator (RI_method LVL), particularly Hartree-Fock and
  # hybrid density functional calculations, the highest accuracy can be obtained by
  # uncommenting the line beginning with "for_aux"  below, thus adding an extra g radial
  # function to the construction of the product basis set for the expansion.
  # See Ref. New J. Phys. 17, 093020 (2015) for more information, particularly Figs. 1 and 6.
  #
  ################################################################################
  #
  # for_aux hydro 5 g 6.0
  
  -----------------------------------------------------------------------
  Completed first pass over input file control.in .
  -----------------------------------------------------------------------
  
  
  -----------------------------------------------------------------------
  Parsing geometry.in (first pass over file, find array dimensions only).
  The contents of geometry.in will be repeated verbatim below
  unless switched off by setting 'verbatim_writeout .false.' .
  in the first line of geometry.in .
  -----------------------------------------------------------------------
  
  #
  # This is the geometry file that corresponds to the current relaxation step.
  # If you do not want this file to be written, set the "write_restart_geometry" flag to .false.
  #
  atom      -0.36696547     -1.27160566      0.85976077 C
  atom      -0.44222333     -0.04025408      1.74248543 C
  atom       0.55255408      0.59241053      2.08228976 O
  atom       0.04900372     -2.09864659      1.45217882 H
  atom       0.32702918     -1.07589115      0.03511937 H
  atom      -1.33644126     -1.58786133      0.45351047 H
  atom      -1.70137489      0.28692305      2.18566797 N
  atom      -1.96182258      1.47660901      2.98251610 C
  atom      -1.80366906      1.40743848      4.52415041 C
  atom      -1.80690076      2.48283113      5.12150628 O
  atom      -2.49389493     -0.19384006      1.77578079 H
  atom      -1.18626356      2.20770022      2.70990261 H
  atom      -3.33972769      2.04928482      2.63620353 C
  atom      -4.14065175      1.31968316      2.82884673 H
  atom      -3.37912406      2.33495735      1.57719164 H
  atom      -3.53266773      2.93618248      3.24851826 H
  atom      -1.67288992      0.24118561      5.22963877 N
  atom      -1.62938166     -1.17673541      4.85700265 C
  atom      -2.49549583     -1.94136901      5.88647274 C
  atom      -1.99634423     -2.58502237      6.80533892 O
  atom      -1.49861900      0.43567307      6.21535138 H
  atom      -2.09004915     -1.27737516      3.87007666 H
  atom      -0.20568665     -1.72543705      4.81801535 C
  atom       0.23842801     -1.70891521      5.82045096 H
  atom       0.41022455     -1.11995325      4.14336739 H
  atom      -0.20324105     -2.76871264      4.47497957 H
  atom      -3.85347802     -1.85423479      5.73408167 N
  atom      -4.60176471     -1.02927203      4.80224170 C
  atom      -4.36724277     -2.30757397      6.48374419 H
  atom      -4.24022381     -1.16256873      3.77320352 H
  atom      -4.55413604      0.04185617      5.05110346 H
  atom      -5.65088165     -1.34444658      4.82026215 H
  
  -----------------------------------------------------------------------
  Completed first pass over input file geometry.in .
  -----------------------------------------------------------------------
  

  Basic array size parameters:
  | Number of species                 :        4
  | Number of atoms                   :       32
  | Max. basis fn. angular momentum   :        4
  | Max. atomic/ionic basis occupied n:        2
  | Max. number of basis fn. types    :        2
  | Max. radial fns per species/type  :        8
  | Max. logarithmic grid size        :     1301
  | Max. radial integration grid size :       73
  | Max. angular integration grid size:      434
  | Max. angular grid division number :        8
  | Radial grid for Hartree potential :     1301
  | Number of spin channels           :        1

------------------------------------------------------------
          Reading file control.in.
------------------------------------------------------------
  XC: Using PBE gradient-corrected functionals.
  Spin treatment: No spin polarisation.
  Charge =   0.000000E+00: Neutral system requested explicitly.
  Occupation type: Gaussian broadening, width =   0.500000E-01 eV.
  Using pulay charge density mixing.
  Pulay mixing - number of memorized iterations:   10
  Charge density mixing - mixing parameter:     0.5000
  Convergence accuracy of self-consistent charge density:  0.1000E-03
  Convergence accuracy of sum of eigenvalues:  0.1000E-01
  Convergence accuracy of total energy:  0.1000E-04
  Convergence accuracy of forces:  0.1000E-03
  Maximum number of s.-c. iterations  :  1000
  Fitting ESP-charges to Potential. 
  | Esp charge output options: 
  | ESP Grid method: 3, cubic grid
  | Number of points in x, ,y, z:  0080 0080 0080
  |
 
  Reading configuration options for species H                   .
  | Found nuclear charge :   1.0000
  | Found atomic mass :    1.00794000000000      amu
  | Found l_max for Hartree potential  :   6
  | Found cutoff potl. onset [A], width [A], scale factor :    4.00000    2.00000    1.00000
  | Threshold for basis-dependent cutoff potential is   0.100000E-03
  | Found data for basic radial integration grid :    24 points, outermost radius =    7.000 A
  | Found multiplier for basic radial grid :   2
  | Found angular grid specification: user-specified.
  | Specified grid contains     6 separate shells.
  | Check grid settings after all constraints further below.
  | Found free-atom valence shell :  1 s   1.000
  | No ionic wave fns used. Skipping ion_occ.
  | Found hydrogenic basis function :  2 s   2.100
  | Found hydrogenic basis function :  2 p   3.500
  | Found hydrogenic basis function :  1 s   0.850
  | Found hydrogenic basis function :  2 p   3.700
  | Found hydrogenic basis function :  2 s   1.200
  | Found hydrogenic basis function :  3 d   7.000
  Species H                   : Missing cutoff potential type.
  Defaulting to exp(1/x)/(1-x)^2 type cutoff potential.
  Species H : No 'logarithmic' tag. Using default grid for free atom:
  | Default logarithmic grid data [bohr] : 0.1000E-03 0.1000E+03 0.1012E+01
  Species H : On-site basis accuracy parameter (for Gram-Schmidt orthonormalisation) not specified.
  Using default value basis_acc =  0.1000000E-03.
  Species H                   : Using default innermost maximum threshold i_radial=  2 for radial functions.
  Species H                   : Default cutoff onset for free atom density etc. : 0.40000000E+01 AA.
  Species H                   : Basic radial grid will be enhanced according to radial_multiplier =   2, to contain    49 grid points.
 
  Reading configuration options for species C                   .
  | Found nuclear charge :   6.0000
  | Found atomic mass :    12.0107000000000      amu
  | Found l_max for Hartree potential  :   6
  | Found cutoff potl. onset [A], width [A], scale factor :    4.00000    2.00000    1.00000
  | Threshold for basis-dependent cutoff potential is   0.100000E-03
  | Found data for basic radial integration grid :    34 points, outermost radius =    7.000 A
  | Found multiplier for basic radial grid :   2
  | Found angular grid specification: user-specified.
  | Specified grid contains     6 separate shells.
  | Check grid settings after all constraints further below.
  | Found free-atom valence shell :  2 s   2.000
  | Found free-atom valence shell :  2 p   2.000
  | No ionic wave fns used. Skipping ion_occ.
  | No ionic wave fns used. Skipping ion_occ.
  | Found hydrogenic basis function :  2 p   1.700
  | Found hydrogenic basis function :  3 d   6.000
  | Found hydrogenic basis function :  2 s   4.900
  | Found hydrogenic basis function :  4 f   9.800
  | Found hydrogenic basis function :  3 p   5.200
  | Found hydrogenic basis function :  3 s   4.300
  | Found hydrogenic basis function :  5 g  14.400
  | Found hydrogenic basis function :  3 d   6.200
  Species C                   : Missing cutoff potential type.
  Defaulting to exp(1/x)/(1-x)^2 type cutoff potential.
  Species C : No 'logarithmic' tag. Using default grid for free atom:
  | Default logarithmic grid data [bohr] : 0.1000E-03 0.1000E+03 0.1012E+01
  Species C : On-site basis accuracy parameter (for Gram-Schmidt orthonormalisation) not specified.
  Using default value basis_acc =  0.1000000E-03.
  Species C                   : Using default innermost maximum threshold i_radial=  2 for radial functions.
  Species C                   : Default cutoff onset for free atom density etc. : 0.40000000E+01 AA.
  Species C                   : Basic radial grid will be enhanced according to radial_multiplier =   2, to contain    69 grid points.
 
  Reading configuration options for species N                   .
  | Found nuclear charge :   7.0000
  | Found atomic mass :    14.0067000000000      amu
  | Found l_max for Hartree potential  :   6
  | Found cutoff potl. onset [A], width [A], scale factor :    4.00000    2.00000    1.00000
  | Threshold for basis-dependent cutoff potential is   0.100000E-03
  | Found data for basic radial integration grid :    35 points, outermost radius =    7.000 A
  | Found multiplier for basic radial grid :   2
  | Found angular grid specification: user-specified.
  | Specified grid contains     6 separate shells.
  | Check grid settings after all constraints further below.
  | Found free-atom valence shell :  2 s   2.000
  | Found free-atom valence shell :  2 p   3.000
  | No ionic wave fns used. Skipping ion_occ.
  | No ionic wave fns used. Skipping ion_occ.
  | Found hydrogenic basis function :  2 p   1.800
  | Found hydrogenic basis function :  3 d   6.800
  | Found hydrogenic basis function :  3 s   5.800
  | Found hydrogenic basis function :  4 f  10.800
  | Found hydrogenic basis function :  3 p   5.800
  | Found hydrogenic basis function :  1 s   0.800
  | Found hydrogenic basis function :  5 g  16.000
  | Found hydrogenic basis function :  3 d   4.900
  Species N                   : Missing cutoff potential type.
  Defaulting to exp(1/x)/(1-x)^2 type cutoff potential.
  Species N : No 'logarithmic' tag. Using default grid for free atom:
  | Default logarithmic grid data [bohr] : 0.1000E-03 0.1000E+03 0.1012E+01
  Species N : On-site basis accuracy parameter (for Gram-Schmidt orthonormalisation) not specified.
  Using default value basis_acc =  0.1000000E-03.
  Species N                   : Using default innermost maximum threshold i_radial=  2 for radial functions.
  Species N                   : Default cutoff onset for free atom density etc. : 0.40000000E+01 AA.
  Species N                   : Basic radial grid will be enhanced according to radial_multiplier =   2, to contain    71 grid points.
 
  Reading configuration options for species O                   .
  | Found nuclear charge :   8.0000
  | Found atomic mass :    15.9994000000000      amu
  | Found l_max for Hartree potential  :   6
  | Found cutoff potl. onset [A], width [A], scale factor :    4.00000    2.00000    1.00000
  | Threshold for basis-dependent cutoff potential is   0.100000E-03
  | Found data for basic radial integration grid :    36 points, outermost radius =    7.000 A
  | Found multiplier for basic radial grid :   2
  | Found angular grid specification: user-specified.
  | Specified grid contains     6 separate shells.
  | Check grid settings after all constraints further below.
  | Found free-atom valence shell :  2 s   2.000
  | Found free-atom valence shell :  2 p   4.000
  | No ionic wave fns used. Skipping ion_occ.
  | No ionic wave fns used. Skipping ion_occ.
  | Found hydrogenic basis function :  2 p   1.800
  | Found hydrogenic basis function :  3 d   7.600
  | Found hydrogenic basis function :  3 s   6.400
  | Found hydrogenic basis function :  4 f  11.600
  | Found hydrogenic basis function :  3 p   6.200
  | Found hydrogenic basis function :  3 d   5.600
  | Found hydrogenic basis function :  5 g  17.600
  | Found hydrogenic basis function :  1 s   0.750
  Species O                   : Missing cutoff potential type.
  Defaulting to exp(1/x)/(1-x)^2 type cutoff potential.
  Species O : No 'logarithmic' tag. Using default grid for free atom:
  | Default logarithmic grid data [bohr] : 0.1000E-03 0.1000E+03 0.1012E+01
  Species O : On-site basis accuracy parameter (for Gram-Schmidt orthonormalisation) not specified.
  Using default value basis_acc =  0.1000000E-03.
  Species O                   : Using default innermost maximum threshold i_radial=  2 for radial functions.
  Species O                   : Default cutoff onset for free atom density etc. : 0.40000000E+01 AA.
  Species O                   : Basic radial grid will be enhanced according to radial_multiplier =   2, to contain    73 grid points.
 
  Finished reading input file 'control.in'. Consistency checks are next.
 
  Target number of points in a grid batch is not set. Defaulting to  100
  Method for grid partitioning is not set. Defaulting to parallel hash+maxmin partitioning.
  Batch size limit is not set. Defaulting to    200
  By default, will store active basis functions for each batch.
  If in need of memory, prune_basis_once .false. can be used to disable this option.
  communication_type for Hartree potential was not specified.
  Defaulting to calc_hartree .
  Pulay mixer: Number of initial linear mixing iterations not set.
  Defaulting to    0 iterations.
  Work space size for distributed Hartree potential not set.
  Defaulting to   0.200000E+03 MB.
  Algorithm-dependent basis array size parameters:
  | n_max_pulay                         :       10
  Geometry relaxation not requested: no relaxation will be performed.
  Handling of forces: Unphysical translation and rotation will be removed from forces.
  No accuracy limit for integral partition fn. given. Defaulting to  0.1000E-14.
  No threshold value for u(r) in integrations given. Defaulting to  0.1000E-05.
  No accuracy for occupation numbers given. Defaulting to  0.1000E-07.
  No threshold value for occupation numbers given. Defaulting to  0.0000E+00.
  No accuracy for fermi level given. Defaulting to  0.1000E-19.
  Maximum # of iterations to find E_F not set. Defaulting to  200.
  Preferred method for the eigenvalue solver ('KS_method') not specified in 'control.in'.
  Calling blacs routine to test compilation state
  Since scalapack support is enabled, defaulting to 'elpa'.
  Preferred method for the MBD eigenvalue solver ('mbd_eigensolver') not specified in 'control.in'.
  Calling blacs routine to test compilation state
  Since scalapack support is enabled, defaulting to 'scaLAPACK'.
  Will not use alltoall communication since running on < 1024 CPUs.
  Threshold for basis singularities not set.
  Default threshold for basis singularities:  0.1000E-04
  partition_type (choice of integration weights) for integrals was not specified.
  | Using a version of the partition function of Stratmann and coworkers ('stratmann_smoother').
  | At each grid point, the set of atoms used to build the partition table is smoothly restricted to
  | only those atoms whose free-atom density would be non-zero at that grid point.
  Partitioning for Hartree potential was not defined. Using partition_type for integrals.
  | Adjusted default value of keyword multip_moments_threshold to:       0.10000000E-11
  | This value may affect high angular momentum components of the Hartree potential in periodic systems.
  No q(lm)/r^(l+1) cutoff set for long-range Hartree potential.
  | Using default value of  0.100000E-09 .
  | Verify using the multipole_threshold keyword.
  Defaulting to new monopole extrapolation.
  Density update method: automatic selection selected.
------------------------------------------------------------


------------------------------------------------------------
          Reading geometry description geometry.in.
------------------------------------------------------------
 * Warning! You did not set the 'relativistic' flag in input file 'control.in'.
 * Since you are not attempting to treat any elements beyond Ca(Z=20), FHI-aims
 * will default to 'relativistic none'.
 * You must ensure that this is really what you want!!
 * For example, DO NOT compute total-energy differences between results from
 * different settings of the 'relativistic' flag.
  Input structure read successfully.
  The structure contains       32 atoms,  and a total of        116.000 electrons.

  Input geometry:
  | No unit cell requested.
  | Atomic structure:
  |       Atom                x [A]            y [A]            z [A]
  |    1: Species C             -0.366965        -1.271606         0.859761
  |    2: Species C             -0.442223        -0.040254         1.742485
  |    3: Species O              0.552554         0.592411         2.082290
  |    4: Species H              0.049004        -2.098647         1.452179
  |    5: Species H              0.327029        -1.075891         0.035119
  |    6: Species H             -1.336441        -1.587861         0.453510
  |    7: Species N             -1.701375         0.286923         2.185668
  |    8: Species C             -1.961823         1.476609         2.982516
  |    9: Species C             -1.803669         1.407438         4.524150
  |   10: Species O             -1.806901         2.482831         5.121506
  |   11: Species H             -2.493895        -0.193840         1.775781
  |   12: Species H             -1.186264         2.207700         2.709903
  |   13: Species C             -3.339728         2.049285         2.636204
  |   14: Species H             -4.140652         1.319683         2.828847
  |   15: Species H             -3.379124         2.334957         1.577192
  |   16: Species H             -3.532668         2.936182         3.248518
  |   17: Species N             -1.672890         0.241186         5.229639
  |   18: Species C             -1.629382        -1.176735         4.857003
  |   19: Species C             -2.495496        -1.941369         5.886473
  |   20: Species O             -1.996344        -2.585022         6.805339
  |   21: Species H             -1.498619         0.435673         6.215351
  |   22: Species H             -2.090049        -1.277375         3.870077
  |   23: Species C             -0.205687        -1.725437         4.818015
  |   24: Species H              0.238428        -1.708915         5.820451
  |   25: Species H              0.410225        -1.119953         4.143367
  |   26: Species H             -0.203241        -2.768713         4.474980
  |   27: Species N             -3.853478        -1.854235         5.734082
  |   28: Species C             -4.601765        -1.029272         4.802242
  |   29: Species H             -4.367243        -2.307574         6.483744
  |   30: Species H             -4.240224        -1.162569         3.773204
  |   31: Species H             -4.554136         0.041856         5.051103
  |   32: Species H             -5.650882        -1.344447         4.820262
  |

  | The smallest distance between any two atoms is         1.01352291 AA.
  |
  | The first atom of this pair is atom number                      7 .
  | The second atom of this pair is atom number                    11 .

  Number of empty states per atom not set in control.in - providing a guess from actual geometry.
  | Total number of empty states used during s.c.f. cycle:       71
  If you use a very high smearing, use empty_states (per atom!) in control.in to increase this value.

  Structure-dependent array size parameters: 
  | Maximum number of distinct radial functions  :       40
  | Maximum number of basis functions            :      840
  | Number of Kohn-Sham states (occupied + empty):      129
------------------------------------------------------------

------------------------------------------------------------
          Preparing all fixed parts of the calculation.
------------------------------------------------------------
  Determining machine precision:
    2.225073858507201E-308
  Setting up grids for atomic and cluster calculations.

  Creating wave function, potential, and density for free atoms.

  Species: H

  List of occupied orbitals and eigenvalues:
    n    l              occ      energy [Ha]    energy [eV]
    1    0           1.0000        -0.238382        -6.4867


  Species: C

  List of occupied orbitals and eigenvalues:
    n    l              occ      energy [Ha]    energy [eV]
    1    0           2.0000       -10.041232      -273.2358
    2    0           2.0000        -0.504327       -13.7234
    2    1           2.0000        -0.193750        -5.2722


  Species: N

  List of occupied orbitals and eigenvalues:
    n    l              occ      energy [Ha]    energy [eV]
    1    0           2.0000       -14.129007      -384.4699
    2    0           2.0000        -0.681802       -18.5528
    2    1           3.0000        -0.260543        -7.0897


  Species: O

  List of occupied orbitals and eigenvalues:
    n    l              occ      energy [Ha]    energy [eV]
    1    0           2.0000       -18.898576      -514.2564
    2    0           2.0000        -0.878795       -23.9132
    2    1           4.0000        -0.332075        -9.0362

  Creating fixed part of basis set: Ionic, confined, hydrogenic.
 
  H                    hydrogenic:
 
  List of hydrogenic basis orbitals: 
    n    l      effective z      eigenvalue [eV]  inner max. [A]     outer max. [A]     outer radius [A]   
    2    0         2.100000       -14.9965           0.193243           1.317208           5.373006
    2    1         3.500000       -41.6672           0.602369           0.602369           4.056063
    1    0         0.850000        -9.8292           0.624871           0.624871           5.373006
    2    1         3.700000       -46.5653           0.573622           0.573622           3.910002
    2    0         1.200000        -4.5995           0.334980           2.228188           5.505995
    3    2         7.000000       -74.0753           0.680699           0.680699           3.769201
 
 
  C                    hydrogenic:
 
  List of hydrogenic basis orbitals: 
    n    l      effective z      eigenvalue [eV]  inner max. [A]     outer max. [A]     outer radius [A]   
    2    1         1.700000        -9.8152           1.245706           1.245706           5.401630
    3    2         6.000000       -54.4226           0.792453           0.792453           4.178599
    2    0         4.900000       -81.6681           0.082559           0.562749           3.353238
    4    3         9.800000       -81.6681           0.863254           0.863254           4.028125
    3    1         5.200000       -40.8774           0.305389           1.215618           4.898362
    3    0         4.300000       -27.9508           0.091041           1.610311           5.401630
    5    4        14.400000      -112.8510           0.917666           0.917666           3.883070
    3    2         6.200000       -58.1113           0.763917           0.763917           4.077671
 
 
  N                    hydrogenic:
 
  List of hydrogenic basis orbitals: 
    n    l      effective z      eigenvalue [eV]  inner max. [A]     outer max. [A]     outer radius [A]   
    2    1         1.800000       -11.0118           1.177451           1.177451           5.427479
    3    2         6.800000       -69.9029           0.704619           0.704619           3.854246
    3    0         5.800000       -50.8549           0.067388           1.191934           4.629968
    4    3        10.800000       -99.1854           0.786571           0.786571           3.761152
    3    1         5.800000       -50.8549           0.274880           1.094176           4.518138
    1    0         0.800000        -8.7059           0.662839           0.662839           5.361532
    5    4        16.000000      -139.3222           0.825990           0.825990           3.625711
    3    2         4.900000       -36.2967           0.968267           0.968267           4.862000
 
 
  O                    hydrogenic:
 
  List of hydrogenic basis orbitals: 
    n    l      effective z      eigenvalue [eV]  inner max. [A]     outer max. [A]     outer radius [A]   
    2    1         1.800000       -11.0118           1.178562           1.178562           5.432602
    3    2         7.600000       -87.3182           0.624125           0.624125           3.541477
    3    0         6.400000       -61.9209           0.061167           1.081902           4.306578
    4    3        11.600000      -114.4238           0.731631           0.731631           3.585037
    3    1         6.200000       -58.1113           0.255680           1.030270           4.306578
    3    2         5.600000       -47.4081           0.847233           0.847233           4.413171
    5    4        17.600000      -168.5799           0.749740           0.749740           3.372465
    1    0         0.750000        -7.6499           0.705284           0.705284           5.366593
 

  Adding cutoff potential to free-atom effective potential.
  Creating atomic-like basis functions for current effective potential.

  Species H                   :

  List of atomic basis orbitals and eigenvalues:
    n    l      energy [Ha]    energy [eV]    outer radius [A]
    1    0        -0.238382        -6.4867       5.373006


  Species C                   :

  List of atomic basis orbitals and eigenvalues:
    n    l      energy [Ha]    energy [eV]    outer radius [A]
    1    0       -10.041232      -273.2358       1.934409
    2    0        -0.504327       -13.7234       5.271162
    2    1        -0.193750        -5.2722       5.401630


  Species N                   :

  List of atomic basis orbitals and eigenvalues:
    n    l      energy [Ha]    energy [eV]    outer radius [A]
    1    0       -14.129007      -384.4699       1.637919
    2    0        -0.681802       -18.5528       5.168461
    2    1        -0.260543        -7.0897       5.361532


  Species O                   :

  List of atomic basis orbitals and eigenvalues:
    n    l      energy [Ha]    energy [eV]    outer radius [A]
    1    0       -18.898576      -514.2564       1.415765
    2    0        -0.878795       -23.9132       5.048385
    2    1        -0.332075        -9.0362       5.301386

  Assembling full basis from fixed parts.
  | Species H :   atomic orbital   1 s accepted.
  | Species H :    hydro orbital   2 s accepted.
  | Species H :    hydro orbital   1 s accepted.
  | Species H :    hydro orbital   2 s accepted.
  | Species H :    hydro orbital   2 p accepted.
  | Species H :    hydro orbital   2 p accepted.
  | Species H :    hydro orbital   3 d accepted.
  | Species C :   atomic orbital   1 s accepted.
  | Species C :    hydro orbital   2 s accepted.
  | Species C :   atomic orbital   2 s accepted.
  | Species C :    hydro orbital   3 s accepted.
  | Species C :    hydro orbital   3 p accepted.
  | Species C :   atomic orbital   2 p accepted.
  | Species C :    hydro orbital   2 p accepted.
  | Species C :    hydro orbital   3 d accepted.
  | Species C :    hydro orbital   3 d accepted.
  | Species C :    hydro orbital   4 f accepted.
  | Species C :    hydro orbital   5 g accepted.
  | Species N :   atomic orbital   1 s accepted.
  | Species N :    hydro orbital   3 s accepted.
  | Species N :   atomic orbital   2 s accepted.
  | Species N :    hydro orbital   1 s accepted.
  | Species N :    hydro orbital   3 p accepted.
  | Species N :   atomic orbital   2 p accepted.
  | Species N :    hydro orbital   2 p accepted.
  | Species N :    hydro orbital   3 d accepted.
  | Species N :    hydro orbital   3 d accepted.
  | Species N :    hydro orbital   4 f accepted.
  | Species N :    hydro orbital   5 g accepted.
  | Species O :   atomic orbital   1 s accepted.
  | Species O :    hydro orbital   3 s accepted.
  | Species O :   atomic orbital   2 s accepted.
  | Species O :    hydro orbital   1 s accepted.
  | Species O :    hydro orbital   3 p accepted.
  | Species O :   atomic orbital   2 p accepted.
  | Species O :    hydro orbital   2 p accepted.
  | Species O :    hydro orbital   3 d accepted.
  | Species O :    hydro orbital   3 d accepted.
  | Species O :    hydro orbital   4 f accepted.
  | Species O :    hydro orbital   5 g accepted.
 
  Basis size parameters after reduction:
  | Total number of radial functions:       40
  | Total number of basis functions :      840
 
  Testing on-site integration grid accuracy.
  |  Species  Function  <phi|h_atom|phi> (log., in eV)  <phi|h_atom|phi> (rad., in eV)
           1        1                 -6.4869821809                 -6.4870742227
           1        2                 13.5044133542                 13.5041049177
           1        3                 32.7854418792                 32.7779770519
           1        4                 33.7995553101                 33.7152624900 ***
           1        5                 28.8558651799                 28.8558652046
           1        6                 59.6361831893                 59.6362535845
           1        7                 60.2733718049                 60.2733715484
           2        8               -273.2358277112               -273.2358261765
           2        9                -10.7624923123                -10.7625144012
           2       10                 17.4634079027                 17.4634252127
           2       11                 53.0363661832                 53.0366180446
           2       12                 15.0981351967                 15.0981317714
           2       13                  3.8522181899                  3.8522770949
           2       14                 12.1181835661                 12.1206868578
           2       15                 29.4320778347                 29.4320780959
           2       16                 54.8753777694                 54.8752901936
           2       17                 59.3533975461                 59.3533974833
           2       18                 93.4537491195                 93.4537492066
           3       19               -384.4698526889               -384.4698499465
           3       20                 12.5691022037                 12.5690910168
           3       21                -15.7489097511                -15.7489165588
           3       22                 27.0978334940                 27.0985589490
           3       23                 18.5949116966                 18.5949125562
           3       24                  1.2212828291                  1.2212855301
           3       25                 13.4428926797                 13.4434051125
           3       26                 35.9380614500                 35.9380613666
           3       27                 39.9231532098                 39.9231654735
           3       28                 72.9957335806                 72.9957336833
           3       29                116.4231321147                116.4231321431
           4       30               -514.2564144315               -514.2564099626
           4       31                 15.1726678541                 15.1726530877
           4       32                -21.5447785304                -21.5447874973
           4       33                 14.4944558459                 14.4944698284
           4       34                 20.8882174564                 20.8882178906
           4       35                 -2.4850315908                 -2.4850322289
           4       36                 13.8600193195                 13.8599826966
           4       37                 45.8243383616                 45.8243383675
           4       38                 52.1840606465                 52.1840622440
           4       39                 85.4074185510                 85.4074185819
           4       40                142.0983717302                142.0983717339
 * Note: Onsite integrals marked "***" above are less accurate than
 * onsite_accuracy_threshold =    0.03000 eV. Usually, this is harmless.
 * When in doubt, tighten the "radial" and/or "radial_multiplier" flags to check.

  Preparing densities etc. for the partition functions (integrals / Hartree potential).

  Preparations completed.
  max(cpu_time)          :      0.240 s.
  Wall clock time (cpu1) :      0.236 s.
------------------------------------------------------------

------------------------------------------------------------
          Begin self-consistency loop: Initialization.

          Date     :  20170309, Time     :  185811.539
------------------------------------------------------------

  Initializing index lists of integration centers etc. from given atomic structure:
  | Number of centers in hartree potential         :        32
  | Number of centers in hartree multipole         :        32
  | Number of centers in electron density summation:        32
  | Number of centers in basis integrals           :        32
  | Number of centers in integrals                 :        32
  | Number of centers in hamiltonian               :        32
  Using modified Scalapack Eigenvalue solver (ELPA)
  * Using 32 tasks for Scalapack Eigenvalue solver.
  Detailed listing of tasks and assigned k-points:
  (for non-periodic systems, the "k-point" denotes an internal label only)
   Task     0 k-point     1 on eos366
   Task     1 k-point     1 on eos366
   Task     2 k-point     1 on eos366
   Task     3 k-point     1 on eos366
   Task     4 k-point     1 on eos366
   Task     5 k-point     1 on eos366
   Task     6 k-point     1 on eos366
   Task     7 k-point     1 on eos366
   Task     8 k-point     1 on eos366
   Task     9 k-point     1 on eos366
   Task    10 k-point     1 on eos366
   Task    11 k-point     1 on eos366
   Task    12 k-point     1 on eos366
   Task    13 k-point     1 on eos366
   Task    14 k-point     1 on eos366
   Task    15 k-point     1 on eos366
   Task    16 k-point     1 on eos366
   Task    17 k-point     1 on eos366
   Task    18 k-point     1 on eos366
   Task    19 k-point     1 on eos366
   Task    20 k-point     1 on eos366
   Task    21 k-point     1 on eos366
   Task    22 k-point     1 on eos366
   Task    23 k-point     1 on eos366
   Task    24 k-point     1 on eos366
   Task    25 k-point     1 on eos366
   Task    26 k-point     1 on eos366
   Task    27 k-point     1 on eos366
   Task    28 k-point     1 on eos366
   Task    29 k-point     1 on eos366
   Task    30 k-point     1 on eos366
   Task    31 k-point     1 on eos366
  Tasks:    32 split into      8 X      4 BLACS grid
  Calculating blocksize based on n_basis =          840 max_nprow =            8 max_npcol =            4
  Scalapack blocksize set to:           16
  Required Scalapack workspace - INTEGER:            1 REAL:             1
  Partitioning the integration grid into batches with parallel hashing+maxmin method.
  | Number of batches:     4921
  | Maximal batch size:     200
  | Minimal batch size:      24
  | Average batch size:     107.240
  | Standard deviation of batch sizes:      34.808

  Integration load balanced across    32 MPI tasks.
  Work distribution over tasks is as follows:
  Task     0 has      16537 integration points.
  Task     1 has      16476 integration points.
  Task     2 has      16478 integration points.
  Task     3 has      16497 integration points.
  Task     4 has      16502 integration points.
  Task     5 has      16408 integration points.
  Task     6 has      16484 integration points.
  Task     7 has      16489 integration points.
  Task     8 has      16491 integration points.
  Task     9 has      16544 integration points.
  Task    10 has      16500 integration points.
  Task    11 has      16559 integration points.
  Task    12 has      16447 integration points.
  Task    13 has      16495 integration points.
  Task    14 has      16538 integration points.
  Task    15 has      16411 integration points.
  Task    16 has      16567 integration points.
  Task    17 has      16407 integration points.
  Task    18 has      16421 integration points.
  Task    19 has      16540 integration points.
  Task    20 has      16503 integration points.
  Task    21 has      16479 integration points.
  Task    22 has      16460 integration points.
  Task    23 has      16496 integration points.
  Task    24 has      16505 integration points.
  Task    25 has      16483 integration points.
  Task    26 has      16534 integration points.
  Task    27 has      16474 integration points.
  Task    28 has      16502 integration points.
  Task    29 has      16430 integration points.
  Task    30 has      16533 integration points.
  Task    31 has      16538 integration points.
  Initializing partition tables, free-atom densities, potentials, etc. across the integration grid (initialize_grid_storage).
  | initialize_grid_storage: Actual outermost partition radius vs. multipole_radius_free
  | (-- VB: in principle, multipole_radius_free should be larger, hence this output)
  | Species        1: Confinement radius =              6.000000000000000 AA, multipole_radius_free =              6.071692442739658 AA.
  | Species        1: outer_partition_radius set to              6.071692442739658 AA .
  | Species        2: Confinement radius =              6.000000000000000 AA, multipole_radius_free =              6.029870734432609 AA.
  | Species        2: outer_partition_radius set to              6.029870734432609 AA .
  | Species        3: Confinement radius =              6.000000000000000 AA, multipole_radius_free =              6.058726835495003 AA.
  | Species        3: outer_partition_radius set to              6.058726835495003 AA .
  | Species        4: Confinement radius =              6.000000000000000 AA, multipole_radius_free =              6.064445521808699 AA.
  | Species        4: outer_partition_radius set to              6.064445521808699 AA .
  | Original list of interatomic distances with          32 x         32 entries is created.
  | Net number of integration points:   527728
  | of which are non-zero points    :   411786
  Obtaining max. number of non-zero basis functions in each batch (get_n_compute_maxes).
  | Maximal number of non-zero basis functions:      800 in task     0
  | Maximal number of non-zero basis functions:      814 in task     1
  | Maximal number of non-zero basis functions:      810 in task     2
  | Maximal number of non-zero basis functions:      811 in task     3
  | Maximal number of non-zero basis functions:      805 in task     4
  | Maximal number of non-zero basis functions:      819 in task     5
  | Maximal number of non-zero basis functions:      818 in task     6
  | Maximal number of non-zero basis functions:      810 in task     7
  | Maximal number of non-zero basis functions:      801 in task     8
  | Maximal number of non-zero basis functions:      820 in task     9
  | Maximal number of non-zero basis functions:      819 in task    10
  | Maximal number of non-zero basis functions:      826 in task    11
  | Maximal number of non-zero basis functions:      807 in task    12
  | Maximal number of non-zero basis functions:      818 in task    13
  | Maximal number of non-zero basis functions:      808 in task    14
  | Maximal number of non-zero basis functions:      808 in task    15
  | Maximal number of non-zero basis functions:      818 in task    16
  | Maximal number of non-zero basis functions:      820 in task    17
  | Maximal number of non-zero basis functions:      798 in task    18
  | Maximal number of non-zero basis functions:      820 in task    19
  | Maximal number of non-zero basis functions:      804 in task    20
  | Maximal number of non-zero basis functions:      786 in task    21
  | Maximal number of non-zero basis functions:      813 in task    22
  | Maximal number of non-zero basis functions:      810 in task    23
  | Maximal number of non-zero basis functions:      809 in task    24
  | Maximal number of non-zero basis functions:      813 in task    25
  | Maximal number of non-zero basis functions:      821 in task    26
  | Maximal number of non-zero basis functions:      801 in task    27
  | Maximal number of non-zero basis functions:      819 in task    28
  | Maximal number of non-zero basis functions:      802 in task    29
  | Maximal number of non-zero basis functions:      806 in task    30
  | Maximal number of non-zero basis functions:      818 in task    31
  Selecting the method for density update.
  Loop over occupied states selected for charge density update.
  Integrating Hamiltonian matrix: batch-based integration.
  Time summed over all CPUs for integration: real work       23.900 s, elapsed       24.686 s
  Integrating overlap matrix.
  Time summed over all CPUs for integration: real work       14.716 s, elapsed       15.377 s
  Deallocating overlap matrix.

  Updating Kohn-Sham eigenvalues, eigenvectors, occupation numbers, and Fermi level.
  Solving generalized eigenproblem
  Solving real symmetric generalised eigenvalue problem by standard ScaLAPACK.
  Transforming overlap matrix with ScaLAPACK and checking for singularities.
  : Overlap matrix is nonsingular, using Cholesky decomposition
  | Lowest eigenvalue:  0.817263E-04
  Factoring overlap matrix with Cholesky decomposition
  Using Cholesky factor for transformation
  Using 1-stage real ELPA solver
  Determining occupation numbers for Kohn-Sham eigenstates.
  | Chemical potential (Fermi level) in eV                 : -.96230788E+01
  | Error in electron count due to remaining E_F inaccuracy: 0.00000000E+00
  | Maximum occupation number of highest empty state:  0.00E+00

  Writing Kohn-Sham eigenvalues.

  State    Occupation    Eigenvalue [Ha]    Eigenvalue [eV]
      1       2.00000         -18.974767         -516.32969
      2       2.00000         -18.974363         -516.31869
      3       2.00000         -18.974187         -516.31391
      4       2.00000         -14.254529         -387.88548
      5       2.00000         -14.254417         -387.88241
      6       2.00000         -14.252242         -387.82324
      7       2.00000         -10.171494         -276.78043
      8       2.00000         -10.170962         -276.76596
      9       2.00000         -10.170846         -276.76279
     10       2.00000         -10.166629         -276.64805
     11       2.00000         -10.148900         -276.16561
     12       2.00000         -10.148122         -276.14445
     13       2.00000         -10.136291         -275.82250
     14       2.00000         -10.133743         -275.75318
     15       2.00000         -10.133050         -275.73431
     16       2.00000          -1.134721          -30.87733
     17       2.00000          -1.132221          -30.80931
     18       2.00000          -1.130775          -30.76995
     19       2.00000          -1.018594          -27.71734
     20       2.00000          -1.012660          -27.55589
     21       2.00000          -1.002255          -27.27274
     22       2.00000          -0.886589          -24.12531
     23       2.00000          -0.877675          -23.88275
     24       2.00000          -0.841596          -22.90098
     25       2.00000          -0.816345          -22.21388
     26       2.00000          -0.776279          -21.12364
     27       2.00000          -0.761541          -20.72259
     28       2.00000          -0.699748          -19.04112
     29       2.00000          -0.690630          -18.79299
     30       2.00000          -0.677383          -18.43253
     31       2.00000          -0.634510          -17.26590
     32       2.00000          -0.629901          -17.14048
     33       2.00000          -0.612665          -16.67146
     34       2.00000          -0.605031          -16.46372
     35       2.00000          -0.592421          -16.12060
     36       2.00000          -0.574123          -15.62269
     37       2.00000          -0.565513          -15.38840
     38       2.00000          -0.561715          -15.28504
     39       2.00000          -0.557653          -15.17452
     40       2.00000          -0.550820          -14.98858
     41       2.00000          -0.548468          -14.92456
     42       2.00000          -0.543918          -14.80076
     43       2.00000          -0.541095          -14.72395
     44       2.00000          -0.530454          -14.43439
     45       2.00000          -0.520270          -14.15728
     46       2.00000          -0.515329          -14.02280
     47       2.00000          -0.509774          -13.87164
     48       2.00000          -0.500693          -13.62455
     49       2.00000          -0.495958          -13.49569
     50       2.00000          -0.487461          -13.26449
     51       2.00000          -0.483074          -13.14511
     52       2.00000          -0.469258          -12.76917
     53       2.00000          -0.415916          -11.31765
     54       2.00000          -0.408692          -11.12106
     55       2.00000          -0.403465          -10.97885
     56       2.00000          -0.385236          -10.48279
     57       2.00000          -0.381723          -10.38721
     58       2.00000          -0.375919          -10.22928
     59       0.00000          -0.169742           -4.61892
     60       0.00000          -0.157861           -4.29561
     61       0.00000          -0.155178           -4.22260
     62       0.00000          -0.088055           -2.39609
     63       0.00000          -0.065112           -1.77180
     64       0.00000          -0.061613           -1.67659
     65       0.00000          -0.054083           -1.47167
     66       0.00000          -0.044558           -1.21248
     67       0.00000          -0.037820           -1.02915
     68       0.00000          -0.034813           -0.94730
     69       0.00000          -0.027699           -0.75374
     70       0.00000          -0.021383           -0.58187
     71       0.00000          -0.019581           -0.53282
     72       0.00000          -0.016220           -0.44138
     73       0.00000          -0.012413           -0.33778
     74       0.00000          -0.005542           -0.15081
     75       0.00000          -0.001854           -0.05045
     76       0.00000           0.002087            0.05678
     77       0.00000           0.005161            0.14044
     78       0.00000           0.007960            0.21661
     79       0.00000           0.011521            0.31350
     80       0.00000           0.015534            0.42271
     81       0.00000           0.019531            0.53146
     82       0.00000           0.026088            0.70990
     83       0.00000           0.032718            0.89030
     84       0.00000           0.034546            0.94004
     85       0.00000           0.046280            1.25934
     86       0.00000           0.047939            1.30448
     87       0.00000           0.052655            1.43281
     88       0.00000           0.058183            1.58324
     89       0.00000           0.062816            1.70930
     90       0.00000           0.068280            1.85798
     91       0.00000           0.080780            2.19814
     92       0.00000           0.082726            2.25109
     93       0.00000           0.092465            2.51611
     94       0.00000           0.095866            2.60865
     95       0.00000           0.101031            2.74919
     96       0.00000           0.107013            2.91197
     97       0.00000           0.110634            3.01051
     98       0.00000           0.115455            3.14170
     99       0.00000           0.118492            3.22434
    100       0.00000           0.121848            3.31564
    101       0.00000           0.133140            3.62293
    102       0.00000           0.134590            3.66238
    103       0.00000           0.138163            3.75962
    104       0.00000           0.139625            3.79939
    105       0.00000           0.141190            3.84199
    106       0.00000           0.155345            4.22716
    107       0.00000           0.160046            4.35507
    108       0.00000           0.164474            4.47555
    109       0.00000           0.170007            4.62613
    110       0.00000           0.172974            4.70685
    111       0.00000           0.176289            4.79708
    112       0.00000           0.186805            5.08321
    113       0.00000           0.190744            5.19040
    114       0.00000           0.196010            5.33370
    115       0.00000           0.199183            5.42005
    116       0.00000           0.206116            5.60872
    117       0.00000           0.212110            5.77181
    118       0.00000           0.212457            5.78126
    119       0.00000           0.216142            5.88152
    120       0.00000           0.220569            6.00199
    121       0.00000           0.224876            6.11918
    122       0.00000           0.227928            6.20222
    123       0.00000           0.234722            6.38711
    124       0.00000           0.240336            6.53987
    125       0.00000           0.243284            6.62010
    126       0.00000           0.253610            6.90109
    127       0.00000           0.259667            7.06591
    128       0.00000           0.263539            7.17126
    129       0.00000           0.268145            7.29660

  Highest occupied state (VBM) at    -10.22928419 eV
  | Occupation number:      2.00000000

  Lowest unoccupied state (CBM) at    -4.61891742 eV
  | Occupation number:      0.00000000

  Overall HOMO-LUMO gap:      5.61036677 eV.
  Calculating total energy contributions from superposition of free atom densities.

  Total energy components:
  | Sum of eigenvalues            :        -437.84921755 Ha      -11914.48341170 eV
  | XC energy correction          :         -98.81828207 Ha       -2688.98226896 eV
  | XC potential correction       :         127.01950092 Ha        3456.37647863 eV
  | Free-atom electrostatic energy:        -333.63159303 Ha       -9078.57755918 eV
  | Hartree energy correction     :           0.00000000 Ha           0.00000000 eV
  | vdW energy correction         :           0.00000000 Ha           0.00000000 eV
  | Entropy correction            :          -0.00000000 Ha          -0.00000000 eV
  | ---------------------------
  | Total energy                  :        -743.27959172 Ha      -20225.66676121 eV
  | Total energy, T -> 0          :        -743.27959172 Ha      -20225.66676121 eV  <-- do not rely on this value for anything but (periodic) metals
  | Electronic free energy        :        -743.27959172 Ha      -20225.66676121 eV

  Derived energy quantities:
  | Kinetic energy                :         735.15722480 Ha       20004.64591189 eV
  | Electrostatic energy          :       -1379.61853445 Ha      -37541.33040413 eV
  | Energy correction for multipole
  | error in Hartree potential    :           0.00000000 Ha           0.00000000 eV
  | Sum of eigenvalues per atom                           :        -372.32760662 eV
  | Total energy (T->0) per atom                          :        -632.05208629 eV  <-- do not rely on this value for anything but (periodic) metals
  | Electronic free energy per atom                       :        -632.05208629 eV
  Initialize hartree_potential_storage
  Max. number of atoms included in rho_multipole:           32

  End scf initialization - timings             :  max(cpu_time)    wall_clock(cpu1)
  | Time for scf. initialization               :        2.068 s           2.066 s
  | Boundary condition initialization          :        0.000 s           0.001 s
  | Integration                                :        1.276 s           1.273 s
  | Solution of K.-S. eqns.                    :        0.076 s           0.074 s
  | Grid partitioning                          :        0.332 s           0.326 s
  | Preloading free-atom quantities on grid    :        0.028 s           0.028 s
  | Free-atom superposition energy             :        0.044 s           0.041 s
  | Total energy evaluation                    :        0.000 s           0.001 s
------------------------------------------------------------

------------------------------------------------------------
          Begin self-consistency iteration #    1

  Date     :  20170309, Time     :  185813.606
------------------------------------------------------------
  Evaluating new KS density.
  Integration grid: deviation in total charge (<rho> - N_e) =   1.421085E-14
  Pulay mixing of updated and previous charge densities.

  Evaluating partitioned Hartree potential by multipole expansion.
  | Analytical far-field extrapolation by fixed multipoles:
  | Hartree multipole sum: apparent total charge =   0.104110E-04
  Summing up the Hartree potential.
  Time summed over all CPUs for potential: real work        9.669 s, elapsed        9.927 s
  | RMS charge density error from multipole expansion :   0.109839E-01

  Integrating Hamiltonian matrix: batch-based integration.
  Time summed over all CPUs for integration: real work       23.671 s, elapsed       24.675 s

  Updating Kohn-Sham eigenvalues, eigenvectors, occupation numbers, and Fermi level.
  Solving generalized eigenproblem
  Solving real symmetric generalised eigenvalue problem by standard ScaLAPACK.
  Using Cholesky factor for transformation
  Using 2-stage real ELPA solver
  K-Point:    1, Trafo times: 1-stage=     0.021 s, 2-stage=     0.023 s ==> Using 1-stage solver
  Determining occupation numbers for Kohn-Sham eigenstates.
  | Chemical potential (Fermi level) in eV                 : -.39059792E+01
  | Error in electron count due to remaining E_F inaccuracy: 0.00000000E+00
  | Maximum occupation number of highest empty state:  0.00E+00

  Writing Kohn-Sham eigenvalues.

  State    Occupation    Eigenvalue [Ha]    Eigenvalue [eV]
      1       2.00000         -18.617751         -506.61479
      2       2.00000         -18.614622         -506.52963
      3       2.00000         -18.608343         -506.35878
      4       2.00000         -14.004609         -381.08481
      5       2.00000         -13.994941         -380.82171
      6       2.00000         -13.992219         -380.74764
      7       2.00000         -10.058009         -273.69235
      8       2.00000         -10.056895         -273.66203
      9       2.00000         -10.056417         -273.64904
     10       2.00000          -9.966003         -271.18874
     11       2.00000          -9.962645         -271.09738
     12       2.00000          -9.907898         -269.60763
     13       2.00000          -9.857156         -268.22687
     14       2.00000          -9.845925         -267.92124
     15       2.00000          -9.823369         -267.30747
     16       2.00000          -0.967562          -26.32870
     17       2.00000          -0.963262          -26.21170
     18       2.00000          -0.955918          -26.01184
     19       2.00000          -0.874676          -23.80114
     20       2.00000          -0.867497          -23.60579
     21       2.00000          -0.858494          -23.36082
     22       2.00000          -0.742877          -20.21472
     23       2.00000          -0.725408          -19.73935
     24       2.00000          -0.693598          -18.87377
     25       2.00000          -0.684138          -18.61634
     26       2.00000          -0.634507          -17.26581
     27       2.00000          -0.625271          -17.01448
     28       2.00000          -0.574894          -15.64366
     29       2.00000          -0.569407          -15.49435
     30       2.00000          -0.555205          -15.10790
     31       2.00000          -0.506068          -13.77081
     32       2.00000          -0.494334          -13.45152
     33       2.00000          -0.471785          -12.83792
     34       2.00000          -0.465755          -12.67383
     35       2.00000          -0.458708          -12.48209
     36       2.00000          -0.448197          -12.19606
     37       2.00000          -0.438959          -11.94468
     38       2.00000          -0.429362          -11.68354
     39       2.00000          -0.413804          -11.26017
     40       2.00000          -0.405161          -11.02499
     41       2.00000          -0.403213          -10.97199
     42       2.00000          -0.389682          -10.60379
     43       2.00000          -0.382697          -10.41371
     44       2.00000          -0.377404          -10.26967
     45       2.00000          -0.374466          -10.18973
     46       2.00000          -0.367954          -10.01254
     47       2.00000          -0.363574           -9.89335
     48       2.00000          -0.358547           -9.75656
     49       2.00000          -0.355078           -9.66216
     50       2.00000          -0.344531           -9.37516
     51       2.00000          -0.336926           -9.16821
     52       2.00000          -0.329644           -8.97006
     53       2.00000          -0.249931           -6.80098
     54       2.00000          -0.236499           -6.43547
     55       2.00000          -0.232108           -6.31598
     56       2.00000          -0.214970           -5.84962
     57       2.00000          -0.211897           -5.76600
     58       2.00000          -0.204147           -5.55511
     59       0.00000          -0.057321           -1.55979
     60       0.00000          -0.054182           -1.47436
     61       0.00000          -0.048542           -1.32088
     62       0.00000          -0.042047           -1.14416
     63       0.00000          -0.027777           -0.75585
     64       0.00000          -0.019675           -0.53538
     65       0.00000          -0.006663           -0.18132
     66       0.00000          -0.001163           -0.03164
     67       0.00000           0.004122            0.11218
     68       0.00000           0.015944            0.43386
     69       0.00000           0.019936            0.54248
     70       0.00000           0.026354            0.71713
     71       0.00000           0.035141            0.95624
     72       0.00000           0.037268            1.01411
     73       0.00000           0.043221            1.17611
     74       0.00000           0.049980            1.36002
     75       0.00000           0.053738            1.46229
     76       0.00000           0.062679            1.70557
     77       0.00000           0.063352            1.72389
     78       0.00000           0.068381            1.86073
     79       0.00000           0.074662            2.03166
     80       0.00000           0.084083            2.28800
     81       0.00000           0.089955            2.44781
     82       0.00000           0.091571            2.49176
     83       0.00000           0.095199            2.59050
     84       0.00000           0.104899            2.85444
     85       0.00000           0.111002            3.02051
     86       0.00000           0.114475            3.11502
     87       0.00000           0.125522            3.41564
     88       0.00000           0.128394            3.49378
     89       0.00000           0.131147            3.56869
     90       0.00000           0.136295            3.70877
     91       0.00000           0.145169            3.95026
     92       0.00000           0.149565            4.06987
     93       0.00000           0.154151            4.19467
     94       0.00000           0.159548            4.34153
     95       0.00000           0.164572            4.47824
     96       0.00000           0.168361            4.58135
     97       0.00000           0.170213            4.63173
     98       0.00000           0.173540            4.72226
     99       0.00000           0.177226            4.82257
    100       0.00000           0.188847            5.13880
    101       0.00000           0.191039            5.19845
    102       0.00000           0.196042            5.33457
    103       0.00000           0.197471            5.37345
    104       0.00000           0.204362            5.56097
    105       0.00000           0.207179            5.63764
    106       0.00000           0.213331            5.80503
    107       0.00000           0.215933            5.87584
    108       0.00000           0.217063            5.90658
    109       0.00000           0.224107            6.09827
    110       0.00000           0.227537            6.19159
    111       0.00000           0.235018            6.39515
    112       0.00000           0.244299            6.64772
    113       0.00000           0.247921            6.74627
    114       0.00000           0.248198            6.75382
    115       0.00000           0.260180            7.07987
    116       0.00000           0.261900            7.12667
    117       0.00000           0.273048            7.43001
    118       0.00000           0.275531            7.49757
    119       0.00000           0.278462            7.57733
    120       0.00000           0.281467            7.65910
    121       0.00000           0.282447            7.68577
    122       0.00000           0.291364            7.92841
    123       0.00000           0.302208            8.22351
    124       0.00000           0.305856            8.32276
    125       0.00000           0.319648            8.69807
    126       0.00000           0.322509            8.77592
    127       0.00000           0.328939            8.95088
    128       0.00000           0.331599            9.02328
    129       0.00000           0.339683            9.24324

  Highest occupied state (VBM) at     -5.55511001 eV
  | Occupation number:      2.00000000

  Lowest unoccupied state (CBM) at    -1.55979497 eV
  | Occupation number:      0.00000000

  Overall HOMO-LUMO gap:      3.99531504 eV.

  Total energy components:
  | Sum of eigenvalues            :        -417.84982991 Ha      -11370.27238490 eV
  | XC energy correction          :        -100.75064857 Ha       -2741.56463685 eV
  | XC potential correction       :         129.52501190 Ha        3524.55490117 eV
  | Free-atom electrostatic energy:        -333.63159303 Ha       -9078.57755918 eV
  | Hartree energy correction     :         -20.00157792 Ha        -544.27062734 eV
  | vdW energy correction         :           0.00000000 Ha           0.00000000 eV
  | Entropy correction            :           0.00000000 Ha           0.00000000 eV
  | ---------------------------
  | Total energy                  :        -742.70863752 Ha      -20210.13030710 eV
  | Total energy, T -> 0          :        -742.70863752 Ha      -20210.13030710 eV  <-- do not rely on this value for anything but (periodic) metals
  | Electronic free energy        :        -742.70863752 Ha      -20210.13030710 eV

  Derived energy quantities:
  | Kinetic energy                :         744.03344747 Ha       20246.18022007 eV
  | Electrostatic energy          :       -1385.99143643 Ha      -37714.74589032 eV
  | Energy correction for multipole
  | error in Hartree potential    :          -0.04204555 Ha          -1.14411757 eV
  | Sum of eigenvalues per atom                           :        -355.32101203 eV
  | Total energy (T->0) per atom                          :        -631.56657210 eV  <-- do not rely on this value for anything but (periodic) metals
  | Electronic free energy per atom                       :        -631.56657210 eV

  Self-consistency convergence accuracy:
  | Change of charge density      :  0.9036E+00
  | Change of sum of eigenvalues  :  0.5442E+03 eV
  | Change of total energy        :  0.1554E+02 eV

  End self-consistency iteration #     1       :  max(cpu_time)    wall_clock(cpu1)
  | Time for this iteration                    :        1.656 s           1.655 s
  | Charge density update                      :        0.516 s           0.515 s
[...]
   ----------------------------------------------------------------
   Total forces(  20)            : -0.346930E-02  0.984410E-03 -0.418708E-02
  atom #   21
   Hellmann-Feynman              : -0.517744E-02  0.408820E-01 -0.597809E-01
   Ionic forces                  :  0.000000E+00  0.000000E+00  0.000000E+00
   Multipole                     :  0.722080E-02 -0.472818E-01  0.507847E-02
   Pulay + GGA                   :  0.887261E-02  0.556520E-02  0.621125E-01
   Van der Waals                 : -0.104818E-01  0.843700E-03 -0.993842E-02
   ----------------------------------------------------------------
   Total forces(  21)            :  0.434154E-03  0.909478E-05 -0.252840E-02
  atom #   22
   Hellmann-Feynman              :  0.444968E-01  0.256572E-01  0.540990E-01
   Ionic forces                  :  0.000000E+00  0.000000E+00  0.000000E+00
   Multipole                     :  0.666166E-02 -0.118996E-01  0.109956E-03
   Pulay + GGA                   : -0.494724E-01 -0.471169E-02 -0.524395E-01
   Van der Waals                 : -0.548392E-03 -0.755390E-02 -0.903703E-04
   ----------------------------------------------------------------
   Total forces(  22)            :  0.113768E-02  0.149205E-02  0.167908E-02
  atom #   23
   Hellmann-Feynman              :  0.108965E+01 -0.216785E+00  0.206542E+00
   Ionic forces                  :  0.000000E+00  0.000000E+00  0.000000E+00
   Multipole                     : -0.314941E+00  0.106108E+00 -0.132028E+00
   Pulay + GGA                   : -0.769741E+00  0.985158E-01 -0.392490E-01
   Van der Waals                 : -0.776438E-02  0.131230E-01 -0.339358E-01
   ----------------------------------------------------------------
   Total forces(  23)            : -0.279400E-02  0.962101E-03  0.132924E-02
  atom #   24
   Hellmann-Feynman              : -0.609651E-01 -0.165027E-01 -0.134864E-01
   Ionic forces                  :  0.000000E+00  0.000000E+00  0.000000E+00
   Multipole                     :  0.155784E-01 -0.398677E-02 -0.310417E-01
   Pulay + GGA                   :  0.356215E-01  0.191258E-01  0.485531E-01
   Van der Waals                 :  0.983470E-02  0.970329E-03 -0.592388E-02
   ----------------------------------------------------------------
   Total forces(  24)            :  0.694915E-04 -0.393302E-03 -0.189894E-02
  atom #   25
   Hellmann-Feynman              : -0.273397E-01  0.239934E-01  0.191993E-01
   Ionic forces                  :  0.000000E+00  0.000000E+00  0.000000E+00
   Multipole                     :  0.144942E-01 -0.323392E-01  0.156068E-01
   Pulay + GGA                   :  0.183371E-01  0.932509E-02 -0.372512E-01
   Van der Waals                 : -0.581959E-02 -0.160434E-02  0.240267E-02
   ----------------------------------------------------------------
   Total forces(  25)            : -0.327929E-03 -0.625125E-03 -0.423892E-04
  atom #   26
   Hellmann-Feynman              : -0.302564E-01  0.277215E-01  0.453729E-01
   Ionic forces                  :  0.000000E+00  0.000000E+00  0.000000E+00
   Multipole                     :  0.259985E-01  0.215690E-01  0.624726E-02
   Pulay + GGA                   : -0.212402E-02 -0.535649E-01 -0.408023E-01
   Van der Waals                 :  0.586943E-02  0.537763E-02 -0.116312E-01
   ----------------------------------------------------------------
   Total forces(  26)            : -0.512458E-03  0.110328E-02 -0.813360E-03
  atom #   27
   Hellmann-Feynman              :  0.805960E+00 -0.195598E+01  0.644703E-01
   Ionic forces                  :  0.000000E+00  0.000000E+00  0.000000E+00
   Multipole                     :  0.100417E+00 -0.668386E-01  0.101607E+00
   Pulay + GGA                   : -0.911435E+00  0.201951E+01 -0.166320E+00
   Van der Waals                 :  0.553568E-02  0.227579E-02 -0.902259E-03
   ----------------------------------------------------------------
   Total forces(  27)            :  0.478751E-03 -0.103215E-02 -0.114490E-02
  atom #   28
   Hellmann-Feynman              : -0.132538E+01  0.117693E+01 -0.108292E+01
   Ionic forces                  :  0.000000E+00  0.000000E+00  0.000000E+00
   Multipole                     :  0.406699E-01 -0.917679E-01  0.631877E-01
   Pulay + GGA                   :  0.127781E+01 -0.109984E+01  0.102895E+01
   Van der Waals                 :  0.600125E-02  0.151656E-01 -0.896120E-02
   ----------------------------------------------------------------
   Total forces(  28)            : -0.894808E-03  0.488833E-03  0.259914E-03
  atom #   29
   Hellmann-Feynman              :  0.646756E-01  0.114061E-01 -0.727828E-02
   Ionic forces                  :  0.000000E+00  0.000000E+00  0.000000E+00
   Multipole                     : -0.236339E-01  0.147604E-01 -0.296239E-01
   Pulay + GGA                   : -0.468461E-01 -0.267190E-01  0.420353E-01
   Van der Waals                 :  0.710430E-02  0.334110E-02 -0.400623E-02
   ----------------------------------------------------------------
   Total forces(  29)            :  0.129988E-02  0.278862E-02  0.112687E-02
  atom #   30
   Hellmann-Feynman              : -0.877678E-02 -0.519530E-01  0.650492E-01
   Ionic forces                  :  0.000000E+00  0.000000E+00  0.000000E+00
   Multipole                     : -0.190227E-01  0.298216E-01  0.177436E-01
   Pulay + GGA                   :  0.216458E-01  0.975070E-02 -0.730609E-01
   Van der Waals                 :  0.546084E-02  0.121204E-01 -0.742255E-02
   ----------------------------------------------------------------
   Total forces(  30)            : -0.692897E-03 -0.260303E-03  0.230933E-02
  atom #   31
   Hellmann-Feynman              :  0.204279E-01 -0.479170E-01  0.372980E-01
   Ionic forces                  :  0.000000E+00  0.000000E+00  0.000000E+00
   Multipole                     : -0.672497E-02 -0.210603E-01 -0.183112E-01
   Pulay + GGA                   : -0.180868E-01  0.606420E-01 -0.136841E-01
   Van der Waals                 :  0.380166E-02  0.686003E-02 -0.605659E-02
   ----------------------------------------------------------------
   Total forces(  31)            : -0.582167E-03 -0.147532E-02 -0.753796E-03
  atom #   32
   Hellmann-Feynman              :  0.491189E-01 -0.264320E-01  0.256449E-01
   Ionic forces                  :  0.000000E+00  0.000000E+00  0.000000E+00
   Multipole                     :  0.694413E-02  0.420049E-01 -0.228588E-01
   Pulay + GGA                   : -0.623976E-01 -0.188083E-01  0.894725E-03
   Van der Waals                 :  0.723897E-02  0.311140E-02 -0.300163E-02
   ----------------------------------------------------------------
   Total forces(  32)            :  0.904415E-03 -0.123991E-03  0.679181E-03

  Timings for VdW correction (Tkatchenko-Scheffler 2009 or later):
  | CPU time:        0.128 s, Wall clock time:        0.130 s.
  Removing unitary transformations (pure translations, rotations) from forces on atoms.
  Atomic forces before filtering:
  | Net force on center of mass :  -0.110873E-03 -0.247563E-03 -0.148541E-03 eV/A
  | Net torque on center of mass:  -0.247540E-02  0.208765E-02 -0.629417E-03 eV
  Atomic forces after filtering:
  | Net force on center of mass :   0.104535E-17  0.261337E-18 -0.121957E-17 eV/A
  | Net torque on center of mass:   0.209745E-17  0.110635E-17 -0.184392E-17 eV

  Energy and forces in a compact form:
  | Total energy uncorrected      :         -0.202084433815847E+05 eV
  | Total energy corrected        :         -0.202084433815847E+05 eV  <-- do not rely on this value for anything but (periodic) metals
  | Electronic free energy        :         -0.202084433815847E+05 eV
  Total atomic forces (unitary forces cleaned) [eV/Ang]:
  |   1          0.844586409905215E-04         -0.402667694035412E-03         -0.119512637554123E-02
  |   2          0.239116247189083E-02          0.435844096855620E-02          0.341018639100260E-02
  |   3         -0.363945092888148E-02         -0.227786167131802E-02         -0.725735520730847E-03
  |   4         -0.210278549649677E-03         -0.484149132835168E-03         -0.101520863322515E-02
  |   5         -0.214047386184988E-03          0.697299359300068E-03          0.316866632517166E-03
  |   6          0.494879787175478E-03          0.893002856890239E-03         -0.420510225103936E-03
  |   7          0.216229874570758E-02         -0.155095039557381E-02         -0.133159105544133E-03
  |   8         -0.109659528190206E-02          0.301814812431849E-03          0.216854025693131E-02
  |   9          0.998659187521169E-03          0.461625326587539E-02         -0.139230086690344E-02
  |  10         -0.172198507046048E-04         -0.430305097336953E-02         -0.147650528042464E-02
  |  11          0.114141126329118E-02          0.461364022197697E-03          0.376119777733980E-03
  |  12         -0.116541219887437E-02         -0.110235627984717E-02          0.730009767122040E-03
  |  13          0.121399891868446E-02         -0.228282575644115E-02          0.348921936524778E-03
  |  14          0.807389721274362E-03          0.454426940744250E-03         -0.354709633223163E-03
  |  15          0.367244552303636E-03         -0.755743523002772E-03         -0.319209325408470E-04
  |  16         -0.469483237230710E-03         -0.243430791865067E-03         -0.158888576269614E-02
  |  17         -0.821031005182931E-03         -0.149911679778128E-03          0.291228485428867E-02
  |  18         -0.451631035135496E-03         -0.247480142842058E-02          0.464230516429738E-03
  |  19          0.350366239058584E-02          0.491142389551330E-03          0.179398175702772E-02
  |  20         -0.349554002238885E-02          0.951032661814476E-03         -0.421218829763127E-02
  |  21          0.406022575915446E-03         -0.149501819567331E-04         -0.250731918076093E-02
  |  22          0.114214421176581E-02          0.149759291182736E-02          0.167032698268967E-02
  |  23         -0.279938343951590E-02          0.960492298084833E-03          0.133667601010062E-02
  |  24          0.522723311842713E-04         -0.406998468151355E-03         -0.188606263726053E-02
  |  25         -0.327141399436005E-03         -0.615926266607107E-03         -0.196276916629890E-04
  |  26         -0.510752817982006E-03          0.110625490723103E-02         -0.819830245275281E-03
  |  27          0.462971954016873E-03         -0.105665018269241E-02         -0.118210017994754E-02
  |  28         -0.902035874463801E-03          0.474588605893137E-03          0.224928084531232E-03
  |  29          0.127661199999061E-02          0.275260700049652E-02          0.107757009143138E-02
  |  30         -0.687630257888257E-03         -0.259750223537596E-03          0.227682046869379E-02
  |  31         -0.595451876289567E-03         -0.149274666985651E-02         -0.773918678448419E-03
  |  32          0.897896409412612E-03         -0.141541681605874E-03          0.627645719895785E-03

  ------------------------------------ 
  Start decomposition of the XC Energy 
  ------------------------------------ 
  Hartree-Fock part   :          0.000000000 Ha              0.000000000 eV
  ------------------------------------ 
  X Energy            :        -96.982586149 Ha          -2639.030441501 eV
  C Energy GGA        :         -3.868560484 Ha           -105.268886803 eV
  Total XC Energy     :       -100.851146633 Ha          -2744.299328304 eV
  LDA X and C from self-consistent density 
  X Energy LDA        :        -87.999045847 Ha          -2394.575872185 eV
  C Energy LDA        :         -7.531929221 Ha           -204.954222070 eV
  ------------------------------------ 
  End decomposition of the XC Energy 
  ------------------------------------ 
   
  ESP charge fitting starts.
  | Calculation :  00000001  of  00000001
  | Full density
  Computing multipole expansion for total density.
  Generating points for esp charges.
  Partitioning the integration grid into batches with parallel hashing+maxmin method.
  | Number of batches:     3930
  | Maximal batch size:     192
  | Minimal batch size:      52
  | Average batch size:     123.901
  | Standard deviation of batch sizes:      15.995

  Integration load balanced across    32 MPI tasks.
  Work distribution over tasks is as follows:
  Initializing partition tables, free-atom densities, potentials, etc. across the integration grid (initialize_grid_storage).
  | Original list of interatomic distances with          32 x         32 entries is created.
  | Net number of integration points:   486932
  | of which are non-zero points    :   486932
  Summing up potential from multipole expanded  density.
  Summing up the Hartree potential.
  Time summed over all CPUs for potential: real work        6.448 s, elapsed        6.716 s
  Fitting esp charges to potential.
  |
  | ESP charges fitted to the electrostatic potential :
  |
  | Atom         1: C, ESP charge:      0.77191856
  |
  | Atom         2: C, ESP charge:     -0.57774614
  |
  | Atom         3: O, ESP charge:      0.50388122
  |
  | Atom         4: H, ESP charge:     -0.21855144
  |
  | Atom         5: H, ESP charge:     -0.23528796
  |
  | Atom         6: H, ESP charge:     -0.19029547
  |
  | Atom         7: N, ESP charge:      0.30543416
  |
  | Atom         8: C, ESP charge:     -0.08221705
  |
  | Atom         9: C, ESP charge:     -0.24455173
  |
  | Atom        10: O, ESP charge:      0.46474391
  |
  | Atom        11: H, ESP charge:     -0.26269405
  |
  | Atom        12: H, ESP charge:     -0.14642858
  |
  | Atom        13: C, ESP charge:      0.50631826
  |
  | Atom        14: H, ESP charge:     -0.10494380
  |
  | Atom        15: H, ESP charge:     -0.14335505
  |
  | Atom        16: H, ESP charge:     -0.19332320
  |
  | Atom        17: N, ESP charge:      0.35005576
  |
  | Atom        18: C, ESP charge:     -0.76123954
  |
  | Atom        19: C, ESP charge:     -0.15671367
  |
  | Atom        20: O, ESP charge:      0.47298002
  |
  | Atom        21: H, ESP charge:     -0.25676031
  |
  | Atom        22: H, ESP charge:      0.17871300
  |
  | Atom        23: C, ESP charge:      0.36714869
  |
  | Atom        24: H, ESP charge:     -0.07933173
  |
  | Atom        25: H, ESP charge:     -0.08001913
  |
  | Atom        26: H, ESP charge:     -0.08761176
  |
  | Atom        27: N, ESP charge:      0.35763235
  |
  | Atom        28: C, ESP charge:      0.15475016
  |
  | Atom        29: H, ESP charge:     -0.32036549
  |
  | Atom        30: H, ESP charge:     -0.08151156
  |
  | Atom        31: H, ESP charge:     -0.10562687
  |
  | Atom        32: H, ESP charge:     -0.10500158

  RRMS:       0.00211977

  Done.

------------------------------------------------------------------------------
  Final output of selected total energy values:

  The following output summarizes some interesting total energy values
  at the end of a run (AFTER all relaxation, molecular dynamics, etc.).

  | Total energy of the DFT / Hartree-Fock s.c.f. calculation      :         -20208.443381585 eV
  | Final zero-broadening corrected energy (caution - metals only) :         -20208.443381585 eV
  | For reference only, the value of 1 Hartree used in FHI-aims is :             27.211384500 eV

  Before relying on these values, please be sure to understand exactly which
  total energy value is referred to by a given number. Different objects may
  all carry the same name 'total energy'. Definitions:

  Total energy of the DFT / Hartree-Fock s.c.f. calculation:
  | Note that this energy does not include ANY quantities calculated after the
  | s.c.f. cycle, in particular not ANY RPA, MP2, etc. many-body perturbation terms.

  Final zero-broadening corrected energy:
  | For metallic systems only, a broadening of the occupation numbers at the Fermi
  | level can be extrapolated back to zero broadening by an electron-gas inspired
  | formula. For all systems that are not real metals, this value can be
  | meaningless and should be avoided.

------------------------------------------------------------------------------
  Methods described in the following list of references were used in this FHI-aims run.
  If you publish the results, please make sure to cite these reference if they apply.
  FHI-aims is an academic code, and for our developers (often, Ph.D. students
  and postdocs), scientific credit in the community is essential.
  Thank you for helping us!

  For any use of FHI-aims, please cite:

    Volker Blum, Ralf Gehrke, Felix Hanke, Paula Havu, Ville Havu,
    Xinguo Ren, Karsten Reuter, and Matthias Scheffler
    'Ab initio molecular simulations with numeric atom-centered orbitals'
    Computer Physics Communications 180, 2175-2196 (2009)
    http://dx.doi.org/10.1016/j.cpc.2009.06.022


  The scalable eigensolver library ELPA was used in your run.
  ELPA is essential especially for large systems on hundreds or thousands of CPUs.
  For ELPA, please cite:

    Andreas Marek, Volker Blum, Rainer Johanni, Ville Havu, Bruno Lang,
    Thomas Auckenthaler, Alexander Heinecke, Hans-Joachim Bungartz, and Hermann Lederer,
    'The ELPA Library - Scalable Parallel Eigenvalue Solutions
    for Electronic Structure Theory and Computational Science'
    The Journal of Physics: Condensed Matter 26, 213201 (2014).
    http://dx.doi.org/10.1088/0953-8984/26/21/213201


  For ELPA's efficient two-stage tridiagonalization used in your run, please cite:

    T. Auckenthaler, V. Blum, H.-J. Bungartz, T. Huckle, R. Johanni, L. Kraemer,
    B. Lang, H. Lederer, and P. R. Willems,
    'Parallel solution of partial symmetric eigenvalue problems'
    'from  electronic structure calculations'
    Parallel Computing 37, 783-794 (2011).
    http://dx.doi.org/10.1016/j.parco.2011.05.002


  For the real-space grid partitioning and parallelization used in this calculation, please cite:

    Ville Havu, Volker Blum, Paula Havu, and Matthias Scheffler,
    'Efficient O(N) integration for all-electron electronic structure calculation'
    'using numerically tabulated basis functions'
    Journal of Computational Physics 228, 8367-8379 (2009).
    http://dx.doi.org/10.1016/j.jcp.2009.08.008

  Of course, there are many other important community references, e.g., those cited in the
  above references. Our list is limited to references that describe implementations in the
  FHI-aims code. The reason is purely practical (length of this list) - please credit others as well.

------------------------------------------------------------
          Leaving FHI-aims.
          Date     :  20170309, Time     :  185843.101

          Computational steps:
          | Number of self-consistency cycles          :           14

          Detailed time accounting                     :  max(cpu_time)    wall_clock(cpu1)
          | Total time                                 :       32.470 s          32.623 s
          | Preparation time                           :        0.240 s           0.236 s
          | Grid partitioning                          :        0.332 s           0.326 s
          | Preloading free-atom quantities on grid    :        0.028 s           0.028 s
          | Free-atom superposition energy             :        0.044 s           0.041 s
          | Total time for integrations                :       12.213 s          12.202 s
          | Total time for solution of K.-S. equations :        0.584 s           0.539 s
          | Total time for density & force components  :       10.257 s          10.245 s
          | Total time for mixing                      :        0.128 s           0.106 s
          | Total time for Hartree multipole update    :        0.064 s           0.058 s
          | Total time for Hartree multipole sum       :        6.412 s           6.398 s
          | Total time for total energy evaluation     :        0.032 s           0.023 s
          | Total time for vdW correction              :        0.128 s           0.130 s

          Have a nice day.
------------------------------------------------------------
