  MPI-parallelism will be employed.
------------------------------------------------------------
          Invoking FHI-aims ...
          Version 150427
          Git rev.: 9dd23e0 BL: Update Version stamp
          Compiled on 2015/11/03 at 22:05:20 on host eos03.

          When using FHI-aims, please cite the following reference:

          Volker Blum, Ralf Gehrke, Felix Hanke, Paula Havu,
          Ville Havu, Xinguo Ren, Karsten Reuter, and Matthias Scheffler,
          'Ab Initio Molecular Simulations with Numeric Atom-Centered Orbitals: FHI-aims',
          Computer Physics Communications 180, 2175-2196 (2009)

          For any questions about FHI-aims, please visit the aimsclub website
          with its forums and wiki. Contributions to both the forums and the
          wiki are warmly encouraged - they are for you, and everyone is welcome there.

------------------------------------------------------------

  Date     :  20170309, Time     :  161941.531
  Time zero on CPU 1             :   0.396024000000000E+00  s.
  Internal wall clock time zero  :           258308381.531  s.

  Using       32 parallel tasks.
  Task        0 on host eos188 reporting.
  Task        1 on host eos188 reporting.
  Task        2 on host eos188 reporting.
  Task        3 on host eos188 reporting.
  Task        4 on host eos188 reporting.
  Task        5 on host eos188 reporting.
  Task        6 on host eos188 reporting.
  Task        7 on host eos188 reporting.
  Task        8 on host eos188 reporting.
  Task        9 on host eos188 reporting.
  Task       10 on host eos188 reporting.
  Task       11 on host eos188 reporting.
  Task       12 on host eos188 reporting.
  Task       13 on host eos188 reporting.
  Task       14 on host eos188 reporting.
  Task       15 on host eos188 reporting.
  Task       16 on host eos188 reporting.
  Task       17 on host eos188 reporting.
  Task       18 on host eos188 reporting.
  Task       19 on host eos188 reporting.
  Task       20 on host eos188 reporting.
  Task       21 on host eos188 reporting.
  Task       22 on host eos188 reporting.
  Task       23 on host eos188 reporting.
  Task       24 on host eos188 reporting.
  Task       25 on host eos188 reporting.
  Task       26 on host eos188 reporting.
  Task       27 on host eos188 reporting.
  Task       28 on host eos188 reporting.
  Task       29 on host eos188 reporting.
  Task       30 on host eos188 reporting.
  Task       31 on host eos188 reporting.

  Performing system and environment tests:
  | Environment variable OMP_NUM_THREADS correctly set to 1.
  | Stacksize not measured: no C compiler
  | Checking for scalapack...
  | Testing pdtran()...
  | All pdtran() tests passed.

  Obtaining array dimensions for all initial allocations:
  
  -----------------------------------------------------------------------
  Parsing control.in (first pass over file, find array dimensions only).
  The contents of control.in will be repeated verbatim below
  unless switched off by setting 'verbatim_writeout .false.' .
  in the first line of control.in .
  -----------------------------------------------------------------------
  
  #########################################################################################
  #
  # Input for System
  #
  #########################################################################################
  #
  #
  #  Physical model
  #
    xc                 pbe
    vdw_correction_hirshfeld
    spin               none
    charge             0.
  #
  #  SCF convergence
  #
    occupation_type    gaussian 0.05
    mixer              pulay
      n_max_pulay        10
      charge_mix_param   0.5
    sc_accuracy_rho    1E-4
    sc_accuracy_eev    1E-2
    sc_accuracy_etot   1E-5
    sc_accuracy_forces 1E-4
    sc_iter_limit      1000
  #
  #  ESP charge
  #
    output esp
    esp equal_grid_n 80 80 80
  #
  #
  ################################################################################
  #
  #  FHI-aims code project
  # Volker Blum, Fritz Haber Institute Berlin, 2009
  #
  #  Suggested "tight" defaults for H atom (to be pasted into control.in file)
  #
  ################################################################################
    species        H
  #     global species definitions
      nucleus             1
      mass                1.00794
  #
      l_hartree           6
  #
      cut_pot             4.0  2.0  1.0
      basis_dep_cutoff    1e-4
  #
      radial_base         24 7.0
      radial_multiplier   2
      angular_grids       specified
        division   0.1930   50
        division   0.3175  110
        division   0.4293  194
        division   0.5066  302
        division   0.5626  434
  #      division   0.5922  590
  #      division   0.6227  974
  #      division   0.6868 1202
  #      outer_grid  770
        outer_grid  434
  ################################################################################
  #
  #  Definition of "minimal" basis
  #
  ################################################################################
  #     valence basis states
      valence      1  s   1.
  #     ion occupancy
      ion_occ      1  s   0.5
  ################################################################################
  #
  #  Suggested additional basis functions. For production calculations,
  #  uncomment them one after another (the most important basis functions are
  #  listed first).
  #
  #  Basis constructed for dimers: 0.5 A, 0.7 A, 1.0 A, 1.5 A, 2.5 A
  #
  ################################################################################
  #  "First tier" - improvements: -1014.90 meV to -62.69 meV
       hydro 2 s 2.1
       hydro 2 p 3.5
  #  "Second tier" - improvements: -12.89 meV to -1.83 meV
       hydro 1 s 0.85
       hydro 2 p 3.7
       hydro 2 s 1.2
       hydro 3 d 7
  #  "Third tier" - improvements: -0.25 meV to -0.12 meV
  #     hydro 4 f 11.2
  #     hydro 3 p 4.8
  #     hydro 4 d 9
  #     hydro 3 s 3.2
  ################################################################################
  #
  # For methods that use the localized form of the "resolution of identity" for
  # the two-electron Coulomb operator (RI_method LVL), particularly Hartree-Fock and
  # hybrid density functional calculations, the highest accuracy can be obtained by
  # uncommenting the line beginning with "for_aux"  below, thus adding an extra g radial
  # function to the construction of the product basis set for the expansion.
  # See Ref. New J. Phys. 17, 093020 (2015) for more information, particularly Figs. 1 and 6.
  #
  ################################################################################
  #
  # for_aux hydro 5 g 6.0
  ################################################################################
  #
  #  FHI-aims code project
  # Volker Blum, Fritz Haber Institute Berlin, 2009
  #
  #  Suggested "tight" defaults for C atom (to be pasted into control.in file)
  #
  ################################################################################
    species        C
  #     global species definitions
      nucleus             6
      mass                12.0107
  #
      l_hartree           6
  #
      cut_pot             4.0  2.0  1.0
      basis_dep_cutoff    1e-4
  #
      radial_base         34 7.0
      radial_multiplier   2
      angular_grids specified
        division   0.2187   50
        division   0.4416  110
        division   0.6335  194
        division   0.7727  302
        division   0.8772  434
  #      division   0.9334  590
  #      division   0.9924  770
  #      division   1.0230  974
  #      division   1.5020 1202
  #     outer_grid  974
        outer_grid  434
  ################################################################################
  #
  #  Definition of "minimal" basis
  #
  ################################################################################
  #     valence basis states
      valence      2  s   2.
      valence      2  p   2.
  #     ion occupancy
      ion_occ      2  s   1.
      ion_occ      2  p   1.
  ################################################################################
  #
  #  Suggested additional basis functions. For production calculations,
  #  uncomment them one after another (the most important basis functions are
  #  listed first).
  #
  #  Constructed for dimers: 1.0 A, 1.25 A, 1.5 A, 2.0 A, 3.0 A
  #
  ################################################################################
  #  "First tier" - improvements: -1214.57 meV to -155.61 meV
       hydro 2 p 1.7
       hydro 3 d 6
       hydro 2 s 4.9
  #  "Second tier" - improvements: -67.75 meV to -5.23 meV
       hydro 4 f 9.8
       hydro 3 p 5.2
       hydro 3 s 4.3
       hydro 5 g 14.4
       hydro 3 d 6.2
  #  "Third tier" - improvements: -2.43 meV to -0.60 meV
  #     hydro 2 p 5.6
  #     hydro 2 s 1.4
  #     hydro 3 d 4.9
  #     hydro 4 f 11.2
  #  "Fourth tier" - improvements: -0.39 meV to -0.18 meV
  #     hydro 2 p 2.1
  #     hydro 5 g 16.4
  #     hydro 4 d 13.2
  #     hydro 3 s 13.6
  #     hydro 4 f 17.6
  #  Further basis functions - improvements: -0.08 meV and below
  #     hydro 3 s 2
  #     hydro 3 p 6
  #     hydro 4 d 20
  ################################################################################
  #
  # For methods that use the localized form of the "resolution of identity" for
  # the two-electron Coulomb operator (RI_method LVL), particularly Hartree-Fock and
  # hybrid density functional calculations, the highest accuracy can be obtained by
  # uncommenting the line beginning with "for_aux"  below, thus adding an extra g radial
  # function to the construction of the product basis set for the expansion.
  # See Ref. New J. Phys. 17, 093020 (2015) for more information, particularly Figs. 1 and 6.
  #
  ################################################################################
  #
  # for_aux hydro 5 g 6.0
  ################################################################################
  #
  #  FHI-aims code project
  # Volker Blum, Fritz Haber Institute Berlin, 2009
  #
  #  Suggested "tight" defaults for N atom (to be pasted into control.in file)
  #
  ################################################################################
    species        N
  #     global species definitions
      nucleus             7
      mass                14.0067
  #
      l_hartree           6
  #
      cut_pot             4.0  2.0  1.0
      basis_dep_cutoff    1e-4
  #
      radial_base         35 7.0
      radial_multiplier   2
      angular_grids       specified
        division   0.1841   50
        division   0.3514  110
        division   0.5126  194
        division   0.6292  302
        division   0.6939  434
  #      division   0.7396  590
  #      division   0.7632  770
  #      division   0.8122  974
  #      division   1.1604 1202
  #      outer_grid  974
        outer_grid  434
  ################################################################################
  #
  #  Definition of "minimal" basis
  #
  ################################################################################
  #     valence basis states
      valence      2  s   2.
      valence      2  p   3.
  #     ion occupancy
      ion_occ      2  s   1.
      ion_occ      2  p   2.
  ################################################################################
  #
  #  Suggested additional basis functions. For production calculations,
  #  uncomment them one after another (the most important basis functions are
  #  listed first).
  #
  #  Constructed for dimers: 1.0 A, 1.1 A, 1.5 A, 2.0 A, 3.0 A
  #
  ################################################################################
  #  "First tier" - improvements: -1193.42 meV to -220.60 meV
       hydro 2 p 1.8
       hydro 3 d 6.8
       hydro 3 s 5.8
  #  "Second tier" - improvements: -80.21 meV to -6.86 meV
       hydro 4 f 10.8
       hydro 3 p 5.8
       hydro 1 s 0.8
       hydro 5 g 16
       hydro 3 d 4.9
  #  "Third tier" - improvements: -4.29 meV to -0.53 meV
  #     hydro 3 s 16
  #     ionic 2 p auto
  #     hydro 3 d 6.6
  #     hydro 4 f 11.6
  #  "Fourth tier" - improvements: -0.75 meV to -0.25 meV
  #     hydro 2 p 4.5
  #     hydro 2 s 2.4
  #     hydro 5 g 14.4
  #     hydro 4 d 14.4
  #     hydro 4 f 16.8
  # Further basis functions - -0.21 meV and below
  #     hydro 3 p 14.8
  #     hydro 3 s 4.4
  #     hydro 3 d 19.6
  #     hydro 5 g 12.8
  ################################################################################
  #
  # For methods that use the localized form of the "resolution of identity" for
  # the two-electron Coulomb operator (RI_method LVL), particularly Hartree-Fock and
  # hybrid density functional calculations, the highest accuracy can be obtained by
  # uncommenting the line beginning with "for_aux"  below, thus adding an extra g radial
  # function to the construction of the product basis set for the expansion.
  # See Ref. New J. Phys. 17, 093020 (2015) for more information, particularly Figs. 1 and 6.
  #
  ################################################################################
  #
  # for_aux hydro 5 g 6.0
  ################################################################################
  #
  #  FHI-aims code project
  # Volker Blum, Fritz Haber Institute Berlin, 2009
  #
  #  Suggested "tight" defaults for O atom (to be pasted into control.in file)
  #
  ################################################################################
    species        O
  #     global species definitions
      nucleus             8
      mass                15.9994
  #
      l_hartree           6
  #
      cut_pot             4.0  2.0  1.0
      basis_dep_cutoff    1e-4
  #
      radial_base         36 7.0
      radial_multiplier   2
       angular_grids specified
        division   0.1817   50
        division   0.3417  110
        division   0.4949  194
        division   0.6251  302
        division   0.8014  434
  #      division   0.8507  590
  #      division   0.8762  770
  #      division   0.9023  974
  #      division   1.2339 1202
  #      outer_grid 974
        outer_grid  434
  ################################################################################
  #
  #  Definition of "minimal" basis
  #
  ################################################################################
  #     valence basis states
      valence      2  s   2.
      valence      2  p   4.
  #     ion occupancy
      ion_occ      2  s   1.
      ion_occ      2  p   3.
  ################################################################################
  #
  #  Suggested additional basis functions. For production calculations,
  #  uncomment them one after another (the most important basis functions are
  #  listed first).
  #
  #  Constructed for dimers: 1.0 A, 1.208 A, 1.5 A, 2.0 A, 3.0 A
  #
  ################################################################################
  #  "First tier" - improvements: -699.05 meV to -159.38 meV
       hydro 2 p 1.8
       hydro 3 d 7.6
       hydro 3 s 6.4
  #  "Second tier" - improvements: -49.91 meV to -5.39 meV
       hydro 4 f 11.6
       hydro 3 p 6.2
       hydro 3 d 5.6
       hydro 5 g 17.6
       hydro 1 s 0.75
  #  "Third tier" - improvements: -2.83 meV to -0.50 meV
  #     ionic 2 p auto
  #     hydro 4 f 10.8
  #     hydro 4 d 4.7
  #     hydro 2 s 6.8
  #  "Fourth tier" - improvements: -0.40 meV to -0.12 meV
  #     hydro 3 p 5
  #     hydro 3 s 3.3
  #     hydro 5 g 15.6
  #     hydro 4 f 17.6
  #     hydro 4 d 14
  # Further basis functions - -0.08 meV and below
  #     hydro 3 s 2.1
  #     hydro 4 d 11.6
  #     hydro 3 p 16
  #     hydro 2 s 17.2
  ################################################################################
  #
  # For methods that use the localized form of the "resolution of identity" for
  # the two-electron Coulomb operator (RI_method LVL), particularly Hartree-Fock and
  # hybrid density functional calculations, the highest accuracy can be obtained by
  # uncommenting the line beginning with "for_aux"  below, thus adding an extra g radial
  # function to the construction of the product basis set for the expansion.
  # See Ref. New J. Phys. 17, 093020 (2015) for more information, particularly Figs. 1 and 6.
  #
  ################################################################################
  #
  # for_aux hydro 5 g 6.0
  
  -----------------------------------------------------------------------
  Completed first pass over input file control.in .
  -----------------------------------------------------------------------
  
  
  -----------------------------------------------------------------------
  Parsing geometry.in (first pass over file, find array dimensions only).
  The contents of geometry.in will be repeated verbatim below
  unless switched off by setting 'verbatim_writeout .false.' .
  in the first line of geometry.in .
  -----------------------------------------------------------------------
  
  #
  # This is the geometry file that corresponds to the current relaxation step.
  # If you do not want this file to be written, set the "write_restart_geometry" flag to .false.
  #
  atom      -0.43441972     -1.20650822     -0.00582775 C
  atom       0.00482377     -0.30229916      1.13642005 C
  atom       1.19063325     -0.06040353      1.35172047 O
  atom       0.46440249     -1.61771726     -0.47278622 H
  atom      -0.99719877     -0.64073115     -0.76293717 H
  atom      -1.07303304     -2.03301614      0.33467325 H
  atom      -0.98228767      0.24972264      1.90845259 N
  atom      -2.41722554      0.07061891      1.80591736 C
  atom      -3.07365722      1.36094917      2.33268586 C
  atom      -2.52859963      2.05732565      3.19089725 O
  atom      -0.68067670      0.89555399      2.63812486 H
  atom      -2.69546769     -0.06007557      0.74936665 H
  atom      -2.93245518     -1.13194876      2.62286277 C
  atom      -4.01859403     -1.25479002      2.51208715 H
  atom      -2.70160976     -0.98841533      3.68633423 H
  atom      -2.44497614     -2.05616967      2.28815786 H
  atom      -4.29417299      1.63663944      1.81322914 N
  atom      -5.12598369      2.71675204      2.30808208 C
  atom      -6.57992727      2.29521346      2.04128973 C
  atom      -6.83669497      1.43256475      1.19712994 O
  atom      -4.76310170      1.01121326      1.15795541 H
  atom      -4.93186986      2.81648471      3.38677542 H
  atom      -4.80029084      4.05281058      1.61475208 C
  atom      -5.40640250      4.87675097      2.01243904 H
  atom      -4.98507100      3.97391041      0.53569182 H
  atom      -3.74365773      4.29487167      1.77809118 H
  atom      -7.56502253      2.91886331      2.74217066 N
  atom      -7.44831312      3.94786385      3.76169657 C
  atom      -8.49827006      2.63511173      2.45769719 H
  atom      -8.26665612      3.83462526      4.48263914 H
  atom      -7.49431397      4.96414997      3.34075813 H
  atom      -6.50680709      3.84419802      4.31211026 H
  
  -----------------------------------------------------------------------
  Completed first pass over input file geometry.in .
  -----------------------------------------------------------------------
  

  Basic array size parameters:
  | Number of species                 :        4
  | Number of atoms                   :       32
  | Max. basis fn. angular momentum   :        4
  | Max. atomic/ionic basis occupied n:        2
  | Max. number of basis fn. types    :        2
  | Max. radial fns per species/type  :        8
  | Max. logarithmic grid size        :     1301
  | Max. radial integration grid size :       73
  | Max. angular integration grid size:      434
  | Max. angular grid division number :        8
  | Radial grid for Hartree potential :     1301
  | Number of spin channels           :        1

------------------------------------------------------------
          Reading file control.in.
------------------------------------------------------------
  XC: Using PBE gradient-corrected functionals.
  Spin treatment: No spin polarisation.
  Charge =   0.000000E+00: Neutral system requested explicitly.
  Occupation type: Gaussian broadening, width =   0.500000E-01 eV.
  Using pulay charge density mixing.
  Pulay mixing - number of memorized iterations:   10
  Charge density mixing - mixing parameter:     0.5000
  Convergence accuracy of self-consistent charge density:  0.1000E-03
  Convergence accuracy of sum of eigenvalues:  0.1000E-01
  Convergence accuracy of total energy:  0.1000E-04
  Convergence accuracy of forces:  0.1000E-03
  Maximum number of s.-c. iterations  :  1000
  Fitting ESP-charges to Potential. 
  | Esp charge output options: 
  | ESP Grid method: 3, cubic grid
  | Number of points in x, ,y, z:  0080 0080 0080
  |
 
  Reading configuration options for species H                   .
  | Found nuclear charge :   1.0000
  | Found atomic mass :    1.00794000000000      amu
  | Found l_max for Hartree potential  :   6
  | Found cutoff potl. onset [A], width [A], scale factor :    4.00000    2.00000    1.00000
  | Threshold for basis-dependent cutoff potential is   0.100000E-03
  | Found data for basic radial integration grid :    24 points, outermost radius =    7.000 A
  | Found multiplier for basic radial grid :   2
  | Found angular grid specification: user-specified.
  | Specified grid contains     6 separate shells.
  | Check grid settings after all constraints further below.
  | Found free-atom valence shell :  1 s   1.000
  | No ionic wave fns used. Skipping ion_occ.
  | Found hydrogenic basis function :  2 s   2.100
  | Found hydrogenic basis function :  2 p   3.500
  | Found hydrogenic basis function :  1 s   0.850
  | Found hydrogenic basis function :  2 p   3.700
  | Found hydrogenic basis function :  2 s   1.200
  | Found hydrogenic basis function :  3 d   7.000
  Species H                   : Missing cutoff potential type.
  Defaulting to exp(1/x)/(1-x)^2 type cutoff potential.
  Species H : No 'logarithmic' tag. Using default grid for free atom:
  | Default logarithmic grid data [bohr] : 0.1000E-03 0.1000E+03 0.1012E+01
  Species H : On-site basis accuracy parameter (for Gram-Schmidt orthonormalisation) not specified.
  Using default value basis_acc =  0.1000000E-03.
  Species H                   : Using default innermost maximum threshold i_radial=  2 for radial functions.
  Species H                   : Default cutoff onset for free atom density etc. : 0.40000000E+01 AA.
  Species H                   : Basic radial grid will be enhanced according to radial_multiplier =   2, to contain    49 grid points.
 
  Reading configuration options for species C                   .
  | Found nuclear charge :   6.0000
  | Found atomic mass :    12.0107000000000      amu
  | Found l_max for Hartree potential  :   6
  | Found cutoff potl. onset [A], width [A], scale factor :    4.00000    2.00000    1.00000
  | Threshold for basis-dependent cutoff potential is   0.100000E-03
  | Found data for basic radial integration grid :    34 points, outermost radius =    7.000 A
  | Found multiplier for basic radial grid :   2
  | Found angular grid specification: user-specified.
  | Specified grid contains     6 separate shells.
  | Check grid settings after all constraints further below.
  | Found free-atom valence shell :  2 s   2.000
  | Found free-atom valence shell :  2 p   2.000
  | No ionic wave fns used. Skipping ion_occ.
  | No ionic wave fns used. Skipping ion_occ.
  | Found hydrogenic basis function :  2 p   1.700
  | Found hydrogenic basis function :  3 d   6.000
  | Found hydrogenic basis function :  2 s   4.900
  | Found hydrogenic basis function :  4 f   9.800
  | Found hydrogenic basis function :  3 p   5.200
  | Found hydrogenic basis function :  3 s   4.300
  | Found hydrogenic basis function :  5 g  14.400
  | Found hydrogenic basis function :  3 d   6.200
  Species C                   : Missing cutoff potential type.
  Defaulting to exp(1/x)/(1-x)^2 type cutoff potential.
  Species C : No 'logarithmic' tag. Using default grid for free atom:
  | Default logarithmic grid data [bohr] : 0.1000E-03 0.1000E+03 0.1012E+01
  Species C : On-site basis accuracy parameter (for Gram-Schmidt orthonormalisation) not specified.
  Using default value basis_acc =  0.1000000E-03.
  Species C                   : Using default innermost maximum threshold i_radial=  2 for radial functions.
  Species C                   : Default cutoff onset for free atom density etc. : 0.40000000E+01 AA.
  Species C                   : Basic radial grid will be enhanced according to radial_multiplier =   2, to contain    69 grid points.
 
  Reading configuration options for species N                   .
  | Found nuclear charge :   7.0000
  | Found atomic mass :    14.0067000000000      amu
  | Found l_max for Hartree potential  :   6
  | Found cutoff potl. onset [A], width [A], scale factor :    4.00000    2.00000    1.00000
  | Threshold for basis-dependent cutoff potential is   0.100000E-03
  | Found data for basic radial integration grid :    35 points, outermost radius =    7.000 A
  | Found multiplier for basic radial grid :   2
  | Found angular grid specification: user-specified.
  | Specified grid contains     6 separate shells.
  | Check grid settings after all constraints further below.
  | Found free-atom valence shell :  2 s   2.000
  | Found free-atom valence shell :  2 p   3.000
  | No ionic wave fns used. Skipping ion_occ.
  | No ionic wave fns used. Skipping ion_occ.
  | Found hydrogenic basis function :  2 p   1.800
  | Found hydrogenic basis function :  3 d   6.800
  | Found hydrogenic basis function :  3 s   5.800
  | Found hydrogenic basis function :  4 f  10.800
  | Found hydrogenic basis function :  3 p   5.800
  | Found hydrogenic basis function :  1 s   0.800
  | Found hydrogenic basis function :  5 g  16.000
  | Found hydrogenic basis function :  3 d   4.900
  Species N                   : Missing cutoff potential type.
  Defaulting to exp(1/x)/(1-x)^2 type cutoff potential.
  Species N : No 'logarithmic' tag. Using default grid for free atom:
  | Default logarithmic grid data [bohr] : 0.1000E-03 0.1000E+03 0.1012E+01
  Species N : On-site basis accuracy parameter (for Gram-Schmidt orthonormalisation) not specified.
  Using default value basis_acc =  0.1000000E-03.
  Species N                   : Using default innermost maximum threshold i_radial=  2 for radial functions.
  Species N                   : Default cutoff onset for free atom density etc. : 0.40000000E+01 AA.
  Species N                   : Basic radial grid will be enhanced according to radial_multiplier =   2, to contain    71 grid points.
 
  Reading configuration options for species O                   .
  | Found nuclear charge :   8.0000
  | Found atomic mass :    15.9994000000000      amu
  | Found l_max for Hartree potential  :   6
  | Found cutoff potl. onset [A], width [A], scale factor :    4.00000    2.00000    1.00000
  | Threshold for basis-dependent cutoff potential is   0.100000E-03
  | Found data for basic radial integration grid :    36 points, outermost radius =    7.000 A
  | Found multiplier for basic radial grid :   2
  | Found angular grid specification: user-specified.
  | Specified grid contains     6 separate shells.
  | Check grid settings after all constraints further below.
  | Found free-atom valence shell :  2 s   2.000
  | Found free-atom valence shell :  2 p   4.000
  | No ionic wave fns used. Skipping ion_occ.
  | No ionic wave fns used. Skipping ion_occ.
  | Found hydrogenic basis function :  2 p   1.800
  | Found hydrogenic basis function :  3 d   7.600
  | Found hydrogenic basis function :  3 s   6.400
  | Found hydrogenic basis function :  4 f  11.600
  | Found hydrogenic basis function :  3 p   6.200
  | Found hydrogenic basis function :  3 d   5.600
  | Found hydrogenic basis function :  5 g  17.600
  | Found hydrogenic basis function :  1 s   0.750
  Species O                   : Missing cutoff potential type.
  Defaulting to exp(1/x)/(1-x)^2 type cutoff potential.
  Species O : No 'logarithmic' tag. Using default grid for free atom:
  | Default logarithmic grid data [bohr] : 0.1000E-03 0.1000E+03 0.1012E+01
  Species O : On-site basis accuracy parameter (for Gram-Schmidt orthonormalisation) not specified.
  Using default value basis_acc =  0.1000000E-03.
  Species O                   : Using default innermost maximum threshold i_radial=  2 for radial functions.
  Species O                   : Default cutoff onset for free atom density etc. : 0.40000000E+01 AA.
  Species O                   : Basic radial grid will be enhanced according to radial_multiplier =   2, to contain    73 grid points.
 
  Finished reading input file 'control.in'. Consistency checks are next.
 
  Target number of points in a grid batch is not set. Defaulting to  100
  Method for grid partitioning is not set. Defaulting to parallel hash+maxmin partitioning.
  Batch size limit is not set. Defaulting to    200
  By default, will store active basis functions for each batch.
  If in need of memory, prune_basis_once .false. can be used to disable this option.
  communication_type for Hartree potential was not specified.
  Defaulting to calc_hartree .
  Pulay mixer: Number of initial linear mixing iterations not set.
  Defaulting to    0 iterations.
  Work space size for distributed Hartree potential not set.
  Defaulting to   0.200000E+03 MB.
  Algorithm-dependent basis array size parameters:
  | n_max_pulay                         :       10
  Geometry relaxation not requested: no relaxation will be performed.
  Handling of forces: Unphysical translation and rotation will be removed from forces.
  No accuracy limit for integral partition fn. given. Defaulting to  0.1000E-14.
  No threshold value for u(r) in integrations given. Defaulting to  0.1000E-05.
  No accuracy for occupation numbers given. Defaulting to  0.1000E-07.
  No threshold value for occupation numbers given. Defaulting to  0.0000E+00.
  No accuracy for fermi level given. Defaulting to  0.1000E-19.
  Maximum # of iterations to find E_F not set. Defaulting to  200.
  Preferred method for the eigenvalue solver ('KS_method') not specified in 'control.in'.
  Calling blacs routine to test compilation state
  Since scalapack support is enabled, defaulting to 'elpa'.
  Preferred method for the MBD eigenvalue solver ('mbd_eigensolver') not specified in 'control.in'.
  Calling blacs routine to test compilation state
  Since scalapack support is enabled, defaulting to 'scaLAPACK'.
  Will not use alltoall communication since running on < 1024 CPUs.
  Threshold for basis singularities not set.
  Default threshold for basis singularities:  0.1000E-04
  partition_type (choice of integration weights) for integrals was not specified.
  | Using a version of the partition function of Stratmann and coworkers ('stratmann_smoother').
  | At each grid point, the set of atoms used to build the partition table is smoothly restricted to
  | only those atoms whose free-atom density would be non-zero at that grid point.
  Partitioning for Hartree potential was not defined. Using partition_type for integrals.
  | Adjusted default value of keyword multip_moments_threshold to:       0.10000000E-11
  | This value may affect high angular momentum components of the Hartree potential in periodic systems.
  No q(lm)/r^(l+1) cutoff set for long-range Hartree potential.
  | Using default value of  0.100000E-09 .
  | Verify using the multipole_threshold keyword.
  Defaulting to new monopole extrapolation.
  Density update method: automatic selection selected.
------------------------------------------------------------


------------------------------------------------------------
          Reading geometry description geometry.in.
------------------------------------------------------------
 * Warning! You did not set the 'relativistic' flag in input file 'control.in'.
 * Since you are not attempting to treat any elements beyond Ca(Z=20), FHI-aims
 * will default to 'relativistic none'.
 * You must ensure that this is really what you want!!
 * For example, DO NOT compute total-energy differences between results from
 * different settings of the 'relativistic' flag.
  Input structure read successfully.
  The structure contains       32 atoms,  and a total of        116.000 electrons.

  Input geometry:
  | No unit cell requested.
  | Atomic structure:
  |       Atom                x [A]            y [A]            z [A]
  |    1: Species C             -0.434420        -1.206508        -0.005828
  |    2: Species C              0.004824        -0.302299         1.136420
  |    3: Species O              1.190633        -0.060404         1.351720
  |    4: Species H              0.464402        -1.617717        -0.472786
  |    5: Species H             -0.997199        -0.640731        -0.762937
  |    6: Species H             -1.073033        -2.033016         0.334673
  |    7: Species N             -0.982288         0.249723         1.908453
  |    8: Species C             -2.417226         0.070619         1.805917
  |    9: Species C             -3.073657         1.360949         2.332686
  |   10: Species O             -2.528600         2.057326         3.190897
  |   11: Species H             -0.680677         0.895554         2.638125
  |   12: Species H             -2.695468        -0.060076         0.749367
  |   13: Species C             -2.932455        -1.131949         2.622863
  |   14: Species H             -4.018594        -1.254790         2.512087
  |   15: Species H             -2.701610        -0.988415         3.686334
  |   16: Species H             -2.444976        -2.056170         2.288158
  |   17: Species N             -4.294173         1.636639         1.813229
  |   18: Species C             -5.125984         2.716752         2.308082
  |   19: Species C             -6.579927         2.295213         2.041290
  |   20: Species O             -6.836695         1.432565         1.197130
  |   21: Species H             -4.763102         1.011213         1.157955
  |   22: Species H             -4.931870         2.816485         3.386775
  |   23: Species C             -4.800291         4.052811         1.614752
  |   24: Species H             -5.406403         4.876751         2.012439
  |   25: Species H             -4.985071         3.973910         0.535692
  |   26: Species H             -3.743658         4.294872         1.778091
  |   27: Species N             -7.565023         2.918863         2.742171
  |   28: Species C             -7.448313         3.947864         3.761697
  |   29: Species H             -8.498270         2.635112         2.457697
  |   30: Species H             -8.266656         3.834625         4.482639
  |   31: Species H             -7.494314         4.964150         3.340758
  |   32: Species H             -6.506807         3.844198         4.312110
  |

  | The smallest distance between any two atoms is         1.01606647 AA.
  |
  | The first atom of this pair is atom number                     27 .
  | The second atom of this pair is atom number                    29 .

  Number of empty states per atom not set in control.in - providing a guess from actual geometry.
  | Total number of empty states used during s.c.f. cycle:       71
  If you use a very high smearing, use empty_states (per atom!) in control.in to increase this value.

  Structure-dependent array size parameters: 
  | Maximum number of distinct radial functions  :       40
  | Maximum number of basis functions            :      840
  | Number of Kohn-Sham states (occupied + empty):      129
------------------------------------------------------------

------------------------------------------------------------
          Preparing all fixed parts of the calculation.
------------------------------------------------------------
  Determining machine precision:
    2.225073858507201E-308
  Setting up grids for atomic and cluster calculations.

  Creating wave function, potential, and density for free atoms.

  Species: H

  List of occupied orbitals and eigenvalues:
    n    l              occ      energy [Ha]    energy [eV]
    1    0           1.0000        -0.238382        -6.4867


  Species: C

  List of occupied orbitals and eigenvalues:
    n    l              occ      energy [Ha]    energy [eV]
    1    0           2.0000       -10.041232      -273.2358
    2    0           2.0000        -0.504327       -13.7234
    2    1           2.0000        -0.193750        -5.2722


  Species: N

  List of occupied orbitals and eigenvalues:
    n    l              occ      energy [Ha]    energy [eV]
    1    0           2.0000       -14.129007      -384.4699
    2    0           2.0000        -0.681802       -18.5528
    2    1           3.0000        -0.260543        -7.0897


  Species: O

  List of occupied orbitals and eigenvalues:
    n    l              occ      energy [Ha]    energy [eV]
    1    0           2.0000       -18.898576      -514.2564
    2    0           2.0000        -0.878795       -23.9132
    2    1           4.0000        -0.332075        -9.0362

  Creating fixed part of basis set: Ionic, confined, hydrogenic.
 
  H                    hydrogenic:
 
  List of hydrogenic basis orbitals: 
    n    l      effective z      eigenvalue [eV]  inner max. [A]     outer max. [A]     outer radius [A]   
    2    0         2.100000       -14.9965           0.193243           1.317208           5.373006
    2    1         3.500000       -41.6672           0.602369           0.602369           4.056063
    1    0         0.850000        -9.8292           0.624871           0.624871           5.373006
    2    1         3.700000       -46.5653           0.573622           0.573622           3.910002
    2    0         1.200000        -4.5995           0.334980           2.228188           5.505995
    3    2         7.000000       -74.0753           0.680699           0.680699           3.769201
 
 
  C                    hydrogenic:
 
  List of hydrogenic basis orbitals: 
    n    l      effective z      eigenvalue [eV]  inner max. [A]     outer max. [A]     outer radius [A]   
    2    1         1.700000        -9.8152           1.245706           1.245706           5.401630
    3    2         6.000000       -54.4226           0.792453           0.792453           4.178599
    2    0         4.900000       -81.6681           0.082559           0.562749           3.353238
    4    3         9.800000       -81.6681           0.863254           0.863254           4.028125
    3    1         5.200000       -40.8774           0.305389           1.215618           4.898362
    3    0         4.300000       -27.9508           0.091041           1.610311           5.401630
    5    4        14.400000      -112.8510           0.917666           0.917666           3.883070
    3    2         6.200000       -58.1113           0.763917           0.763917           4.077671
 
 
  N                    hydrogenic:
 
  List of hydrogenic basis orbitals: 
    n    l      effective z      eigenvalue [eV]  inner max. [A]     outer max. [A]     outer radius [A]   
    2    1         1.800000       -11.0118           1.177451           1.177451           5.427479
    3    2         6.800000       -69.9029           0.704619           0.704619           3.854246
    3    0         5.800000       -50.8549           0.067388           1.191934           4.629968
    4    3        10.800000       -99.1854           0.786571           0.786571           3.761152
    3    1         5.800000       -50.8549           0.274880           1.094176           4.518138
    1    0         0.800000        -8.7059           0.662839           0.662839           5.361532
    5    4        16.000000      -139.3222           0.825990           0.825990           3.625711
    3    2         4.900000       -36.2967           0.968267           0.968267           4.862000
 
 
  O                    hydrogenic:
 
  List of hydrogenic basis orbitals: 
    n    l      effective z      eigenvalue [eV]  inner max. [A]     outer max. [A]     outer radius [A]   
    2    1         1.800000       -11.0118           1.178562           1.178562           5.432602
    3    2         7.600000       -87.3182           0.624125           0.624125           3.541477
    3    0         6.400000       -61.9209           0.061167           1.081902           4.306578
    4    3        11.600000      -114.4238           0.731631           0.731631           3.585037
    3    1         6.200000       -58.1113           0.255680           1.030270           4.306578
    3    2         5.600000       -47.4081           0.847233           0.847233           4.413171
    5    4        17.600000      -168.5799           0.749740           0.749740           3.372465
    1    0         0.750000        -7.6499           0.705284           0.705284           5.366593
 

  Adding cutoff potential to free-atom effective potential.
  Creating atomic-like basis functions for current effective potential.

  Species H                   :

  List of atomic basis orbitals and eigenvalues:
    n    l      energy [Ha]    energy [eV]    outer radius [A]
    1    0        -0.238382        -6.4867       5.373006


  Species C                   :

  List of atomic basis orbitals and eigenvalues:
    n    l      energy [Ha]    energy [eV]    outer radius [A]
    1    0       -10.041232      -273.2358       1.934409
    2    0        -0.504327       -13.7234       5.271162
    2    1        -0.193750        -5.2722       5.401630


  Species N                   :

  List of atomic basis orbitals and eigenvalues:
    n    l      energy [Ha]    energy [eV]    outer radius [A]
    1    0       -14.129007      -384.4699       1.637919
    2    0        -0.681802       -18.5528       5.168461
    2    1        -0.260543        -7.0897       5.361532


  Species O                   :

  List of atomic basis orbitals and eigenvalues:
    n    l      energy [Ha]    energy [eV]    outer radius [A]
    1    0       -18.898576      -514.2564       1.415765
    2    0        -0.878795       -23.9132       5.048385
    2    1        -0.332075        -9.0362       5.301386

  Assembling full basis from fixed parts.
  | Species H :   atomic orbital   1 s accepted.
  | Species H :    hydro orbital   2 s accepted.
  | Species H :    hydro orbital   1 s accepted.
  | Species H :    hydro orbital   2 s accepted.
  | Species H :    hydro orbital   2 p accepted.
  | Species H :    hydro orbital   2 p accepted.
  | Species H :    hydro orbital   3 d accepted.
  | Species C :   atomic orbital   1 s accepted.
  | Species C :    hydro orbital   2 s accepted.
  | Species C :   atomic orbital   2 s accepted.
  | Species C :    hydro orbital   3 s accepted.
  | Species C :    hydro orbital   3 p accepted.
  | Species C :   atomic orbital   2 p accepted.
  | Species C :    hydro orbital   2 p accepted.
  | Species C :    hydro orbital   3 d accepted.
  | Species C :    hydro orbital   3 d accepted.
  | Species C :    hydro orbital   4 f accepted.
  | Species C :    hydro orbital   5 g accepted.
  | Species N :   atomic orbital   1 s accepted.
  | Species N :    hydro orbital   3 s accepted.
  | Species N :   atomic orbital   2 s accepted.
  | Species N :    hydro orbital   1 s accepted.
  | Species N :    hydro orbital   3 p accepted.
  | Species N :   atomic orbital   2 p accepted.
  | Species N :    hydro orbital   2 p accepted.
  | Species N :    hydro orbital   3 d accepted.
  | Species N :    hydro orbital   3 d accepted.
  | Species N :    hydro orbital   4 f accepted.
  | Species N :    hydro orbital   5 g accepted.
  | Species O :   atomic orbital   1 s accepted.
  | Species O :    hydro orbital   3 s accepted.
  | Species O :   atomic orbital   2 s accepted.
  | Species O :    hydro orbital   1 s accepted.
  | Species O :    hydro orbital   3 p accepted.
  | Species O :   atomic orbital   2 p accepted.
  | Species O :    hydro orbital   2 p accepted.
  | Species O :    hydro orbital   3 d accepted.
  | Species O :    hydro orbital   3 d accepted.
  | Species O :    hydro orbital   4 f accepted.
  | Species O :    hydro orbital   5 g accepted.
 
  Basis size parameters after reduction:
  | Total number of radial functions:       40
  | Total number of basis functions :      840
 
  Testing on-site integration grid accuracy.
  |  Species  Function  <phi|h_atom|phi> (log., in eV)  <phi|h_atom|phi> (rad., in eV)
           1        1                 -6.4869821809                 -6.4870742227
           1        2                 13.5044133542                 13.5041049177
           1        3                 32.7854418792                 32.7779770519
           1        4                 33.7995553101                 33.7152624900 ***
           1        5                 28.8558651799                 28.8558652046
           1        6                 59.6361831893                 59.6362535845
           1        7                 60.2733718049                 60.2733715484
           2        8               -273.2358277112               -273.2358261765
           2        9                -10.7624923123                -10.7625144012
           2       10                 17.4634079027                 17.4634252127
           2       11                 53.0363661832                 53.0366180446
           2       12                 15.0981351967                 15.0981317714
           2       13                  3.8522181899                  3.8522770949
           2       14                 12.1181835661                 12.1206868578
           2       15                 29.4320778347                 29.4320780959
           2       16                 54.8753777694                 54.8752901936
           2       17                 59.3533975461                 59.3533974833
           2       18                 93.4537491195                 93.4537492066
           3       19               -384.4698526889               -384.4698499465
           3       20                 12.5691022037                 12.5690910168
           3       21                -15.7489097511                -15.7489165588
           3       22                 27.0978334940                 27.0985589490
           3       23                 18.5949116966                 18.5949125562
           3       24                  1.2212828291                  1.2212855301
           3       25                 13.4428926797                 13.4434051125
           3       26                 35.9380614500                 35.9380613666
           3       27                 39.9231532098                 39.9231654735
           3       28                 72.9957335806                 72.9957336833
           3       29                116.4231321147                116.4231321431
           4       30               -514.2564144315               -514.2564099626
           4       31                 15.1726678541                 15.1726530877
           4       32                -21.5447785304                -21.5447874973
           4       33                 14.4944558459                 14.4944698284
           4       34                 20.8882174564                 20.8882178906
           4       35                 -2.4850315908                 -2.4850322289
           4       36                 13.8600193195                 13.8599826966
           4       37                 45.8243383616                 45.8243383675
           4       38                 52.1840606465                 52.1840622440
           4       39                 85.4074185510                 85.4074185819
           4       40                142.0983717302                142.0983717339
 * Note: Onsite integrals marked "***" above are less accurate than
 * onsite_accuracy_threshold =    0.03000 eV. Usually, this is harmless.
 * When in doubt, tighten the "radial" and/or "radial_multiplier" flags to check.

  Preparing densities etc. for the partition functions (integrals / Hartree potential).

  Preparations completed.
  max(cpu_time)          :      0.240 s.
  Wall clock time (cpu1) :      0.241 s.
------------------------------------------------------------

------------------------------------------------------------
          Begin self-consistency loop: Initialization.

          Date     :  20170309, Time     :  161942.609
------------------------------------------------------------

  Initializing index lists of integration centers etc. from given atomic structure:
  | Number of centers in hartree potential         :        32
  | Number of centers in hartree multipole         :        32
  | Number of centers in electron density summation:        32
  | Number of centers in basis integrals           :        32
  | Number of centers in integrals                 :        32
  | Number of centers in hamiltonian               :        32
  Using modified Scalapack Eigenvalue solver (ELPA)
  * Using 32 tasks for Scalapack Eigenvalue solver.
  Detailed listing of tasks and assigned k-points:
  (for non-periodic systems, the "k-point" denotes an internal label only)
   Task     0 k-point     1 on eos188
   Task     1 k-point     1 on eos188
   Task     2 k-point     1 on eos188
   Task     3 k-point     1 on eos188
   Task     4 k-point     1 on eos188
   Task     5 k-point     1 on eos188
   Task     6 k-point     1 on eos188
   Task     7 k-point     1 on eos188
   Task     8 k-point     1 on eos188
   Task     9 k-point     1 on eos188
   Task    10 k-point     1 on eos188
   Task    11 k-point     1 on eos188
   Task    12 k-point     1 on eos188
   Task    13 k-point     1 on eos188
   Task    14 k-point     1 on eos188
   Task    15 k-point     1 on eos188
   Task    16 k-point     1 on eos188
   Task    17 k-point     1 on eos188
   Task    18 k-point     1 on eos188
   Task    19 k-point     1 on eos188
   Task    20 k-point     1 on eos188
   Task    21 k-point     1 on eos188
   Task    22 k-point     1 on eos188
   Task    23 k-point     1 on eos188
   Task    24 k-point     1 on eos188
   Task    25 k-point     1 on eos188
   Task    26 k-point     1 on eos188
   Task    27 k-point     1 on eos188
   Task    28 k-point     1 on eos188
   Task    29 k-point     1 on eos188
   Task    30 k-point     1 on eos188
   Task    31 k-point     1 on eos188
  Tasks:    32 split into      8 X      4 BLACS grid
  Calculating blocksize based on n_basis =          840 max_nprow =            8 max_npcol =            4
  Scalapack blocksize set to:           16
  Required Scalapack workspace - INTEGER:            1 REAL:             1
  Partitioning the integration grid into batches with parallel hashing+maxmin method.
  | Number of batches:     5206
  | Maximal batch size:     196
  | Minimal batch size:      11
  | Average batch size:     101.369
  | Standard deviation of batch sizes:      29.940

  Integration load balanced across    32 MPI tasks.
  Work distribution over tasks is as follows:
  Task     0 has      16457 integration points.
  Task     1 has      16497 integration points.
  Task     2 has      16482 integration points.
  Task     3 has      16486 integration points.
  Task     4 has      16522 integration points.
  Task     5 has      16478 integration points.
  Task     6 has      16486 integration points.
  Task     7 has      16495 integration points.
  Task     8 has      16468 integration points.
  Task     9 has      16519 integration points.
  Task    10 has      16431 integration points.
  Task    11 has      16515 integration points.
  Task    12 has      16525 integration points.
  Task    13 has      16474 integration points.
  Task    14 has      16524 integration points.
  Task    15 has      16502 integration points.
  Task    16 has      16497 integration points.
  Task    17 has      16479 integration points.
  Task    18 has      16515 integration points.
  Task    19 has      16521 integration points.
  Task    20 has      16420 integration points.
  Task    21 has      16500 integration points.
  Task    22 has      16470 integration points.
  Task    23 has      16471 integration points.
  Task    24 has      16533 integration points.
  Task    25 has      16482 integration points.
  Task    26 has      16472 integration points.
  Task    27 has      16496 integration points.
  Task    28 has      16492 integration points.
  Task    29 has      16476 integration points.
  Task    30 has      16526 integration points.
  Task    31 has      16517 integration points.
  Initializing partition tables, free-atom densities, potentials, etc. across the integration grid (initialize_grid_storage).
  | initialize_grid_storage: Actual outermost partition radius vs. multipole_radius_free
  | (-- VB: in principle, multipole_radius_free should be larger, hence this output)
  | Species        1: Confinement radius =              6.000000000000000 AA, multipole_radius_free =              6.071692442739658 AA.
  | Species        1: outer_partition_radius set to              6.071692442739658 AA .
  | Species        2: Confinement radius =              6.000000000000000 AA, multipole_radius_free =              6.029870734432609 AA.
  | Species        2: outer_partition_radius set to              6.029870734432609 AA .
  | Species        3: Confinement radius =              6.000000000000000 AA, multipole_radius_free =              6.058726835495003 AA.
  | Species        3: outer_partition_radius set to              6.058726835495003 AA .
  | Species        4: Confinement radius =              6.000000000000000 AA, multipole_radius_free =              6.064445521808699 AA.
  | Species        4: outer_partition_radius set to              6.064445521808699 AA .
  | Original list of interatomic distances with          32 x         32 entries is created.
  | Net number of integration points:   527728
  | of which are non-zero points    :   417583
  Obtaining max. number of non-zero basis functions in each batch (get_n_compute_maxes).
  | Maximal number of non-zero basis functions:      680 in task     0
  | Maximal number of non-zero basis functions:      679 in task     1
  | Maximal number of non-zero basis functions:      674 in task     2
  | Maximal number of non-zero basis functions:      677 in task     3
  | Maximal number of non-zero basis functions:      674 in task     4
  | Maximal number of non-zero basis functions:      683 in task     5
  | Maximal number of non-zero basis functions:      679 in task     6
  | Maximal number of non-zero basis functions:      684 in task     7
  | Maximal number of non-zero basis functions:      678 in task     8
  | Maximal number of non-zero basis functions:      674 in task     9
  | Maximal number of non-zero basis functions:      673 in task    10
  | Maximal number of non-zero basis functions:      679 in task    11
  | Maximal number of non-zero basis functions:      670 in task    12
  | Maximal number of non-zero basis functions:      674 in task    13
  | Maximal number of non-zero basis functions:      673 in task    14
  | Maximal number of non-zero basis functions:      672 in task    15
  | Maximal number of non-zero basis functions:      674 in task    16
  | Maximal number of non-zero basis functions:      676 in task    17
  | Maximal number of non-zero basis functions:      672 in task    18
  | Maximal number of non-zero basis functions:      687 in task    19
  | Maximal number of non-zero basis functions:      669 in task    20
  | Maximal number of non-zero basis functions:      688 in task    21
  | Maximal number of non-zero basis functions:      684 in task    22
  | Maximal number of non-zero basis functions:      682 in task    23
  | Maximal number of non-zero basis functions:      688 in task    24
  | Maximal number of non-zero basis functions:      669 in task    25
  | Maximal number of non-zero basis functions:      673 in task    26
  | Maximal number of non-zero basis functions:      679 in task    27
  | Maximal number of non-zero basis functions:      665 in task    28
  | Maximal number of non-zero basis functions:      678 in task    29
  | Maximal number of non-zero basis functions:      678 in task    30
  | Maximal number of non-zero basis functions:      670 in task    31
  Selecting the method for density update.
  Loop over occupied states selected for charge density update.
  Integrating Hamiltonian matrix: batch-based integration.
  Time summed over all CPUs for integration: real work       19.087 s, elapsed       19.846 s
  Integrating overlap matrix.
  Time summed over all CPUs for integration: real work       11.289 s, elapsed       11.598 s
  Deallocating overlap matrix.

  Updating Kohn-Sham eigenvalues, eigenvectors, occupation numbers, and Fermi level.
  Solving generalized eigenproblem
  Solving real symmetric generalised eigenvalue problem by standard ScaLAPACK.
  Transforming overlap matrix with ScaLAPACK and checking for singularities.
  : Overlap matrix is nonsingular, using Cholesky decomposition
  | Lowest eigenvalue:  0.879771E-04
  Factoring overlap matrix with Cholesky decomposition
  Using Cholesky factor for transformation
  Using 1-stage real ELPA solver
  Determining occupation numbers for Kohn-Sham eigenstates.
  | Chemical potential (Fermi level) in eV                 : -.88827626E+01
  | Error in electron count due to remaining E_F inaccuracy: 0.00000000E+00
  | Maximum occupation number of highest empty state:  0.00E+00

  Writing Kohn-Sham eigenvalues.

  State    Occupation    Eigenvalue [Ha]    Eigenvalue [eV]
      1       2.00000         -18.973731         -516.30150
      2       2.00000         -18.973709         -516.30090
      3       2.00000         -18.973501         -516.29523
      4       2.00000         -14.257167         -387.95726
      5       2.00000         -14.255695         -387.91720
      6       2.00000         -14.254357         -387.88078
      7       2.00000         -10.170576         -276.75545
      8       2.00000         -10.170218         -276.74571
      9       2.00000         -10.169751         -276.73300
     10       2.00000         -10.166782         -276.65220
     11       2.00000         -10.149379         -276.17865
     12       2.00000         -10.148825         -276.16358
     13       2.00000         -10.135635         -275.80467
     14       2.00000         -10.135612         -275.80404
     15       2.00000         -10.134944         -275.78587
     16       2.00000          -1.134643          -30.87521
     17       2.00000          -1.130713          -30.76827
     18       2.00000          -1.127733          -30.68718
     19       2.00000          -1.018694          -27.72008
     20       2.00000          -1.014025          -27.59304
     21       2.00000          -1.012522          -27.55212
     22       2.00000          -0.888419          -24.17512
     23       2.00000          -0.866798          -23.58678
     24       2.00000          -0.846357          -23.03055
     25       2.00000          -0.817359          -22.24146
     26       2.00000          -0.785017          -21.36139
     27       2.00000          -0.759383          -20.66387
     28       2.00000          -0.706066          -19.21304
     29       2.00000          -0.684666          -18.63072
     30       2.00000          -0.684315          -18.62115
     31       2.00000          -0.640798          -17.43701
     32       2.00000          -0.616913          -16.78705
     33       2.00000          -0.610285          -16.60670
     34       2.00000          -0.599188          -16.30475
     35       2.00000          -0.586007          -15.94606
     36       2.00000          -0.579743          -15.77560
     37       2.00000          -0.577336          -15.71011
     38       2.00000          -0.569286          -15.49105
     39       2.00000          -0.556435          -15.14137
     40       2.00000          -0.556306          -15.13784
     41       2.00000          -0.548978          -14.93844
     42       2.00000          -0.544792          -14.82455
     43       2.00000          -0.535688          -14.57680
     44       2.00000          -0.527324          -14.34923
     45       2.00000          -0.523216          -14.23744
     46       2.00000          -0.516441          -14.05306
     47       2.00000          -0.509496          -13.86410
     48       2.00000          -0.500217          -13.61159
     49       2.00000          -0.492292          -13.39594
     50       2.00000          -0.488748          -13.29950
     51       2.00000          -0.481348          -13.09815
     52       2.00000          -0.475245          -12.93208
     53       2.00000          -0.406610          -11.06441
     54       2.00000          -0.401508          -10.92558
     55       2.00000          -0.400256          -10.89151
     56       2.00000          -0.393261          -10.70119
     57       2.00000          -0.385237          -10.48283
     58       2.00000          -0.382315          -10.40332
     59       0.00000          -0.167371           -4.55439
     60       0.00000          -0.158778           -4.32056
     61       0.00000          -0.150954           -4.10765
     62       0.00000          -0.078613           -2.13916
     63       0.00000          -0.069032           -1.87845
     64       0.00000          -0.057038           -1.55209
     65       0.00000          -0.054161           -1.47380
     66       0.00000          -0.045126           -1.22793
     67       0.00000          -0.043955           -1.19609
     68       0.00000          -0.035005           -0.95254
     69       0.00000          -0.032038           -0.87179
     70       0.00000          -0.029264           -0.79631
     71       0.00000          -0.019979           -0.54367
     72       0.00000          -0.011853           -0.32255
     73       0.00000          -0.008591           -0.23376
     74       0.00000          -0.007539           -0.20515
     75       0.00000          -0.002819           -0.07670
     76       0.00000          -0.002054           -0.05588
     77       0.00000           0.001397            0.03802
     78       0.00000           0.007229            0.19671
     79       0.00000           0.011962            0.32552
     80       0.00000           0.017344            0.47196
     81       0.00000           0.020281            0.55187
     82       0.00000           0.025860            0.70368
     83       0.00000           0.032573            0.88636
     84       0.00000           0.038972            1.06049
     85       0.00000           0.041837            1.13844
     86       0.00000           0.051055            1.38929
     87       0.00000           0.054095            1.47200
     88       0.00000           0.057715            1.57049
     89       0.00000           0.064585            1.75745
     90       0.00000           0.068693            1.86922
     91       0.00000           0.078786            2.14387
     92       0.00000           0.085022            2.31356
     93       0.00000           0.086942            2.36580
     94       0.00000           0.093557            2.54582
     95       0.00000           0.097713            2.65890
     96       0.00000           0.099694            2.71280
     97       0.00000           0.104692            2.84882
     98       0.00000           0.110975            3.01978
     99       0.00000           0.114824            3.12453
    100       0.00000           0.124308            3.38258
    101       0.00000           0.126605            3.44511
    102       0.00000           0.135880            3.69748
    103       0.00000           0.137664            3.74603
    104       0.00000           0.140299            3.81774
    105       0.00000           0.147745            4.02035
    106       0.00000           0.150460            4.09423
    107       0.00000           0.156521            4.25917
    108       0.00000           0.159933            4.35199
    109       0.00000           0.161572            4.39659
    110       0.00000           0.167036            4.54529
    111       0.00000           0.171752            4.67360
    112       0.00000           0.176431            4.80094
    113       0.00000           0.183477            4.99266
    114       0.00000           0.187001            5.08856
    115       0.00000           0.196606            5.34992
    116       0.00000           0.200137            5.44599
    117       0.00000           0.201159            5.47382
    118       0.00000           0.206274            5.61301
    119       0.00000           0.213508            5.80986
    120       0.00000           0.217929            5.93014
    121       0.00000           0.219824            5.98172
    122       0.00000           0.222771            6.06192
    123       0.00000           0.227566            6.19237
    124       0.00000           0.233417            6.35161
    125       0.00000           0.238757            6.49690
    126       0.00000           0.241079            6.56009
    127       0.00000           0.252748            6.87761
    128       0.00000           0.255691            6.95772
    129       0.00000           0.261959            7.12827

  Highest occupied state (VBM) at    -10.40332298 eV
  | Occupation number:      2.00000000

  Lowest unoccupied state (CBM) at    -4.55439463 eV
  | Occupation number:      0.00000000

  Overall HOMO-LUMO gap:      5.84892835 eV.
  Calculating total energy contributions from superposition of free atom densities.

  Total energy components:
  | Sum of eigenvalues            :        -437.90372298 Ha      -11915.96658011 eV
  | XC energy correction          :         -98.82149215 Ha       -2689.06961977 eV
  | XC potential correction       :         127.02258089 Ha        3456.46028884 eV
  | Free-atom electrostatic energy:        -333.58866110 Ha       -9077.40932213 eV
  | Hartree energy correction     :           0.00000000 Ha           0.00000000 eV
  | vdW energy correction         :           0.00000000 Ha           0.00000000 eV
  | Entropy correction            :           0.00000000 Ha           0.00000000 eV
  | ---------------------------
  | Total energy                  :        -743.29129535 Ha      -20225.98523317 eV
  | Total energy, T -> 0          :        -743.29129535 Ha      -20225.98523317 eV  <-- do not rely on this value for anything but (periodic) metals
  | Electronic free energy        :        -743.29129535 Ha      -20225.98523317 eV

  Derived energy quantities:
  | Kinetic energy                :         735.16868606 Ha       20004.95778864 eV
  | Electrostatic energy          :       -1379.63848925 Ha      -37541.87340204 eV
  | Energy correction for multipole
  | error in Hartree potential    :           0.00000000 Ha           0.00000000 eV
  | Sum of eigenvalues per atom                           :        -372.37395563 eV
  | Total energy (T->0) per atom                          :        -632.06203854 eV  <-- do not rely on this value for anything but (periodic) metals
  | Electronic free energy per atom                       :        -632.06203854 eV
  Initialize hartree_potential_storage
  Max. number of atoms included in rho_multipole:           32

  End scf initialization - timings             :  max(cpu_time)    wall_clock(cpu1)
  | Time for scf. initialization               :        1.772 s           1.811 s
  | Boundary condition initialization          :        0.004 s           0.003 s
  | Integration                                :        1.004 s           1.009 s
  | Solution of K.-S. eqns.                    :        0.088 s           0.099 s
  | Grid partitioning                          :        0.360 s           0.359 s
  | Preloading free-atom quantities on grid    :        0.028 s           0.029 s
  | Free-atom superposition energy             :        0.040 s           0.038 s
  | Total energy evaluation                    :        0.004 s           0.005 s
------------------------------------------------------------

------------------------------------------------------------
          Begin self-consistency iteration #    1

  Date     :  20170309, Time     :  161944.425
------------------------------------------------------------
  Evaluating new KS density.
  Integration grid: deviation in total charge (<rho> - N_e) =   4.263256E-14
  Pulay mixing of updated and previous charge densities.

  Evaluating partitioned Hartree potential by multipole expansion.
  | Analytical far-field extrapolation by fixed multipoles:
  | Hartree multipole sum: apparent total charge =  -0.738906E-04
  Summing up the Hartree potential.
  Time summed over all CPUs for potential: real work        9.490 s, elapsed        9.770 s
  | RMS charge density error from multipole expansion :   0.107841E-01

  Integrating Hamiltonian matrix: batch-based integration.
  Time summed over all CPUs for integration: real work       18.873 s, elapsed       19.614 s

  Updating Kohn-Sham eigenvalues, eigenvectors, occupation numbers, and Fermi level.
  Solving generalized eigenproblem
  Solving real symmetric generalised eigenvalue problem by standard ScaLAPACK.
  Using Cholesky factor for transformation
  Using 2-stage real ELPA solver
  K-Point:    1, Trafo times: 1-stage=     0.021 s, 2-stage=     0.028 s ==> Using 1-stage solver
  Determining occupation numbers for Kohn-Sham eigenstates.
  | Chemical potential (Fermi level) in eV                 : -.39963115E+01
  | Error in electron count due to remaining E_F inaccuracy: 0.00000000E+00
  | Maximum occupation number of highest empty state:  0.00E+00

  Writing Kohn-Sham eigenvalues.

  State    Occupation    Eigenvalue [Ha]    Eigenvalue [eV]
      1       2.00000         -18.634741         -507.07709
      2       2.00000         -18.628689         -506.91243
      3       2.00000         -18.594350         -505.97801
      4       2.00000         -13.998074         -380.90698
      5       2.00000         -13.991985         -380.74130
      6       2.00000         -13.970732         -380.16295
      7       2.00000         -10.065039         -273.88364
      8       2.00000         -10.059510         -273.73320
      9       2.00000         -10.039062         -273.17679
     10       2.00000          -9.965959         -271.18753
     11       2.00000          -9.962546         -271.09467
     12       2.00000          -9.905813         -269.55087
     13       2.00000          -9.842016         -267.81488
     14       2.00000          -9.838895         -267.72997
     15       2.00000          -9.836216         -267.65705
     16       2.00000          -0.978377          -26.62300
     17       2.00000          -0.966469          -26.29897
     18       2.00000          -0.940870          -25.60238
     19       2.00000          -0.873519          -23.76965
     20       2.00000          -0.868218          -23.62540
     21       2.00000          -0.852647          -23.20172
     22       2.00000          -0.745751          -20.29293
     23       2.00000          -0.712259          -19.38157
     24       2.00000          -0.688986          -18.74825
     25       2.00000          -0.684479          -18.62563
     26       2.00000          -0.639035          -17.38904
     27       2.00000          -0.621072          -16.90024
     28       2.00000          -0.579256          -15.76237
     29       2.00000          -0.558509          -15.19780
     30       2.00000          -0.548079          -14.91398
     31       2.00000          -0.507120          -13.79943
     32       2.00000          -0.477382          -12.99023
     33       2.00000          -0.472665          -12.86187
     34       2.00000          -0.467128          -12.71119
     35       2.00000          -0.446202          -12.14178
     36       2.00000          -0.444917          -12.10679
     37       2.00000          -0.435416          -11.84828
     38       2.00000          -0.423208          -11.51608
     39       2.00000          -0.421804          -11.47788
     40       2.00000          -0.407736          -11.09507
     41       2.00000          -0.401283          -10.91946
     42       2.00000          -0.389542          -10.59996
     43       2.00000          -0.385809          -10.49841
     44       2.00000          -0.379565          -10.32849
     45       2.00000          -0.378027          -10.28665
     46       2.00000          -0.371092          -10.09793
     47       2.00000          -0.361389           -9.83389
     48       2.00000          -0.355484           -9.67321
     49       2.00000          -0.351726           -9.57094
     50       2.00000          -0.343136           -9.33720
     51       2.00000          -0.337377           -9.18051
     52       2.00000          -0.326919           -8.89592
     53       2.00000          -0.245512           -6.68072
     54       2.00000          -0.238158           -6.48060
     55       2.00000          -0.234471           -6.38027
     56       2.00000          -0.221855           -6.03699
     57       2.00000          -0.212577           -5.78452
     58       2.00000          -0.193897           -5.27621
     59       0.00000          -0.055705           -1.51582
     60       0.00000          -0.048171           -1.31080
     61       0.00000          -0.033684           -0.91660
     62       0.00000          -0.030846           -0.83937
     63       0.00000          -0.027295           -0.74273
     64       0.00000          -0.014871           -0.40466
     65       0.00000          -0.005128           -0.13954
     66       0.00000           0.000408            0.01109
     67       0.00000           0.006585            0.17919
     68       0.00000           0.009236            0.25132
     69       0.00000           0.022784            0.61997
     70       0.00000           0.029099            0.79182
     71       0.00000           0.039095            1.06384
     72       0.00000           0.041930            1.14096
     73       0.00000           0.044562            1.21258
     74       0.00000           0.051705            1.40698
     75       0.00000           0.054529            1.48381
     76       0.00000           0.058832            1.60089
     77       0.00000           0.060228            1.63890
     78       0.00000           0.068584            1.86627
     79       0.00000           0.071665            1.95010
     80       0.00000           0.080319            2.18560
     81       0.00000           0.081942            2.22976
     82       0.00000           0.087705            2.38657
     83       0.00000           0.095562            2.60036
     84       0.00000           0.097746            2.65982
     85       0.00000           0.107314            2.92015
     86       0.00000           0.115111            3.13234
     87       0.00000           0.120348            3.27484
     88       0.00000           0.129071            3.51219
     89       0.00000           0.133523            3.63334
     90       0.00000           0.135286            3.68131
     91       0.00000           0.138622            3.77210
     92       0.00000           0.149392            4.06517
     93       0.00000           0.152132            4.13971
     94       0.00000           0.159467            4.33933
     95       0.00000           0.161033            4.38192
     96       0.00000           0.165959            4.51598
     97       0.00000           0.172743            4.70058
     98       0.00000           0.176986            4.81604
     99       0.00000           0.179485            4.88402
    100       0.00000           0.188506            5.12952
    101       0.00000           0.190553            5.18521
    102       0.00000           0.193551            5.26678
    103       0.00000           0.198033            5.38874
    104       0.00000           0.205500            5.59193
    105       0.00000           0.208747            5.68030
    106       0.00000           0.211125            5.74501
    107       0.00000           0.217242            5.91146
    108       0.00000           0.221095            6.01631
    109       0.00000           0.227119            6.18023
    110       0.00000           0.231160            6.29019
    111       0.00000           0.234587            6.38343
    112       0.00000           0.236553            6.43694
    113       0.00000           0.241218            6.56388
    114       0.00000           0.248313            6.75694
    115       0.00000           0.249060            6.77726
    116       0.00000           0.258744            7.04079
    117       0.00000           0.262438            7.14131
    118       0.00000           0.269025            7.32055
    119       0.00000           0.272542            7.41624
    120       0.00000           0.280250            7.62598
    121       0.00000           0.284773            7.74905
    122       0.00000           0.286589            7.79849
    123       0.00000           0.291809            7.94053
    124       0.00000           0.301875            8.21444
    125       0.00000           0.305626            8.31652
    126       0.00000           0.311045            8.46397
    127       0.00000           0.318024            8.65387
    128       0.00000           0.326030            8.87173
    129       0.00000           0.336542            9.15777

  Highest occupied state (VBM) at     -5.27620990 eV
  | Occupation number:      2.00000000

  Lowest unoccupied state (CBM) at    -1.51582128 eV
  | Occupation number:      0.00000000

  Overall HOMO-LUMO gap:      3.76038862 eV.

  Total energy components:
  | Sum of eigenvalues            :        -417.64510514 Ha      -11364.70154044 eV
  | XC energy correction          :        -100.75884264 Ha       -2741.78760898 eV
  | XC potential correction       :         129.53565827 Ha        3524.84460369 eV
  | Free-atom electrostatic energy:        -333.58866110 Ha       -9077.40932213 eV
  | Hartree energy correction     :         -20.26466352 Ha        -551.42955071 eV
  | vdW energy correction         :           0.00000000 Ha           0.00000000 eV
  | Entropy correction            :          -0.00000000 Ha          -0.00000000 eV
  | ---------------------------
  | Total energy                  :        -742.72161413 Ha      -20210.48341857 eV
  | Total energy, T -> 0          :        -742.72161413 Ha      -20210.48341857 eV  <-- do not rely on this value for anything but (periodic) metals
  | Electronic free energy        :        -742.72161413 Ha      -20210.48341857 eV

  Derived energy quantities:
  | Kinetic energy                :         744.06271875 Ha       20246.97673204 eV
  | Electrostatic energy          :       -1386.02549024 Ha      -37715.67254163 eV
  | Energy correction for multipole
  | error in Hartree potential    :          -0.04132203 Ha          -1.12442965 eV
  | Sum of eigenvalues per atom                           :        -355.14692314 eV
  | Total energy (T->0) per atom                          :        -631.57760683 eV  <-- do not rely on this value for anything but (periodic) metals
  | Electronic free energy per atom                       :        -631.57760683 eV

  Self-consistency convergence accuracy:
  | Change of charge density      :  0.9027E+00
  | Change of sum of eigenvalues  :  0.5513E+03 eV
  | Change of total energy        :  0.1550E+02 eV

  End self-consistency iteration #     1       :  max(cpu_time)    wall_clock(cpu1)
  | Time for this iteration                    :        1.420 s           1.439 s
  | Charge density update                      :        0.444 s           0.446 s
[...]
   ----------------------------------------------------------------
   Total forces(  20)            : -0.149937E-02  0.155019E-02  0.148637E-03
  atom #   21
   Hellmann-Feynman              : -0.237404E-01  0.435637E-01  0.336332E-01
   Ionic forces                  :  0.000000E+00  0.000000E+00  0.000000E+00
   Multipole                     :  0.379027E-01 -0.100098E-01  0.694130E-03
   Pulay + GGA                   : -0.169559E-01 -0.380280E-01 -0.342587E-01
   Van der Waals                 : -0.922551E-03  0.552524E-02  0.164037E-02
   ----------------------------------------------------------------
   Total forces(  21)            : -0.371614E-02  0.105115E-02  0.170902E-02
  atom #   22
   Hellmann-Feynman              :  0.338602E-01 -0.238211E-01 -0.702111E-01
   Ionic forces                  :  0.000000E+00  0.000000E+00  0.000000E+00
   Multipole                     : -0.162072E-01  0.249758E-01 -0.660094E-03
   Pulay + GGA                   : -0.222182E-01  0.940572E-02  0.671650E-01
   Van der Waals                 :  0.448178E-02 -0.972824E-02  0.289760E-02
   ----------------------------------------------------------------
   Total forces(  22)            : -0.833648E-04  0.832105E-03 -0.808607E-03
  atom #   23
   Hellmann-Feynman              :  0.484774E+00  0.870109E+00 -0.567861E+00
   Ionic forces                  :  0.000000E+00  0.000000E+00  0.000000E+00
   Multipole                     : -0.412238E-01 -0.272756E+00  0.184908E+00
   Pulay + GGA                   : -0.443521E+00 -0.613218E+00  0.383526E+00
   Van der Waals                 : -0.328078E-04  0.131136E-01  0.137717E-02
   ----------------------------------------------------------------
   Total forces(  23)            : -0.323482E-05 -0.275189E-02  0.195045E-02
  atom #   24
   Hellmann-Feynman              :  0.129146E-01 -0.440097E-01  0.422770E-02
   Ionic forces                  :  0.000000E+00  0.000000E+00  0.000000E+00
   Multipole                     :  0.158925E-01 -0.389086E-02 -0.223469E-01
   Pulay + GGA                   : -0.415084E-01  0.414221E-01  0.285891E-01
   Van der Waals                 :  0.129586E-01  0.605667E-02 -0.100068E-01
   ----------------------------------------------------------------
   Total forces(  24)            :  0.257320E-03 -0.421840E-03  0.463229E-03
  atom #   25
   Hellmann-Feynman              :  0.634207E-02 -0.253588E-01  0.444967E-01
   Ionic forces                  :  0.000000E+00  0.000000E+00  0.000000E+00
   Multipole                     :  0.665415E-02  0.225574E-01  0.143998E-01
   Pulay + GGA                   : -0.118861E-01  0.478697E-02 -0.603500E-01
   Van der Waals                 : -0.739853E-03 -0.986963E-03  0.274777E-02
   ----------------------------------------------------------------
   Total forces(  25)            :  0.370301E-03  0.998537E-03  0.129422E-02
  atom #   26
   Hellmann-Feynman              : -0.222320E-01 -0.588351E-01  0.276216E-01
   Ionic forces                  :  0.000000E+00  0.000000E+00  0.000000E+00
   Multipole                     : -0.249241E-01  0.206495E-01 -0.199821E-01
   Pulay + GGA                   :  0.508393E-01  0.304400E-01 -0.392809E-02
   Van der Waals                 : -0.445906E-02  0.857370E-02 -0.386829E-02
   ----------------------------------------------------------------
   Total forces(  26)            : -0.775871E-03  0.828043E-03 -0.156947E-03
  atom #   27
   Hellmann-Feynman              : -0.984044E-01 -0.144830E+01 -0.588042E+00
   Ionic forces                  :  0.000000E+00  0.000000E+00  0.000000E+00
   Multipole                     :  0.620808E-01 -0.110563E+00 -0.123798E+00
   Pulay + GGA                   :  0.434067E-01  0.156691E+01  0.718483E+00
   Van der Waals                 : -0.278098E-02 -0.695510E-02 -0.428240E-02
   ----------------------------------------------------------------
   Total forces(  27)            :  0.430220E-02  0.109418E-02  0.236018E-02
  atom #   28
   Hellmann-Feynman              :  0.775711E-01  0.158210E+01  0.170537E+01
   Ionic forces                  :  0.000000E+00  0.000000E+00  0.000000E+00
   Multipole                     : -0.445200E-01 -0.156895E+00 -0.150850E+00
   Pulay + GGA                   : -0.216038E-01 -0.142971E+01 -0.156385E+01
   Van der Waals                 : -0.138878E-01  0.318567E-03  0.497908E-02
   ----------------------------------------------------------------
   Total forces(  28)            : -0.244054E-02 -0.419132E-02 -0.434479E-02
  atom #   29
   Hellmann-Feynman              :  0.628684E-01 -0.194857E-01 -0.196979E-01
   Ionic forces                  :  0.000000E+00  0.000000E+00  0.000000E+00
   Multipole                     : -0.981698E-03  0.316991E-01  0.322934E-01
   Pulay + GGA                   : -0.669753E-01 -0.103988E-01 -0.992111E-02
   Van der Waals                 :  0.789311E-02 -0.307041E-03 -0.234104E-02
   ----------------------------------------------------------------
   Total forces(  29)            :  0.280454E-02  0.150759E-02  0.333400E-03
  atom #   30
   Hellmann-Feynman              :  0.247437E-01 -0.266833E-01 -0.434535E-01
   Ionic forces                  :  0.000000E+00  0.000000E+00  0.000000E+00
   Multipole                     :  0.181895E-01  0.300038E-01  0.139251E-02
   Pulay + GGA                   : -0.497576E-01 -0.246932E-02  0.422225E-01
   Van der Waals                 :  0.591953E-02 -0.612035E-03 -0.946178E-03
   ----------------------------------------------------------------
   Total forces(  30)            : -0.904861E-03  0.239235E-03 -0.784654E-03
  atom #   31
   Hellmann-Feynman              : -0.165156E-01 -0.432141E-01 -0.673177E-02
   Ionic forces                  :  0.000000E+00  0.000000E+00  0.000000E+00
   Multipole                     :  0.665794E-02 -0.205842E-01  0.198396E-01
   Pulay + GGA                   :  0.296552E-02  0.681252E-01 -0.104762E-01
   Van der Waals                 :  0.553505E-02 -0.420284E-02 -0.182134E-02
   ----------------------------------------------------------------
   Total forces(  31)            : -0.135706E-02  0.123993E-03  0.810245E-03
  atom #   32
   Hellmann-Feynman              : -0.386809E-01 -0.249677E-01 -0.314036E-01
   Ionic forces                  :  0.000000E+00  0.000000E+00  0.000000E+00
   Multipole                     : -0.209699E-01  0.290729E-01 -0.229188E-02
   Pulay + GGA                   :  0.585159E-01 -0.604193E-02  0.310858E-01
   Van der Waals                 : -0.386790E-03  0.368673E-02  0.324113E-02
   ----------------------------------------------------------------
   Total forces(  32)            : -0.152166E-02  0.174995E-02  0.631446E-03

  Timings for VdW correction (Tkatchenko-Scheffler 2009 or later):
  | CPU time:        0.116 s, Wall clock time:        0.122 s.
  Removing unitary transformations (pure translations, rotations) from forces on atoms.
  Atomic forces before filtering:
  | Net force on center of mass :  -0.531906E-03 -0.125499E-03 -0.142662E-03 eV/A
  | Net torque on center of mass:   0.469705E-02 -0.430738E-03 -0.184748E-02 eV
  Atomic forces after filtering:
  | Net force on center of mass :   0.104535E-17 -0.104535E-17  0.784011E-18 eV/A
  | Net torque on center of mass:  -0.811323E-17 -0.626931E-17 -0.368783E-17 eV

  Energy and forces in a compact form:
  | Total energy uncorrected      :         -0.202087821947842E+05 eV
  | Total energy corrected        :         -0.202087821947842E+05 eV  <-- do not rely on this value for anything but (periodic) metals
  | Electronic free energy        :         -0.202087821947842E+05 eV
  Total atomic forces (unitary forces cleaned) [eV/Ang]:
  |   1          0.158486757508862E-02          0.862019372145404E-03          0.482560390406685E-03
  |   2         -0.283757989820352E-02          0.179502256178662E-02          0.304826998475981E-02
  |   3         -0.315802778149507E-05          0.148198477624472E-03         -0.392579990413646E-03
  |   4         -0.541366614673656E-03          0.107526280542499E-02          0.847560304648418E-03
  |   5         -0.126282505640271E-03         -0.288893483918135E-02          0.968278119628029E-03
  |   6          0.186523023619252E-02         -0.166652120426837E-03         -0.668273414916108E-03
  |   7         -0.374204865678026E-02          0.153827643654510E-03         -0.104165968746232E-02
  |   8          0.221820090534274E-02         -0.235588830016896E-02         -0.177297899670600E-02
  |   9         -0.283539047872598E-03         -0.242175629704919E-03          0.226312823858004E-02
  |  10         -0.168477403641507E-02         -0.123206482010192E-02         -0.241438479150526E-02
  |  11          0.195169492634335E-02         -0.345027839913592E-02         -0.304149850787697E-02
  |  12          0.138980743753239E-02         -0.182104013120116E-02          0.147089831345935E-02
  |  13          0.887675373230544E-03          0.284452470014950E-02         -0.150027964354503E-02
  |  14          0.927036323061965E-03         -0.588691915184161E-03          0.317532506063613E-03
  |  15          0.209544705135154E-03          0.174588218819301E-03         -0.100243589432389E-02
  |  16          0.299307289417119E-03          0.755251747502494E-03         -0.268970101867286E-04
  |  17          0.167648920550130E-02          0.522032551805750E-03         -0.267839298987933E-02
  |  18         -0.470201977418462E-03          0.613810054737050E-03         -0.301633495376305E-03
  |  19          0.126405699685359E-02          0.131649406778956E-02          0.217847595407520E-02
  |  20         -0.150449456654943E-02          0.147067211793167E-02          0.229495685045635E-03
  |  21         -0.371580984870321E-02          0.100168027014404E-02          0.175525420719277E-02
  |  22         -0.527239257930081E-04          0.882473055584649E-03         -0.840947178550887E-03
  |  23         -0.377159700179216E-04         -0.278093800139221E-02          0.185786492634097E-02
  |  24          0.220541686450827E-03         -0.441920415045206E-03          0.348557534158007E-03
  |  25          0.308936372808515E-03          0.917056219053464E-03          0.121007152255371E-02
  |  26         -0.809816084396109E-03          0.822723569843279E-03         -0.288168536716984E-03
  |  27          0.431448506515620E-02          0.107448960481960E-02          0.239168947503047E-02
  |  28         -0.241751212570870E-02         -0.416235963237258E-02         -0.436360230922619E-02
  |  29          0.281377891785848E-02          0.146049571912704E-02          0.402253526041768E-03
  |  30         -0.861321307868246E-03          0.288761955156185E-03         -0.776958987482295E-03
  |  31         -0.136059888741326E-02          0.132899582960511E-03          0.745919880476857E-03
  |  32         -0.148270953473812E-02          0.181865990785512E-02          0.592880865706625E-03

  ------------------------------------ 
  Start decomposition of the XC Energy 
  ------------------------------------ 
  Hartree-Fock part   :          0.000000000 Ha              0.000000000 eV
  ------------------------------------ 
  X Energy            :        -96.989712703 Ha          -2639.224364895 eV
  C Energy GGA        :         -3.868117971 Ha           -105.256845390 eV
  Total XC Energy     :       -100.857830673 Ha          -2744.481210285 eV
  LDA X and C from self-consistent density 
  X Energy LDA        :        -88.005050595 Ha          -2394.739269684 eV
  C Energy LDA        :         -7.531761732 Ha           -204.949664454 eV
  ------------------------------------ 
  End decomposition of the XC Energy 
  ------------------------------------ 
   
  ESP charge fitting starts.
  | Calculation :  00000001  of  00000001
  | Full density
  Computing multipole expansion for total density.
  Generating points for esp charges.
  Partitioning the integration grid into batches with parallel hashing+maxmin method.
  | Number of batches:     3917
  | Maximal batch size:     196
  | Minimal batch size:      51
  | Average batch size:     124.471
  | Standard deviation of batch sizes:      14.666

  Integration load balanced across    32 MPI tasks.
  Work distribution over tasks is as follows:
  Initializing partition tables, free-atom densities, potentials, etc. across the integration grid (initialize_grid_storage).
  | Original list of interatomic distances with          32 x         32 entries is created.
  | Net number of integration points:   487551
  | of which are non-zero points    :   487551
  Summing up potential from multipole expanded  density.
  Summing up the Hartree potential.
  Time summed over all CPUs for potential: real work        6.368 s, elapsed        6.738 s
  Fitting esp charges to potential.
  |
  | ESP charges fitted to the electrostatic potential :
  |
  | Atom         1: C, ESP charge:      0.65237928
  |
  | Atom         2: C, ESP charge:     -0.75198796
  |
  | Atom         3: O, ESP charge:      0.57439486
  |
  | Atom         4: H, ESP charge:     -0.17910038
  |
  | Atom         5: H, ESP charge:     -0.18103106
  |
  | Atom         6: H, ESP charge:     -0.18127577
  |
  | Atom         7: N, ESP charge:      0.57799629
  |
  | Atom         8: C, ESP charge:     -0.27719403
  |
  | Atom         9: C, ESP charge:     -0.65583113
  |
  | Atom        10: O, ESP charge:      0.53011993
  |
  | Atom        11: H, ESP charge:     -0.28294185
  |
  | Atom        12: H, ESP charge:      0.03432250
  |
  | Atom        13: C, ESP charge:      0.42419780
  |
  | Atom        14: H, ESP charge:     -0.10312785
  |
  | Atom        15: H, ESP charge:     -0.12956441
  |
  | Atom        16: H, ESP charge:     -0.12284956
  |
  | Atom        17: N, ESP charge:      0.93385139
  |
  | Atom        18: C, ESP charge:     -0.69434168
  |
  | Atom        19: C, ESP charge:     -0.17532871
  |
  | Atom        20: O, ESP charge:      0.50111068
  |
  | Atom        21: H, ESP charge:     -0.46082894
  |
  | Atom        22: H, ESP charge:      0.00800280
  |
  | Atom        23: C, ESP charge:      0.45718407
  |
  | Atom        24: H, ESP charge:     -0.09474945
  |
  | Atom        25: H, ESP charge:     -0.14128661
  |
  | Atom        26: H, ESP charge:     -0.12678997
  |
  | Atom        27: N, ESP charge:      0.24087281
  |
  | Atom        28: C, ESP charge:      0.28119521
  |
  | Atom        29: H, ESP charge:     -0.30304911
  |
  | Atom        30: H, ESP charge:     -0.13344916
  |
  | Atom        31: H, ESP charge:     -0.11376032
  |
  | Atom        32: H, ESP charge:     -0.10713966

  RRMS:       0.00207560

  Done.

------------------------------------------------------------------------------
  Final output of selected total energy values:

  The following output summarizes some interesting total energy values
  at the end of a run (AFTER all relaxation, molecular dynamics, etc.).

  | Total energy of the DFT / Hartree-Fock s.c.f. calculation      :         -20208.782194784 eV
  | Final zero-broadening corrected energy (caution - metals only) :         -20208.782194784 eV
  | For reference only, the value of 1 Hartree used in FHI-aims is :             27.211384500 eV

  Before relying on these values, please be sure to understand exactly which
  total energy value is referred to by a given number. Different objects may
  all carry the same name 'total energy'. Definitions:

  Total energy of the DFT / Hartree-Fock s.c.f. calculation:
  | Note that this energy does not include ANY quantities calculated after the
  | s.c.f. cycle, in particular not ANY RPA, MP2, etc. many-body perturbation terms.

  Final zero-broadening corrected energy:
  | For metallic systems only, a broadening of the occupation numbers at the Fermi
  | level can be extrapolated back to zero broadening by an electron-gas inspired
  | formula. For all systems that are not real metals, this value can be
  | meaningless and should be avoided.

------------------------------------------------------------------------------
  Methods described in the following list of references were used in this FHI-aims run.
  If you publish the results, please make sure to cite these reference if they apply.
  FHI-aims is an academic code, and for our developers (often, Ph.D. students
  and postdocs), scientific credit in the community is essential.
  Thank you for helping us!

  For any use of FHI-aims, please cite:

    Volker Blum, Ralf Gehrke, Felix Hanke, Paula Havu, Ville Havu,
    Xinguo Ren, Karsten Reuter, and Matthias Scheffler
    'Ab initio molecular simulations with numeric atom-centered orbitals'
    Computer Physics Communications 180, 2175-2196 (2009)
    http://dx.doi.org/10.1016/j.cpc.2009.06.022


  The scalable eigensolver library ELPA was used in your run.
  ELPA is essential especially for large systems on hundreds or thousands of CPUs.
  For ELPA, please cite:

    Andreas Marek, Volker Blum, Rainer Johanni, Ville Havu, Bruno Lang,
    Thomas Auckenthaler, Alexander Heinecke, Hans-Joachim Bungartz, and Hermann Lederer,
    'The ELPA Library - Scalable Parallel Eigenvalue Solutions
    for Electronic Structure Theory and Computational Science'
    The Journal of Physics: Condensed Matter 26, 213201 (2014).
    http://dx.doi.org/10.1088/0953-8984/26/21/213201


  For ELPA's efficient two-stage tridiagonalization used in your run, please cite:

    T. Auckenthaler, V. Blum, H.-J. Bungartz, T. Huckle, R. Johanni, L. Kraemer,
    B. Lang, H. Lederer, and P. R. Willems,
    'Parallel solution of partial symmetric eigenvalue problems'
    'from  electronic structure calculations'
    Parallel Computing 37, 783-794 (2011).
    http://dx.doi.org/10.1016/j.parco.2011.05.002


  For the real-space grid partitioning and parallelization used in this calculation, please cite:

    Ville Havu, Volker Blum, Paula Havu, and Matthias Scheffler,
    'Efficient O(N) integration for all-electron electronic structure calculation'
    'using numerically tabulated basis functions'
    Journal of Computational Physics 228, 8367-8379 (2009).
    http://dx.doi.org/10.1016/j.jcp.2009.08.008

  Of course, there are many other important community references, e.g., those cited in the
  above references. Our list is limited to references that describe implementations in the
  FHI-aims code. The reason is purely practical (length of this list) - please credit others as well.

------------------------------------------------------------
          Leaving FHI-aims.
          Date     :  20170309, Time     :  162010.740

          Computational steps:
          | Number of self-consistency cycles          :           14

          Detailed time accounting                     :  max(cpu_time)    wall_clock(cpu1)
          | Total time                                 :       28.954 s          29.209 s
          | Preparation time                           :        0.240 s           0.241 s
          | Grid partitioning                          :        0.360 s           0.359 s
          | Preloading free-atom quantities on grid    :        0.028 s           0.029 s
          | Free-atom superposition energy             :        0.040 s           0.038 s
          | Total time for integrations                :        9.861 s           9.851 s
          | Total time for solution of K.-S. equations :        0.596 s           0.569 s
          | Total time for density & force components  :        9.045 s           9.030 s
          | Total time for mixing                      :        0.128 s           0.110 s
          | Total time for Hartree multipole update    :        0.080 s           0.063 s
          | Total time for Hartree multipole sum       :        6.504 s           6.494 s
          | Total time for total energy evaluation     :        0.044 s           0.022 s
          | Total time for vdW correction              :        0.116 s           0.122 s

          Have a nice day.
------------------------------------------------------------
