  MPI-parallelism will be employed.
------------------------------------------------------------
          Invoking FHI-aims ...
          Version 150427
          Git rev.: 9dd23e0 BL: Update Version stamp
          Compiled on 2015/11/03 at 22:05:20 on host eos03.

          When using FHI-aims, please cite the following reference:

          Volker Blum, Ralf Gehrke, Felix Hanke, Paula Havu,
          Ville Havu, Xinguo Ren, Karsten Reuter, and Matthias Scheffler,
          'Ab Initio Molecular Simulations with Numeric Atom-Centered Orbitals: FHI-aims',
          Computer Physics Communications 180, 2175-2196 (2009)

          For any questions about FHI-aims, please visit the aimsclub website
          with its forums and wiki. Contributions to both the forums and the
          wiki are warmly encouraged - they are for you, and everyone is welcome there.

------------------------------------------------------------

  Date     :  20170309, Time     :  160611.279
  Time zero on CPU 1             :   0.320020000000000E+00  s.
  Internal wall clock time zero  :           258307571.279  s.

  Using       32 parallel tasks.
  Task        0 on host eos304 reporting.
  Task        1 on host eos304 reporting.
  Task        2 on host eos304 reporting.
  Task        3 on host eos304 reporting.
  Task        4 on host eos304 reporting.
  Task        5 on host eos304 reporting.
  Task        6 on host eos304 reporting.
  Task        7 on host eos304 reporting.
  Task        8 on host eos304 reporting.
  Task        9 on host eos304 reporting.
  Task       10 on host eos304 reporting.
  Task       11 on host eos304 reporting.
  Task       12 on host eos304 reporting.
  Task       13 on host eos304 reporting.
  Task       14 on host eos304 reporting.
  Task       15 on host eos304 reporting.
  Task       16 on host eos304 reporting.
  Task       17 on host eos304 reporting.
  Task       18 on host eos304 reporting.
  Task       19 on host eos304 reporting.
  Task       20 on host eos304 reporting.
  Task       21 on host eos304 reporting.
  Task       22 on host eos304 reporting.
  Task       23 on host eos304 reporting.
  Task       24 on host eos304 reporting.
  Task       25 on host eos304 reporting.
  Task       26 on host eos304 reporting.
  Task       27 on host eos304 reporting.
  Task       28 on host eos304 reporting.
  Task       29 on host eos304 reporting.
  Task       30 on host eos304 reporting.
  Task       31 on host eos304 reporting.

  Performing system and environment tests:
  | Environment variable OMP_NUM_THREADS correctly set to 1.
  | Stacksize not measured: no C compiler
  | Checking for scalapack...
  | Testing pdtran()...
  | All pdtran() tests passed.

  Obtaining array dimensions for all initial allocations:
  
  -----------------------------------------------------------------------
  Parsing control.in (first pass over file, find array dimensions only).
  The contents of control.in will be repeated verbatim below
  unless switched off by setting 'verbatim_writeout .false.' .
  in the first line of control.in .
  -----------------------------------------------------------------------
  
  #########################################################################################
  #
  # Input for System
  #
  #########################################################################################
  #
  #
  #  Physical model
  #
    xc                 pbe
    vdw_correction_hirshfeld
    spin               none
    charge             0.
  #
  #  SCF convergence
  #
    occupation_type    gaussian 0.05
    mixer              pulay
      n_max_pulay        10
      charge_mix_param   0.5
    sc_accuracy_rho    1E-4
    sc_accuracy_eev    1E-2
    sc_accuracy_etot   1E-5
    sc_accuracy_forces 1E-4
    sc_iter_limit      1000
  #
  #  ESP charge
  #
    output esp
    esp equal_grid_n 80 80 80
  #
  #
  ################################################################################
  #
  #  FHI-aims code project
  # Volker Blum, Fritz Haber Institute Berlin, 2009
  #
  #  Suggested "tight" defaults for H atom (to be pasted into control.in file)
  #
  ################################################################################
    species        H
  #     global species definitions
      nucleus             1
      mass                1.00794
  #
      l_hartree           6
  #
      cut_pot             4.0  2.0  1.0
      basis_dep_cutoff    1e-4
  #
      radial_base         24 7.0
      radial_multiplier   2
      angular_grids       specified
        division   0.1930   50
        division   0.3175  110
        division   0.4293  194
        division   0.5066  302
        division   0.5626  434
  #      division   0.5922  590
  #      division   0.6227  974
  #      division   0.6868 1202
  #      outer_grid  770
        outer_grid  434
  ################################################################################
  #
  #  Definition of "minimal" basis
  #
  ################################################################################
  #     valence basis states
      valence      1  s   1.
  #     ion occupancy
      ion_occ      1  s   0.5
  ################################################################################
  #
  #  Suggested additional basis functions. For production calculations,
  #  uncomment them one after another (the most important basis functions are
  #  listed first).
  #
  #  Basis constructed for dimers: 0.5 A, 0.7 A, 1.0 A, 1.5 A, 2.5 A
  #
  ################################################################################
  #  "First tier" - improvements: -1014.90 meV to -62.69 meV
       hydro 2 s 2.1
       hydro 2 p 3.5
  #  "Second tier" - improvements: -12.89 meV to -1.83 meV
       hydro 1 s 0.85
       hydro 2 p 3.7
       hydro 2 s 1.2
       hydro 3 d 7
  #  "Third tier" - improvements: -0.25 meV to -0.12 meV
  #     hydro 4 f 11.2
  #     hydro 3 p 4.8
  #     hydro 4 d 9
  #     hydro 3 s 3.2
  ################################################################################
  #
  # For methods that use the localized form of the "resolution of identity" for
  # the two-electron Coulomb operator (RI_method LVL), particularly Hartree-Fock and
  # hybrid density functional calculations, the highest accuracy can be obtained by
  # uncommenting the line beginning with "for_aux"  below, thus adding an extra g radial
  # function to the construction of the product basis set for the expansion.
  # See Ref. New J. Phys. 17, 093020 (2015) for more information, particularly Figs. 1 and 6.
  #
  ################################################################################
  #
  # for_aux hydro 5 g 6.0
  ################################################################################
  #
  #  FHI-aims code project
  # Volker Blum, Fritz Haber Institute Berlin, 2009
  #
  #  Suggested "tight" defaults for C atom (to be pasted into control.in file)
  #
  ################################################################################
    species        C
  #     global species definitions
      nucleus             6
      mass                12.0107
  #
      l_hartree           6
  #
      cut_pot             4.0  2.0  1.0
      basis_dep_cutoff    1e-4
  #
      radial_base         34 7.0
      radial_multiplier   2
      angular_grids specified
        division   0.2187   50
        division   0.4416  110
        division   0.6335  194
        division   0.7727  302
        division   0.8772  434
  #      division   0.9334  590
  #      division   0.9924  770
  #      division   1.0230  974
  #      division   1.5020 1202
  #     outer_grid  974
        outer_grid  434
  ################################################################################
  #
  #  Definition of "minimal" basis
  #
  ################################################################################
  #     valence basis states
      valence      2  s   2.
      valence      2  p   2.
  #     ion occupancy
      ion_occ      2  s   1.
      ion_occ      2  p   1.
  ################################################################################
  #
  #  Suggested additional basis functions. For production calculations,
  #  uncomment them one after another (the most important basis functions are
  #  listed first).
  #
  #  Constructed for dimers: 1.0 A, 1.25 A, 1.5 A, 2.0 A, 3.0 A
  #
  ################################################################################
  #  "First tier" - improvements: -1214.57 meV to -155.61 meV
       hydro 2 p 1.7
       hydro 3 d 6
       hydro 2 s 4.9
  #  "Second tier" - improvements: -67.75 meV to -5.23 meV
       hydro 4 f 9.8
       hydro 3 p 5.2
       hydro 3 s 4.3
       hydro 5 g 14.4
       hydro 3 d 6.2
  #  "Third tier" - improvements: -2.43 meV to -0.60 meV
  #     hydro 2 p 5.6
  #     hydro 2 s 1.4
  #     hydro 3 d 4.9
  #     hydro 4 f 11.2
  #  "Fourth tier" - improvements: -0.39 meV to -0.18 meV
  #     hydro 2 p 2.1
  #     hydro 5 g 16.4
  #     hydro 4 d 13.2
  #     hydro 3 s 13.6
  #     hydro 4 f 17.6
  #  Further basis functions - improvements: -0.08 meV and below
  #     hydro 3 s 2
  #     hydro 3 p 6
  #     hydro 4 d 20
  ################################################################################
  #
  # For methods that use the localized form of the "resolution of identity" for
  # the two-electron Coulomb operator (RI_method LVL), particularly Hartree-Fock and
  # hybrid density functional calculations, the highest accuracy can be obtained by
  # uncommenting the line beginning with "for_aux"  below, thus adding an extra g radial
  # function to the construction of the product basis set for the expansion.
  # See Ref. New J. Phys. 17, 093020 (2015) for more information, particularly Figs. 1 and 6.
  #
  ################################################################################
  #
  # for_aux hydro 5 g 6.0
  ################################################################################
  #
  #  FHI-aims code project
  # Volker Blum, Fritz Haber Institute Berlin, 2009
  #
  #  Suggested "tight" defaults for N atom (to be pasted into control.in file)
  #
  ################################################################################
    species        N
  #     global species definitions
      nucleus             7
      mass                14.0067
  #
      l_hartree           6
  #
      cut_pot             4.0  2.0  1.0
      basis_dep_cutoff    1e-4
  #
      radial_base         35 7.0
      radial_multiplier   2
      angular_grids       specified
        division   0.1841   50
        division   0.3514  110
        division   0.5126  194
        division   0.6292  302
        division   0.6939  434
  #      division   0.7396  590
  #      division   0.7632  770
  #      division   0.8122  974
  #      division   1.1604 1202
  #      outer_grid  974
        outer_grid  434
  ################################################################################
  #
  #  Definition of "minimal" basis
  #
  ################################################################################
  #     valence basis states
      valence      2  s   2.
      valence      2  p   3.
  #     ion occupancy
      ion_occ      2  s   1.
      ion_occ      2  p   2.
  ################################################################################
  #
  #  Suggested additional basis functions. For production calculations,
  #  uncomment them one after another (the most important basis functions are
  #  listed first).
  #
  #  Constructed for dimers: 1.0 A, 1.1 A, 1.5 A, 2.0 A, 3.0 A
  #
  ################################################################################
  #  "First tier" - improvements: -1193.42 meV to -220.60 meV
       hydro 2 p 1.8
       hydro 3 d 6.8
       hydro 3 s 5.8
  #  "Second tier" - improvements: -80.21 meV to -6.86 meV
       hydro 4 f 10.8
       hydro 3 p 5.8
       hydro 1 s 0.8
       hydro 5 g 16
       hydro 3 d 4.9
  #  "Third tier" - improvements: -4.29 meV to -0.53 meV
  #     hydro 3 s 16
  #     ionic 2 p auto
  #     hydro 3 d 6.6
  #     hydro 4 f 11.6
  #  "Fourth tier" - improvements: -0.75 meV to -0.25 meV
  #     hydro 2 p 4.5
  #     hydro 2 s 2.4
  #     hydro 5 g 14.4
  #     hydro 4 d 14.4
  #     hydro 4 f 16.8
  # Further basis functions - -0.21 meV and below
  #     hydro 3 p 14.8
  #     hydro 3 s 4.4
  #     hydro 3 d 19.6
  #     hydro 5 g 12.8
  ################################################################################
  #
  # For methods that use the localized form of the "resolution of identity" for
  # the two-electron Coulomb operator (RI_method LVL), particularly Hartree-Fock and
  # hybrid density functional calculations, the highest accuracy can be obtained by
  # uncommenting the line beginning with "for_aux"  below, thus adding an extra g radial
  # function to the construction of the product basis set for the expansion.
  # See Ref. New J. Phys. 17, 093020 (2015) for more information, particularly Figs. 1 and 6.
  #
  ################################################################################
  #
  # for_aux hydro 5 g 6.0
  ################################################################################
  #
  #  FHI-aims code project
  # Volker Blum, Fritz Haber Institute Berlin, 2009
  #
  #  Suggested "tight" defaults for O atom (to be pasted into control.in file)
  #
  ################################################################################
    species        O
  #     global species definitions
      nucleus             8
      mass                15.9994
  #
      l_hartree           6
  #
      cut_pot             4.0  2.0  1.0
      basis_dep_cutoff    1e-4
  #
      radial_base         36 7.0
      radial_multiplier   2
       angular_grids specified
        division   0.1817   50
        division   0.3417  110
        division   0.4949  194
        division   0.6251  302
        division   0.8014  434
  #      division   0.8507  590
  #      division   0.8762  770
  #      division   0.9023  974
  #      division   1.2339 1202
  #      outer_grid 974
        outer_grid  434
  ################################################################################
  #
  #  Definition of "minimal" basis
  #
  ################################################################################
  #     valence basis states
      valence      2  s   2.
      valence      2  p   4.
  #     ion occupancy
      ion_occ      2  s   1.
      ion_occ      2  p   3.
  ################################################################################
  #
  #  Suggested additional basis functions. For production calculations,
  #  uncomment them one after another (the most important basis functions are
  #  listed first).
  #
  #  Constructed for dimers: 1.0 A, 1.208 A, 1.5 A, 2.0 A, 3.0 A
  #
  ################################################################################
  #  "First tier" - improvements: -699.05 meV to -159.38 meV
       hydro 2 p 1.8
       hydro 3 d 7.6
       hydro 3 s 6.4
  #  "Second tier" - improvements: -49.91 meV to -5.39 meV
       hydro 4 f 11.6
       hydro 3 p 6.2
       hydro 3 d 5.6
       hydro 5 g 17.6
       hydro 1 s 0.75
  #  "Third tier" - improvements: -2.83 meV to -0.50 meV
  #     ionic 2 p auto
  #     hydro 4 f 10.8
  #     hydro 4 d 4.7
  #     hydro 2 s 6.8
  #  "Fourth tier" - improvements: -0.40 meV to -0.12 meV
  #     hydro 3 p 5
  #     hydro 3 s 3.3
  #     hydro 5 g 15.6
  #     hydro 4 f 17.6
  #     hydro 4 d 14
  # Further basis functions - -0.08 meV and below
  #     hydro 3 s 2.1
  #     hydro 4 d 11.6
  #     hydro 3 p 16
  #     hydro 2 s 17.2
  ################################################################################
  #
  # For methods that use the localized form of the "resolution of identity" for
  # the two-electron Coulomb operator (RI_method LVL), particularly Hartree-Fock and
  # hybrid density functional calculations, the highest accuracy can be obtained by
  # uncommenting the line beginning with "for_aux"  below, thus adding an extra g radial
  # function to the construction of the product basis set for the expansion.
  # See Ref. New J. Phys. 17, 093020 (2015) for more information, particularly Figs. 1 and 6.
  #
  ################################################################################
  #
  # for_aux hydro 5 g 6.0
  
  -----------------------------------------------------------------------
  Completed first pass over input file control.in .
  -----------------------------------------------------------------------
  
  
  -----------------------------------------------------------------------
  Parsing geometry.in (first pass over file, find array dimensions only).
  The contents of geometry.in will be repeated verbatim below
  unless switched off by setting 'verbatim_writeout .false.' .
  in the first line of geometry.in .
  -----------------------------------------------------------------------
  
  #
  # This is the geometry file that corresponds to the current relaxation step.
  # If you do not want this file to be written, set the "write_restart_geometry" flag to .false.
  #
  atom       0.73525597      0.24639755      0.28119992 C
  atom       0.35989179      0.06493663      1.73840845 C
  atom       1.18853727      0.06583399      2.64277916 O
  atom       1.32128221      1.16771632      0.18028220 H
  atom      -0.12494742      0.28912547     -0.39850274 H
  atom       1.38345641     -0.58752472     -0.01828989 H
  atom      -0.97818777     -0.14407303      1.99277125 N
  atom      -1.47504194     -0.23409262      3.36160153 C
  atom      -1.01396907     -1.51675919      4.08372478 C
  atom      -0.88650538     -1.52942480      5.30997281 O
  atom      -1.64769324     -0.01471685      1.24251858 H
  atom      -1.03034669      0.57862308      3.95434923 H
  atom      -2.99987263     -0.12604881      3.38716354 C
  atom      -3.46675593     -0.93233045      2.80345217 H
  atom      -3.33106191      0.84114477      2.98492336 H
  atom      -3.35616805     -0.20562483      4.42054915 H
  atom      -0.81326216     -2.60071848      3.29050408 N
  atom      -0.20023923     -3.83448486      3.78935277 C
  atom       1.34284980     -3.66777451      3.71802602 C
  atom       2.01762523     -4.19305413      2.83390065 O
  atom      -0.77532079     -2.43361154      2.28859676 H
  atom      -0.50291421     -3.91415163      4.84280456 H
  atom      -0.68115777     -5.04007353      2.99839234 C
  atom      -0.35716425     -4.97768858      1.95125566 H
  atom      -1.77540041     -5.11131468      3.03898476 H
  atom      -0.25218406     -5.96055890      3.41193811 H
  atom       1.83731249     -2.85709157      4.69100711 N
  atom       3.19680210     -2.34800679      4.65529730 C
  atom       1.15506251     -2.37453008      5.27526469 H
  atom       3.60599571     -2.29324385      5.67181610 H
  atom       3.23421530     -1.34921700      4.19468535 H
  atom       3.80519616     -3.03447236      4.05753429 H
  
  -----------------------------------------------------------------------
  Completed first pass over input file geometry.in .
  -----------------------------------------------------------------------
  

  Basic array size parameters:
  | Number of species                 :        4
  | Number of atoms                   :       32
  | Max. basis fn. angular momentum   :        4
  | Max. atomic/ionic basis occupied n:        2
  | Max. number of basis fn. types    :        2
  | Max. radial fns per species/type  :        8
  | Max. logarithmic grid size        :     1301
  | Max. radial integration grid size :       73
  | Max. angular integration grid size:      434
  | Max. angular grid division number :        8
  | Radial grid for Hartree potential :     1301
  | Number of spin channels           :        1

------------------------------------------------------------
          Reading file control.in.
------------------------------------------------------------
  XC: Using PBE gradient-corrected functionals.
  Spin treatment: No spin polarisation.
  Charge =   0.000000E+00: Neutral system requested explicitly.
  Occupation type: Gaussian broadening, width =   0.500000E-01 eV.
  Using pulay charge density mixing.
  Pulay mixing - number of memorized iterations:   10
  Charge density mixing - mixing parameter:     0.5000
  Convergence accuracy of self-consistent charge density:  0.1000E-03
  Convergence accuracy of sum of eigenvalues:  0.1000E-01
  Convergence accuracy of total energy:  0.1000E-04
  Convergence accuracy of forces:  0.1000E-03
  Maximum number of s.-c. iterations  :  1000
  Fitting ESP-charges to Potential. 
  | Esp charge output options: 
  | ESP Grid method: 3, cubic grid
  | Number of points in x, ,y, z:  0080 0080 0080
  |
 
  Reading configuration options for species H                   .
  | Found nuclear charge :   1.0000
  | Found atomic mass :    1.00794000000000      amu
  | Found l_max for Hartree potential  :   6
  | Found cutoff potl. onset [A], width [A], scale factor :    4.00000    2.00000    1.00000
  | Threshold for basis-dependent cutoff potential is   0.100000E-03
  | Found data for basic radial integration grid :    24 points, outermost radius =    7.000 A
  | Found multiplier for basic radial grid :   2
  | Found angular grid specification: user-specified.
  | Specified grid contains     6 separate shells.
  | Check grid settings after all constraints further below.
  | Found free-atom valence shell :  1 s   1.000
  | No ionic wave fns used. Skipping ion_occ.
  | Found hydrogenic basis function :  2 s   2.100
  | Found hydrogenic basis function :  2 p   3.500
  | Found hydrogenic basis function :  1 s   0.850
  | Found hydrogenic basis function :  2 p   3.700
  | Found hydrogenic basis function :  2 s   1.200
  | Found hydrogenic basis function :  3 d   7.000
  Species H                   : Missing cutoff potential type.
  Defaulting to exp(1/x)/(1-x)^2 type cutoff potential.
  Species H : No 'logarithmic' tag. Using default grid for free atom:
  | Default logarithmic grid data [bohr] : 0.1000E-03 0.1000E+03 0.1012E+01
  Species H : On-site basis accuracy parameter (for Gram-Schmidt orthonormalisation) not specified.
  Using default value basis_acc =  0.1000000E-03.
  Species H                   : Using default innermost maximum threshold i_radial=  2 for radial functions.
  Species H                   : Default cutoff onset for free atom density etc. : 0.40000000E+01 AA.
  Species H                   : Basic radial grid will be enhanced according to radial_multiplier =   2, to contain    49 grid points.
 
  Reading configuration options for species C                   .
  | Found nuclear charge :   6.0000
  | Found atomic mass :    12.0107000000000      amu
  | Found l_max for Hartree potential  :   6
  | Found cutoff potl. onset [A], width [A], scale factor :    4.00000    2.00000    1.00000
  | Threshold for basis-dependent cutoff potential is   0.100000E-03
  | Found data for basic radial integration grid :    34 points, outermost radius =    7.000 A
  | Found multiplier for basic radial grid :   2
  | Found angular grid specification: user-specified.
  | Specified grid contains     6 separate shells.
  | Check grid settings after all constraints further below.
  | Found free-atom valence shell :  2 s   2.000
  | Found free-atom valence shell :  2 p   2.000
  | No ionic wave fns used. Skipping ion_occ.
  | No ionic wave fns used. Skipping ion_occ.
  | Found hydrogenic basis function :  2 p   1.700
  | Found hydrogenic basis function :  3 d   6.000
  | Found hydrogenic basis function :  2 s   4.900
  | Found hydrogenic basis function :  4 f   9.800
  | Found hydrogenic basis function :  3 p   5.200
  | Found hydrogenic basis function :  3 s   4.300
  | Found hydrogenic basis function :  5 g  14.400
  | Found hydrogenic basis function :  3 d   6.200
  Species C                   : Missing cutoff potential type.
  Defaulting to exp(1/x)/(1-x)^2 type cutoff potential.
  Species C : No 'logarithmic' tag. Using default grid for free atom:
  | Default logarithmic grid data [bohr] : 0.1000E-03 0.1000E+03 0.1012E+01
  Species C : On-site basis accuracy parameter (for Gram-Schmidt orthonormalisation) not specified.
  Using default value basis_acc =  0.1000000E-03.
  Species C                   : Using default innermost maximum threshold i_radial=  2 for radial functions.
  Species C                   : Default cutoff onset for free atom density etc. : 0.40000000E+01 AA.
  Species C                   : Basic radial grid will be enhanced according to radial_multiplier =   2, to contain    69 grid points.
 
  Reading configuration options for species N                   .
  | Found nuclear charge :   7.0000
  | Found atomic mass :    14.0067000000000      amu
  | Found l_max for Hartree potential  :   6
  | Found cutoff potl. onset [A], width [A], scale factor :    4.00000    2.00000    1.00000
  | Threshold for basis-dependent cutoff potential is   0.100000E-03
  | Found data for basic radial integration grid :    35 points, outermost radius =    7.000 A
  | Found multiplier for basic radial grid :   2
  | Found angular grid specification: user-specified.
  | Specified grid contains     6 separate shells.
  | Check grid settings after all constraints further below.
  | Found free-atom valence shell :  2 s   2.000
  | Found free-atom valence shell :  2 p   3.000
  | No ionic wave fns used. Skipping ion_occ.
  | No ionic wave fns used. Skipping ion_occ.
  | Found hydrogenic basis function :  2 p   1.800
  | Found hydrogenic basis function :  3 d   6.800
  | Found hydrogenic basis function :  3 s   5.800
  | Found hydrogenic basis function :  4 f  10.800
  | Found hydrogenic basis function :  3 p   5.800
  | Found hydrogenic basis function :  1 s   0.800
  | Found hydrogenic basis function :  5 g  16.000
  | Found hydrogenic basis function :  3 d   4.900
  Species N                   : Missing cutoff potential type.
  Defaulting to exp(1/x)/(1-x)^2 type cutoff potential.
  Species N : No 'logarithmic' tag. Using default grid for free atom:
  | Default logarithmic grid data [bohr] : 0.1000E-03 0.1000E+03 0.1012E+01
  Species N : On-site basis accuracy parameter (for Gram-Schmidt orthonormalisation) not specified.
  Using default value basis_acc =  0.1000000E-03.
  Species N                   : Using default innermost maximum threshold i_radial=  2 for radial functions.
  Species N                   : Default cutoff onset for free atom density etc. : 0.40000000E+01 AA.
  Species N                   : Basic radial grid will be enhanced according to radial_multiplier =   2, to contain    71 grid points.
 
  Reading configuration options for species O                   .
  | Found nuclear charge :   8.0000
  | Found atomic mass :    15.9994000000000      amu
  | Found l_max for Hartree potential  :   6
  | Found cutoff potl. onset [A], width [A], scale factor :    4.00000    2.00000    1.00000
  | Threshold for basis-dependent cutoff potential is   0.100000E-03
  | Found data for basic radial integration grid :    36 points, outermost radius =    7.000 A
  | Found multiplier for basic radial grid :   2
  | Found angular grid specification: user-specified.
  | Specified grid contains     6 separate shells.
  | Check grid settings after all constraints further below.
  | Found free-atom valence shell :  2 s   2.000
  | Found free-atom valence shell :  2 p   4.000
  | No ionic wave fns used. Skipping ion_occ.
  | No ionic wave fns used. Skipping ion_occ.
  | Found hydrogenic basis function :  2 p   1.800
  | Found hydrogenic basis function :  3 d   7.600
  | Found hydrogenic basis function :  3 s   6.400
  | Found hydrogenic basis function :  4 f  11.600
  | Found hydrogenic basis function :  3 p   6.200
  | Found hydrogenic basis function :  3 d   5.600
  | Found hydrogenic basis function :  5 g  17.600
  | Found hydrogenic basis function :  1 s   0.750
  Species O                   : Missing cutoff potential type.
  Defaulting to exp(1/x)/(1-x)^2 type cutoff potential.
  Species O : No 'logarithmic' tag. Using default grid for free atom:
  | Default logarithmic grid data [bohr] : 0.1000E-03 0.1000E+03 0.1012E+01
  Species O : On-site basis accuracy parameter (for Gram-Schmidt orthonormalisation) not specified.
  Using default value basis_acc =  0.1000000E-03.
  Species O                   : Using default innermost maximum threshold i_radial=  2 for radial functions.
  Species O                   : Default cutoff onset for free atom density etc. : 0.40000000E+01 AA.
  Species O                   : Basic radial grid will be enhanced according to radial_multiplier =   2, to contain    73 grid points.
 
  Finished reading input file 'control.in'. Consistency checks are next.
 
  Target number of points in a grid batch is not set. Defaulting to  100
  Method for grid partitioning is not set. Defaulting to parallel hash+maxmin partitioning.
  Batch size limit is not set. Defaulting to    200
  By default, will store active basis functions for each batch.
  If in need of memory, prune_basis_once .false. can be used to disable this option.
  communication_type for Hartree potential was not specified.
  Defaulting to calc_hartree .
  Pulay mixer: Number of initial linear mixing iterations not set.
  Defaulting to    0 iterations.
  Work space size for distributed Hartree potential not set.
  Defaulting to   0.200000E+03 MB.
  Algorithm-dependent basis array size parameters:
  | n_max_pulay                         :       10
  Geometry relaxation not requested: no relaxation will be performed.
  Handling of forces: Unphysical translation and rotation will be removed from forces.
  No accuracy limit for integral partition fn. given. Defaulting to  0.1000E-14.
  No threshold value for u(r) in integrations given. Defaulting to  0.1000E-05.
  No accuracy for occupation numbers given. Defaulting to  0.1000E-07.
  No threshold value for occupation numbers given. Defaulting to  0.0000E+00.
  No accuracy for fermi level given. Defaulting to  0.1000E-19.
  Maximum # of iterations to find E_F not set. Defaulting to  200.
  Preferred method for the eigenvalue solver ('KS_method') not specified in 'control.in'.
  Calling blacs routine to test compilation state
  Since scalapack support is enabled, defaulting to 'elpa'.
  Preferred method for the MBD eigenvalue solver ('mbd_eigensolver') not specified in 'control.in'.
  Calling blacs routine to test compilation state
  Since scalapack support is enabled, defaulting to 'scaLAPACK'.
  Will not use alltoall communication since running on < 1024 CPUs.
  Threshold for basis singularities not set.
  Default threshold for basis singularities:  0.1000E-04
  partition_type (choice of integration weights) for integrals was not specified.
  | Using a version of the partition function of Stratmann and coworkers ('stratmann_smoother').
  | At each grid point, the set of atoms used to build the partition table is smoothly restricted to
  | only those atoms whose free-atom density would be non-zero at that grid point.
  Partitioning for Hartree potential was not defined. Using partition_type for integrals.
  | Adjusted default value of keyword multip_moments_threshold to:       0.10000000E-11
  | This value may affect high angular momentum components of the Hartree potential in periodic systems.
  No q(lm)/r^(l+1) cutoff set for long-range Hartree potential.
  | Using default value of  0.100000E-09 .
  | Verify using the multipole_threshold keyword.
  Defaulting to new monopole extrapolation.
  Density update method: automatic selection selected.
------------------------------------------------------------


------------------------------------------------------------
          Reading geometry description geometry.in.
------------------------------------------------------------
 * Warning! You did not set the 'relativistic' flag in input file 'control.in'.
 * Since you are not attempting to treat any elements beyond Ca(Z=20), FHI-aims
 * will default to 'relativistic none'.
 * You must ensure that this is really what you want!!
 * For example, DO NOT compute total-energy differences between results from
 * different settings of the 'relativistic' flag.
  Input structure read successfully.
  The structure contains       32 atoms,  and a total of        116.000 electrons.

  Input geometry:
  | No unit cell requested.
  | Atomic structure:
  |       Atom                x [A]            y [A]            z [A]
  |    1: Species C              0.735256         0.246398         0.281200
  |    2: Species C              0.359892         0.064937         1.738408
  |    3: Species O              1.188537         0.065834         2.642779
  |    4: Species H              1.321282         1.167716         0.180282
  |    5: Species H             -0.124947         0.289125        -0.398503
  |    6: Species H              1.383456        -0.587525        -0.018290
  |    7: Species N             -0.978188        -0.144073         1.992771
  |    8: Species C             -1.475042        -0.234093         3.361602
  |    9: Species C             -1.013969        -1.516759         4.083725
  |   10: Species O             -0.886505        -1.529425         5.309973
  |   11: Species H             -1.647693        -0.014717         1.242519
  |   12: Species H             -1.030347         0.578623         3.954349
  |   13: Species C             -2.999873        -0.126049         3.387164
  |   14: Species H             -3.466756        -0.932330         2.803452
  |   15: Species H             -3.331062         0.841145         2.984923
  |   16: Species H             -3.356168        -0.205625         4.420549
  |   17: Species N             -0.813262        -2.600718         3.290504
  |   18: Species C             -0.200239        -3.834485         3.789353
  |   19: Species C              1.342850        -3.667775         3.718026
  |   20: Species O              2.017625        -4.193054         2.833901
  |   21: Species H             -0.775321        -2.433612         2.288597
  |   22: Species H             -0.502914        -3.914152         4.842805
  |   23: Species C             -0.681158        -5.040074         2.998392
  |   24: Species H             -0.357164        -4.977689         1.951256
  |   25: Species H             -1.775400        -5.111315         3.038985
  |   26: Species H             -0.252184        -5.960559         3.411938
  |   27: Species N              1.837312        -2.857092         4.691007
  |   28: Species C              3.196802        -2.348007         4.655297
  |   29: Species H              1.155063        -2.374530         5.275265
  |   30: Species H              3.605996        -2.293244         5.671816
  |   31: Species H              3.234215        -1.349217         4.194685
  |   32: Species H              3.805196        -3.034472         4.057534
  |

  | The smallest distance between any two atoms is         1.01382921 AA.
  |
  | The first atom of this pair is atom number                      7 .
  | The second atom of this pair is atom number                    11 .

  Number of empty states per atom not set in control.in - providing a guess from actual geometry.
  | Total number of empty states used during s.c.f. cycle:       71
  If you use a very high smearing, use empty_states (per atom!) in control.in to increase this value.

  Structure-dependent array size parameters: 
  | Maximum number of distinct radial functions  :       40
  | Maximum number of basis functions            :      840
  | Number of Kohn-Sham states (occupied + empty):      129
------------------------------------------------------------

------------------------------------------------------------
          Preparing all fixed parts of the calculation.
------------------------------------------------------------
  Determining machine precision:
    2.225073858507201E-308
  Setting up grids for atomic and cluster calculations.

  Creating wave function, potential, and density for free atoms.

  Species: H

  List of occupied orbitals and eigenvalues:
    n    l              occ      energy [Ha]    energy [eV]
    1    0           1.0000        -0.238382        -6.4867


  Species: C

  List of occupied orbitals and eigenvalues:
    n    l              occ      energy [Ha]    energy [eV]
    1    0           2.0000       -10.041232      -273.2358
    2    0           2.0000        -0.504327       -13.7234
    2    1           2.0000        -0.193750        -5.2722


  Species: N

  List of occupied orbitals and eigenvalues:
    n    l              occ      energy [Ha]    energy [eV]
    1    0           2.0000       -14.129007      -384.4699
    2    0           2.0000        -0.681802       -18.5528
    2    1           3.0000        -0.260543        -7.0897


  Species: O

  List of occupied orbitals and eigenvalues:
    n    l              occ      energy [Ha]    energy [eV]
    1    0           2.0000       -18.898576      -514.2564
    2    0           2.0000        -0.878795       -23.9132
    2    1           4.0000        -0.332075        -9.0362

  Creating fixed part of basis set: Ionic, confined, hydrogenic.
 
  H                    hydrogenic:
 
  List of hydrogenic basis orbitals: 
    n    l      effective z      eigenvalue [eV]  inner max. [A]     outer max. [A]     outer radius [A]   
    2    0         2.100000       -14.9965           0.193243           1.317208           5.373006
    2    1         3.500000       -41.6672           0.602369           0.602369           4.056063
    1    0         0.850000        -9.8292           0.624871           0.624871           5.373006
    2    1         3.700000       -46.5653           0.573622           0.573622           3.910002
    2    0         1.200000        -4.5995           0.334980           2.228188           5.505995
    3    2         7.000000       -74.0753           0.680699           0.680699           3.769201
 
 
  C                    hydrogenic:
 
  List of hydrogenic basis orbitals: 
    n    l      effective z      eigenvalue [eV]  inner max. [A]     outer max. [A]     outer radius [A]   
    2    1         1.700000        -9.8152           1.245706           1.245706           5.401630
    3    2         6.000000       -54.4226           0.792453           0.792453           4.178599
    2    0         4.900000       -81.6681           0.082559           0.562749           3.353238
    4    3         9.800000       -81.6681           0.863254           0.863254           4.028125
    3    1         5.200000       -40.8774           0.305389           1.215618           4.898362
    3    0         4.300000       -27.9508           0.091041           1.610311           5.401630
    5    4        14.400000      -112.8510           0.917666           0.917666           3.883070
    3    2         6.200000       -58.1113           0.763917           0.763917           4.077671
 
 
  N                    hydrogenic:
 
  List of hydrogenic basis orbitals: 
    n    l      effective z      eigenvalue [eV]  inner max. [A]     outer max. [A]     outer radius [A]   
    2    1         1.800000       -11.0118           1.177451           1.177451           5.427479
    3    2         6.800000       -69.9029           0.704619           0.704619           3.854246
    3    0         5.800000       -50.8549           0.067388           1.191934           4.629968
    4    3        10.800000       -99.1854           0.786571           0.786571           3.761152
    3    1         5.800000       -50.8549           0.274880           1.094176           4.518138
    1    0         0.800000        -8.7059           0.662839           0.662839           5.361532
    5    4        16.000000      -139.3222           0.825990           0.825990           3.625711
    3    2         4.900000       -36.2967           0.968267           0.968267           4.862000
 
 
  O                    hydrogenic:
 
  List of hydrogenic basis orbitals: 
    n    l      effective z      eigenvalue [eV]  inner max. [A]     outer max. [A]     outer radius [A]   
    2    1         1.800000       -11.0118           1.178562           1.178562           5.432602
    3    2         7.600000       -87.3182           0.624125           0.624125           3.541477
    3    0         6.400000       -61.9209           0.061167           1.081902           4.306578
    4    3        11.600000      -114.4238           0.731631           0.731631           3.585037
    3    1         6.200000       -58.1113           0.255680           1.030270           4.306578
    3    2         5.600000       -47.4081           0.847233           0.847233           4.413171
    5    4        17.600000      -168.5799           0.749740           0.749740           3.372465
    1    0         0.750000        -7.6499           0.705284           0.705284           5.366593
 

  Adding cutoff potential to free-atom effective potential.
  Creating atomic-like basis functions for current effective potential.

  Species H                   :

  List of atomic basis orbitals and eigenvalues:
    n    l      energy [Ha]    energy [eV]    outer radius [A]
    1    0        -0.238382        -6.4867       5.373006


  Species C                   :

  List of atomic basis orbitals and eigenvalues:
    n    l      energy [Ha]    energy [eV]    outer radius [A]
    1    0       -10.041232      -273.2358       1.934409
    2    0        -0.504327       -13.7234       5.271162
    2    1        -0.193750        -5.2722       5.401630


  Species N                   :

  List of atomic basis orbitals and eigenvalues:
    n    l      energy [Ha]    energy [eV]    outer radius [A]
    1    0       -14.129007      -384.4699       1.637919
    2    0        -0.681802       -18.5528       5.168461
    2    1        -0.260543        -7.0897       5.361532


  Species O                   :

  List of atomic basis orbitals and eigenvalues:
    n    l      energy [Ha]    energy [eV]    outer radius [A]
    1    0       -18.898576      -514.2564       1.415765
    2    0        -0.878795       -23.9132       5.048385
    2    1        -0.332075        -9.0362       5.301386

  Assembling full basis from fixed parts.
  | Species H :   atomic orbital   1 s accepted.
  | Species H :    hydro orbital   2 s accepted.
  | Species H :    hydro orbital   1 s accepted.
  | Species H :    hydro orbital   2 s accepted.
  | Species H :    hydro orbital   2 p accepted.
  | Species H :    hydro orbital   2 p accepted.
  | Species H :    hydro orbital   3 d accepted.
  | Species C :   atomic orbital   1 s accepted.
  | Species C :    hydro orbital   2 s accepted.
  | Species C :   atomic orbital   2 s accepted.
  | Species C :    hydro orbital   3 s accepted.
  | Species C :    hydro orbital   3 p accepted.
  | Species C :   atomic orbital   2 p accepted.
  | Species C :    hydro orbital   2 p accepted.
  | Species C :    hydro orbital   3 d accepted.
  | Species C :    hydro orbital   3 d accepted.
  | Species C :    hydro orbital   4 f accepted.
  | Species C :    hydro orbital   5 g accepted.
  | Species N :   atomic orbital   1 s accepted.
  | Species N :    hydro orbital   3 s accepted.
  | Species N :   atomic orbital   2 s accepted.
  | Species N :    hydro orbital   1 s accepted.
  | Species N :    hydro orbital   3 p accepted.
  | Species N :   atomic orbital   2 p accepted.
  | Species N :    hydro orbital   2 p accepted.
  | Species N :    hydro orbital   3 d accepted.
  | Species N :    hydro orbital   3 d accepted.
  | Species N :    hydro orbital   4 f accepted.
  | Species N :    hydro orbital   5 g accepted.
  | Species O :   atomic orbital   1 s accepted.
  | Species O :    hydro orbital   3 s accepted.
  | Species O :   atomic orbital   2 s accepted.
  | Species O :    hydro orbital   1 s accepted.
  | Species O :    hydro orbital   3 p accepted.
  | Species O :   atomic orbital   2 p accepted.
  | Species O :    hydro orbital   2 p accepted.
  | Species O :    hydro orbital   3 d accepted.
  | Species O :    hydro orbital   3 d accepted.
  | Species O :    hydro orbital   4 f accepted.
  | Species O :    hydro orbital   5 g accepted.
 
  Basis size parameters after reduction:
  | Total number of radial functions:       40
  | Total number of basis functions :      840
 
  Testing on-site integration grid accuracy.
  |  Species  Function  <phi|h_atom|phi> (log., in eV)  <phi|h_atom|phi> (rad., in eV)
           1        1                 -6.4869821809                 -6.4870742227
           1        2                 13.5044133542                 13.5041049177
           1        3                 32.7854418792                 32.7779770519
           1        4                 33.7995553101                 33.7152624900 ***
           1        5                 28.8558651799                 28.8558652046
           1        6                 59.6361831893                 59.6362535845
           1        7                 60.2733718049                 60.2733715484
           2        8               -273.2358277112               -273.2358261765
           2        9                -10.7624923123                -10.7625144012
           2       10                 17.4634079027                 17.4634252127
           2       11                 53.0363661832                 53.0366180446
           2       12                 15.0981351967                 15.0981317714
           2       13                  3.8522181899                  3.8522770949
           2       14                 12.1181835661                 12.1206868578
           2       15                 29.4320778347                 29.4320780959
           2       16                 54.8753777694                 54.8752901936
           2       17                 59.3533975461                 59.3533974833
           2       18                 93.4537491195                 93.4537492066
           3       19               -384.4698526889               -384.4698499465
           3       20                 12.5691022037                 12.5690910168
           3       21                -15.7489097511                -15.7489165588
           3       22                 27.0978334940                 27.0985589490
           3       23                 18.5949116966                 18.5949125562
           3       24                  1.2212828291                  1.2212855301
           3       25                 13.4428926797                 13.4434051125
           3       26                 35.9380614500                 35.9380613666
           3       27                 39.9231532098                 39.9231654735
           3       28                 72.9957335806                 72.9957336833
           3       29                116.4231321147                116.4231321431
           4       30               -514.2564144315               -514.2564099626
           4       31                 15.1726678541                 15.1726530877
           4       32                -21.5447785304                -21.5447874973
           4       33                 14.4944558459                 14.4944698284
           4       34                 20.8882174564                 20.8882178906
           4       35                 -2.4850315908                 -2.4850322289
           4       36                 13.8600193195                 13.8599826966
           4       37                 45.8243383616                 45.8243383675
           4       38                 52.1840606465                 52.1840622440
           4       39                 85.4074185510                 85.4074185819
           4       40                142.0983717302                142.0983717339
 * Note: Onsite integrals marked "***" above are less accurate than
 * onsite_accuracy_threshold =    0.03000 eV. Usually, this is harmless.
 * When in doubt, tighten the "radial" and/or "radial_multiplier" flags to check.

  Preparing densities etc. for the partition functions (integrals / Hartree potential).

  Preparations completed.
  max(cpu_time)          :      0.232 s.
  Wall clock time (cpu1) :      0.231 s.
------------------------------------------------------------

------------------------------------------------------------
          Begin self-consistency loop: Initialization.

          Date     :  20170309, Time     :  160612.197
------------------------------------------------------------

  Initializing index lists of integration centers etc. from given atomic structure:
  | Number of centers in hartree potential         :        32
  | Number of centers in hartree multipole         :        32
  | Number of centers in electron density summation:        32
  | Number of centers in basis integrals           :        32
  | Number of centers in integrals                 :        32
  | Number of centers in hamiltonian               :        32
  Using modified Scalapack Eigenvalue solver (ELPA)
  * Using 32 tasks for Scalapack Eigenvalue solver.
  Detailed listing of tasks and assigned k-points:
  (for non-periodic systems, the "k-point" denotes an internal label only)
   Task     0 k-point     1 on eos304
   Task     1 k-point     1 on eos304
   Task     2 k-point     1 on eos304
   Task     3 k-point     1 on eos304
   Task     4 k-point     1 on eos304
   Task     5 k-point     1 on eos304
   Task     6 k-point     1 on eos304
   Task     7 k-point     1 on eos304
   Task     8 k-point     1 on eos304
   Task     9 k-point     1 on eos304
   Task    10 k-point     1 on eos304
   Task    11 k-point     1 on eos304
   Task    12 k-point     1 on eos304
   Task    13 k-point     1 on eos304
   Task    14 k-point     1 on eos304
   Task    15 k-point     1 on eos304
   Task    16 k-point     1 on eos304
   Task    17 k-point     1 on eos304
   Task    18 k-point     1 on eos304
   Task    19 k-point     1 on eos304
   Task    20 k-point     1 on eos304
   Task    21 k-point     1 on eos304
   Task    22 k-point     1 on eos304
   Task    23 k-point     1 on eos304
   Task    24 k-point     1 on eos304
   Task    25 k-point     1 on eos304
   Task    26 k-point     1 on eos304
   Task    27 k-point     1 on eos304
   Task    28 k-point     1 on eos304
   Task    29 k-point     1 on eos304
   Task    30 k-point     1 on eos304
   Task    31 k-point     1 on eos304
  Tasks:    32 split into      8 X      4 BLACS grid
  Calculating blocksize based on n_basis =          840 max_nprow =            8 max_npcol =            4
  Scalapack blocksize set to:           16
  Required Scalapack workspace - INTEGER:            1 REAL:             1
  Partitioning the integration grid into batches with parallel hashing+maxmin method.
  | Number of batches:     4931
  | Maximal batch size:     199
  | Minimal batch size:      40
  | Average batch size:     107.023
  | Standard deviation of batch sizes:      30.000

  Integration load balanced across    32 MPI tasks.
  Work distribution over tasks is as follows:
  Task     0 has      16563 integration points.
  Task     1 has      16443 integration points.
  Task     2 has      16441 integration points.
  Task     3 has      16564 integration points.
  Task     4 has      16479 integration points.
  Task     5 has      16514 integration points.
  Task     6 has      16402 integration points.
  Task     7 has      16504 integration points.
  Task     8 has      16566 integration points.
  Task     9 has      16508 integration points.
  Task    10 has      16508 integration points.
  Task    11 has      16511 integration points.
  Task    12 has      16508 integration points.
  Task    13 has      16416 integration points.
  Task    14 has      16504 integration points.
  Task    15 has      16518 integration points.
  Task    16 has      16510 integration points.
  Task    17 has      16559 integration points.
  Task    18 has      16410 integration points.
  Task    19 has      16556 integration points.
  Task    20 has      16410 integration points.
  Task    21 has      16503 integration points.
  Task    22 has      16480 integration points.
  Task    23 has      16563 integration points.
  Task    24 has      16476 integration points.
  Task    25 has      16433 integration points.
  Task    26 has      16426 integration points.
  Task    27 has      16558 integration points.
  Task    28 has      16400 integration points.
  Task    29 has      16560 integration points.
  Task    30 has      16513 integration points.
  Task    31 has      16422 integration points.
  Initializing partition tables, free-atom densities, potentials, etc. across the integration grid (initialize_grid_storage).
  | initialize_grid_storage: Actual outermost partition radius vs. multipole_radius_free
  | (-- VB: in principle, multipole_radius_free should be larger, hence this output)
  | Species        1: Confinement radius =              6.000000000000000 AA, multipole_radius_free =              6.071692442739658 AA.
  | Species        1: outer_partition_radius set to              6.071692442739658 AA .
  | Species        2: Confinement radius =              6.000000000000000 AA, multipole_radius_free =              6.029870734432609 AA.
  | Species        2: outer_partition_radius set to              6.029870734432609 AA .
  | Species        3: Confinement radius =              6.000000000000000 AA, multipole_radius_free =              6.058726835495003 AA.
  | Species        3: outer_partition_radius set to              6.058726835495003 AA .
  | Species        4: Confinement radius =              6.000000000000000 AA, multipole_radius_free =              6.064445521808699 AA.
  | Species        4: outer_partition_radius set to              6.064445521808699 AA .
  | Original list of interatomic distances with          32 x         32 entries is created.
  | Net number of integration points:   527728
  | of which are non-zero points    :   413850
  Obtaining max. number of non-zero basis functions in each batch (get_n_compute_maxes).
  | Maximal number of non-zero basis functions:      785 in task     0
  | Maximal number of non-zero basis functions:      802 in task     1
  | Maximal number of non-zero basis functions:      796 in task     2
  | Maximal number of non-zero basis functions:      791 in task     3
  | Maximal number of non-zero basis functions:      808 in task     4
  | Maximal number of non-zero basis functions:      799 in task     5
  | Maximal number of non-zero basis functions:      789 in task     6
  | Maximal number of non-zero basis functions:      779 in task     7
  | Maximal number of non-zero basis functions:      801 in task     8
  | Maximal number of non-zero basis functions:      792 in task     9
  | Maximal number of non-zero basis functions:      798 in task    10
  | Maximal number of non-zero basis functions:      788 in task    11
  | Maximal number of non-zero basis functions:      779 in task    12
  | Maximal number of non-zero basis functions:      810 in task    13
  | Maximal number of non-zero basis functions:      813 in task    14
  | Maximal number of non-zero basis functions:      797 in task    15
  | Maximal number of non-zero basis functions:      798 in task    16
  | Maximal number of non-zero basis functions:      806 in task    17
  | Maximal number of non-zero basis functions:      792 in task    18
  | Maximal number of non-zero basis functions:      768 in task    19
  | Maximal number of non-zero basis functions:      790 in task    20
  | Maximal number of non-zero basis functions:      796 in task    21
  | Maximal number of non-zero basis functions:      794 in task    22
  | Maximal number of non-zero basis functions:      804 in task    23
  | Maximal number of non-zero basis functions:      802 in task    24
  | Maximal number of non-zero basis functions:      818 in task    25
  | Maximal number of non-zero basis functions:      786 in task    26
  | Maximal number of non-zero basis functions:      791 in task    27
  | Maximal number of non-zero basis functions:      786 in task    28
  | Maximal number of non-zero basis functions:      797 in task    29
  | Maximal number of non-zero basis functions:      789 in task    30
  | Maximal number of non-zero basis functions:      799 in task    31
  Selecting the method for density update.
  Loop over occupied states selected for charge density update.
  Integrating Hamiltonian matrix: batch-based integration.
  Time summed over all CPUs for integration: real work       21.742 s, elapsed       22.460 s
  Integrating overlap matrix.
  Time summed over all CPUs for integration: real work       13.189 s, elapsed       13.601 s
  Deallocating overlap matrix.

  Updating Kohn-Sham eigenvalues, eigenvectors, occupation numbers, and Fermi level.
  Solving generalized eigenproblem
  Solving real symmetric generalised eigenvalue problem by standard ScaLAPACK.
  Transforming overlap matrix with ScaLAPACK and checking for singularities.
  : Overlap matrix is nonsingular, using Cholesky decomposition
  | Lowest eigenvalue:  0.873533E-04
  Factoring overlap matrix with Cholesky decomposition
  Using Cholesky factor for transformation
  Using 1-stage real ELPA solver
  Determining occupation numbers for Kohn-Sham eigenstates.
  | Chemical potential (Fermi level) in eV                 : -.97013865E+01
  | Error in electron count due to remaining E_F inaccuracy: 0.00000000E+00
  | Maximum occupation number of highest empty state:  0.00E+00

  Writing Kohn-Sham eigenvalues.

  State    Occupation    Eigenvalue [Ha]    Eigenvalue [eV]
      1       2.00000         -18.974816         -516.33100
      2       2.00000         -18.973813         -516.30373
      3       2.00000         -18.973810         -516.30364
      4       2.00000         -14.255744         -387.91854
      5       2.00000         -14.255327         -387.90717
      6       2.00000         -14.253449         -387.85609
      7       2.00000         -10.171920         -276.79204
      8       2.00000         -10.171013         -276.76734
      9       2.00000         -10.170976         -276.76634
     10       2.00000         -10.166790         -276.65244
     11       2.00000         -10.149097         -276.17099
     12       2.00000         -10.148722         -276.16078
     13       2.00000         -10.135931         -275.81272
     14       2.00000         -10.135171         -275.79204
     15       2.00000         -10.134093         -275.76270
     16       2.00000          -1.134780          -30.87894
     17       2.00000          -1.131129          -30.77958
     18       2.00000          -1.127413          -30.67847
     19       2.00000          -1.024844          -27.88742
     20       2.00000          -1.015318          -27.62822
     21       2.00000          -1.004887          -27.34436
     22       2.00000          -0.891654          -24.26315
     23       2.00000          -0.876261          -23.84428
     24       2.00000          -0.842025          -22.91268
     25       2.00000          -0.823611          -22.41160
     26       2.00000          -0.773665          -21.05248
     27       2.00000          -0.744690          -20.26404
     28       2.00000          -0.699191          -19.02595
     29       2.00000          -0.687714          -18.71365
     30       2.00000          -0.683314          -18.59391
     31       2.00000          -0.645551          -17.56633
     32       2.00000          -0.630671          -17.16144
     33       2.00000          -0.609922          -16.59682
     34       2.00000          -0.605701          -16.48196
     35       2.00000          -0.595571          -16.20632
     36       2.00000          -0.582883          -15.86104
     37       2.00000          -0.564305          -15.35553
     38       2.00000          -0.559426          -15.22275
     39       2.00000          -0.557701          -15.17582
     40       2.00000          -0.554871          -15.09880
     41       2.00000          -0.544041          -14.80410
     42       2.00000          -0.541609          -14.73792
     43       2.00000          -0.536778          -14.60647
     44       2.00000          -0.529184          -14.39983
     45       2.00000          -0.515265          -14.02107
     46       2.00000          -0.513759          -13.98010
     47       2.00000          -0.511741          -13.92518
     48       2.00000          -0.501588          -13.64891
     49       2.00000          -0.500672          -13.62397
     50       2.00000          -0.490886          -13.35769
     51       2.00000          -0.481712          -13.10804
     52       2.00000          -0.471509          -12.83041
     53       2.00000          -0.417931          -11.37247
     54       2.00000          -0.412748          -11.23144
     55       2.00000          -0.403719          -10.98576
     56       2.00000          -0.386239          -10.51009
     57       2.00000          -0.380771          -10.36131
     58       2.00000          -0.379222          -10.31916
     59       0.00000          -0.173670           -4.72581
     60       0.00000          -0.157490           -4.28551
     61       0.00000          -0.150184           -4.08672
     62       0.00000          -0.078111           -2.12552
     63       0.00000          -0.062058           -1.68869
     64       0.00000          -0.051178           -1.39261
     65       0.00000          -0.048842           -1.32907
     66       0.00000          -0.044473           -1.21018
     67       0.00000          -0.043699           -1.18911
     68       0.00000          -0.033933           -0.92336
     69       0.00000          -0.027529           -0.74911
     70       0.00000          -0.024005           -0.65322
     71       0.00000          -0.019564           -0.53238
     72       0.00000          -0.013426           -0.36535
     73       0.00000          -0.009249           -0.25167
     74       0.00000          -0.006063           -0.16498
     75       0.00000          -0.004420           -0.12028
     76       0.00000           0.001336            0.03635
     77       0.00000           0.002677            0.07284
     78       0.00000           0.004517            0.12292
     79       0.00000           0.010471            0.28492
     80       0.00000           0.016105            0.43824
     81       0.00000           0.019668            0.53520
     82       0.00000           0.027504            0.74843
     83       0.00000           0.028218            0.76786
     84       0.00000           0.035071            0.95433
     85       0.00000           0.040781            1.10970
     86       0.00000           0.045422            1.23600
     87       0.00000           0.051157            1.39205
     88       0.00000           0.057714            1.57048
     89       0.00000           0.062924            1.71224
     90       0.00000           0.069773            1.89862
     91       0.00000           0.073685            2.00508
     92       0.00000           0.077036            2.09626
     93       0.00000           0.079965            2.17596
     94       0.00000           0.087291            2.37531
     95       0.00000           0.092691            2.52226
     96       0.00000           0.098772            2.68772
     97       0.00000           0.105530            2.87162
     98       0.00000           0.108957            2.96487
     99       0.00000           0.118968            3.23729
    100       0.00000           0.122047            3.32107
    101       0.00000           0.127597            3.47209
    102       0.00000           0.130153            3.54165
    103       0.00000           0.141349            3.84630
    104       0.00000           0.143308            3.89961
    105       0.00000           0.149435            4.06632
    106       0.00000           0.150786            4.10310
    107       0.00000           0.155129            4.22126
    108       0.00000           0.157443            4.28425
    109       0.00000           0.163030            4.43628
    110       0.00000           0.168079            4.57365
    111       0.00000           0.175451            4.77426
    112       0.00000           0.179192            4.87606
    113       0.00000           0.187438            5.10045
    114       0.00000           0.189654            5.16075
    115       0.00000           0.192369            5.23462
    116       0.00000           0.198844            5.41081
    117       0.00000           0.204935            5.57656
    118       0.00000           0.211140            5.74542
    119       0.00000           0.211502            5.75525
    120       0.00000           0.214100            5.82595
    121       0.00000           0.220016            5.98695
    122       0.00000           0.223462            6.08070
    123       0.00000           0.227227            6.18316
    124       0.00000           0.235107            6.39759
    125       0.00000           0.239660            6.52148
    126       0.00000           0.243981            6.63907
    127       0.00000           0.249489            6.78895
    128       0.00000           0.259411            7.05894
    129       0.00000           0.262680            7.14790

  Highest occupied state (VBM) at    -10.31916203 eV
  | Occupation number:      2.00000000

  Lowest unoccupied state (CBM) at    -4.72580730 eV
  | Occupation number:      0.00000000

  Overall HOMO-LUMO gap:      5.59335473 eV.
  Calculating total energy contributions from superposition of free atom densities.

  Total energy components:
  | Sum of eigenvalues            :        -437.91428906 Ha      -11916.25409754 eV
  | XC energy correction          :         -98.81714060 Ha       -2688.95120810 eV
  | XC potential correction       :         127.01645492 Ha        3456.29359273 eV
  | Free-atom electrostatic energy:        -333.58734352 Ha       -9077.37346897 eV
  | Hartree energy correction     :           0.00000000 Ha           0.00000000 eV
  | vdW energy correction         :           0.00000000 Ha           0.00000000 eV
  | Entropy correction            :          -0.00000000 Ha          -0.00000000 eV
  | ---------------------------
  | Total energy                  :        -743.30231826 Ha      -20226.28518188 eV
  | Total energy, T -> 0          :        -743.30231826 Ha      -20226.28518188 eV  <-- do not rely on this value for anything but (periodic) metals
  | Electronic free energy        :        -743.30231826 Ha      -20226.28518188 eV

  Derived energy quantities:
  | Kinetic energy                :         735.14826961 Ha       20004.40222883 eV
  | Electrostatic energy          :       -1379.63344727 Ha      -37541.73620261 eV
  | Energy correction for multipole
  | error in Hartree potential    :           0.00000000 Ha           0.00000000 eV
  | Sum of eigenvalues per atom                           :        -372.38294055 eV
  | Total energy (T->0) per atom                          :        -632.07141193 eV  <-- do not rely on this value for anything but (periodic) metals
  | Electronic free energy per atom                       :        -632.07141193 eV
  Initialize hartree_potential_storage
  Max. number of atoms included in rho_multipole:           32

  End scf initialization - timings             :  max(cpu_time)    wall_clock(cpu1)
  | Time for scf. initialization               :        1.908 s           1.908 s
  | Boundary condition initialization          :        0.004 s           0.000 s
  | Integration                                :        1.152 s           1.149 s
  | Solution of K.-S. eqns.                    :        0.076 s           0.075 s
  | Grid partitioning                          :        0.320 s           0.316 s
  | Preloading free-atom quantities on grid    :        0.028 s           0.027 s
  | Free-atom superposition energy             :        0.040 s           0.040 s
  | Total energy evaluation                    :        0.004 s           0.001 s
------------------------------------------------------------

------------------------------------------------------------
          Begin self-consistency iteration #    1

  Date     :  20170309, Time     :  160614.106
------------------------------------------------------------
  Evaluating new KS density.
  Integration grid: deviation in total charge (<rho> - N_e) =   2.842171E-14
  Pulay mixing of updated and previous charge densities.

  Evaluating partitioned Hartree potential by multipole expansion.
  | Analytical far-field extrapolation by fixed multipoles:
  | Hartree multipole sum: apparent total charge =   0.430358E-05
  Summing up the Hartree potential.
  Time summed over all CPUs for potential: real work        9.573 s, elapsed       10.079 s
  | RMS charge density error from multipole expansion :   0.106382E-01

  Integrating Hamiltonian matrix: batch-based integration.
  Time summed over all CPUs for integration: real work       21.603 s, elapsed       22.378 s

  Updating Kohn-Sham eigenvalues, eigenvectors, occupation numbers, and Fermi level.
  Solving generalized eigenproblem
  Solving real symmetric generalised eigenvalue problem by standard ScaLAPACK.
  Using Cholesky factor for transformation
  Using 2-stage real ELPA solver
  K-Point:    1, Trafo times: 1-stage=     0.021 s, 2-stage=     0.019 s ==> Using 2-stage solver
  Determining occupation numbers for Kohn-Sham eigenstates.
  | Chemical potential (Fermi level) in eV                 : -.16913130E+01
  | Error in electron count due to remaining E_F inaccuracy: 0.13660895E-09
  | Maximum occupation number of highest empty state:  0.00E+00

  Writing Kohn-Sham eigenvalues.

  State    Occupation    Eigenvalue [Ha]    Eigenvalue [eV]
      1       2.00000         -18.627602         -506.88285
      2       2.00000         -18.615848         -506.56301
      3       2.00000         -18.603878         -506.23728
      4       2.00000         -14.005383         -381.10587
      5       2.00000         -13.993763         -380.78967
      6       2.00000         -13.961437         -379.91004
      7       2.00000         -10.058772         -273.71312
      8       2.00000         -10.052875         -273.55265
      9       2.00000         -10.032714         -273.00403
     10       2.00000          -9.963316         -271.11561
     11       2.00000          -9.951336         -270.78964
     12       2.00000          -9.861053         -268.33291
     13       2.00000          -9.855419         -268.17961
     14       2.00000          -9.850648         -268.04978
     15       2.00000          -9.826695         -267.39797
     16       2.00000          -0.970991          -26.42200
     17       2.00000          -0.959677          -26.11414
     18       2.00000          -0.940828          -25.60123
     19       2.00000          -0.877804          -23.88625
     20       2.00000          -0.864456          -23.52305
     21       2.00000          -0.838437          -22.81503
     22       2.00000          -0.749026          -20.38203
     23       2.00000          -0.719795          -19.58663
     24       2.00000          -0.694007          -18.88488
     25       2.00000          -0.657536          -17.89248
     26       2.00000          -0.631811          -17.19246
     27       2.00000          -0.597351          -16.25474
     28       2.00000          -0.574222          -15.62536
     29       2.00000          -0.562293          -15.30078
     30       2.00000          -0.534396          -14.54166
     31       2.00000          -0.510190          -13.88297
     32       2.00000          -0.497193          -13.52932
     33       2.00000          -0.472683          -12.86235
     34       2.00000          -0.459638          -12.50738
     35       2.00000          -0.446332          -12.14531
     36       2.00000          -0.431265          -11.73533
     37       2.00000          -0.425123          -11.56818
     38       2.00000          -0.413045          -11.23952
     39       2.00000          -0.406038          -11.04887
     40       2.00000          -0.401961          -10.93792
     41       2.00000          -0.387558          -10.54598
     42       2.00000          -0.380733          -10.36026
     43       2.00000          -0.378330          -10.29487
     44       2.00000          -0.372610          -10.13924
     45       2.00000          -0.368959          -10.03988
     46       2.00000          -0.363459           -9.89022
     47       2.00000          -0.357870           -9.73813
     48       2.00000          -0.352385           -9.58889
     49       2.00000          -0.345663           -9.40596
     50       2.00000          -0.341290           -9.28698
     51       2.00000          -0.332078           -9.03630
     52       2.00000          -0.329520           -8.96669
     53       2.00000          -0.253921           -6.90954
     54       2.00000          -0.244951           -6.66547
     55       2.00000          -0.217835           -5.92759
     56       2.00000          -0.214288           -5.83106
     57       2.00000          -0.212060           -5.77044
     58       2.00000          -0.196189           -5.33856
     59       0.00000          -0.053814           -1.46435
     60       0.00000          -0.048618           -1.32296
     61       0.00000          -0.044143           -1.20119
     62       0.00000          -0.023146           -0.62985
     63       0.00000          -0.013848           -0.37682
     64       0.00000          -0.011058           -0.30089
     65       0.00000          -0.001633           -0.04443
     66       0.00000           0.005078            0.13819
     67       0.00000           0.012072            0.32850
     68       0.00000           0.017759            0.48325
     69       0.00000           0.023415            0.63715
     70       0.00000           0.029253            0.79601
     71       0.00000           0.036551            0.99461
     72       0.00000           0.041286            1.12344
     73       0.00000           0.045687            1.24321
     74       0.00000           0.049297            1.34144
     75       0.00000           0.053344            1.45156
     76       0.00000           0.060170            1.63731
     77       0.00000           0.064148            1.74556
     78       0.00000           0.073899            2.01090
     79       0.00000           0.083193            2.26379
     80       0.00000           0.089949            2.44765
     81       0.00000           0.091296            2.48429
     82       0.00000           0.096824            2.63471
     83       0.00000           0.099143            2.69781
     84       0.00000           0.108909            2.96356
     85       0.00000           0.112848            3.07076
     86       0.00000           0.113497            3.08842
     87       0.00000           0.119004            3.23826
     88       0.00000           0.126017            3.42909
     89       0.00000           0.134872            3.67007
     90       0.00000           0.139440            3.79436
     91       0.00000           0.144974            3.94494
     92       0.00000           0.145245            3.95232
     93       0.00000           0.151063            4.11063
     94       0.00000           0.158140            4.30322
     95       0.00000           0.163170            4.44007
     96       0.00000           0.166988            4.54396
     97       0.00000           0.179080            4.87302
     98       0.00000           0.181570            4.94078
     99       0.00000           0.184608            5.02343
    100       0.00000           0.188948            5.14152
    101       0.00000           0.198133            5.39147
    102       0.00000           0.199712            5.43443
    103       0.00000           0.202305            5.50501
    104       0.00000           0.211062            5.74329
    105       0.00000           0.214755            5.84377
    106       0.00000           0.217280            5.91249
    107       0.00000           0.219245            5.96597
    108       0.00000           0.222460            6.05345
    109       0.00000           0.228240            6.21072
    110       0.00000           0.235399            6.40553
    111       0.00000           0.239467            6.51622
    112       0.00000           0.247970            6.74761
    113       0.00000           0.249347            6.78507
    114       0.00000           0.253575            6.90011
    115       0.00000           0.258189            7.02569
    116       0.00000           0.259155            7.05197
    117       0.00000           0.273520            7.44285
    118       0.00000           0.278684            7.58338
    119       0.00000           0.281909            7.67114
    120       0.00000           0.287823            7.83206
    121       0.00000           0.292772            7.96673
    122       0.00000           0.294476            8.01309
    123       0.00000           0.296955            8.08057
    124       0.00000           0.305200            8.30492
    125       0.00000           0.310310            8.44395
    126       0.00000           0.313111            8.52019
    127       0.00000           0.325220            8.84969
    128       0.00000           0.331375            9.01718
    129       0.00000           0.340158            9.25616

  Highest occupied state (VBM) at     -5.33856494 eV
  | Occupation number:      2.00000000

  Lowest unoccupied state (CBM) at    -1.46434502 eV
  | Occupation number:      0.00000000

  Overall HOMO-LUMO gap:      3.87421991 eV.

  Total energy components:
  | Sum of eigenvalues            :        -417.09306996 Ha      -11349.67989904 eV
  | XC energy correction          :        -100.75740887 Ha       -2741.74859392 eV
  | XC potential correction       :         129.53341695 Ha        3524.78361422 eV
  | Free-atom electrostatic energy:        -333.58734352 Ha       -9077.37346897 eV
  | Hartree energy correction     :         -20.82523846 Ha        -566.68357114 eV
  | vdW energy correction         :           0.00000000 Ha           0.00000000 eV
  | Entropy correction            :          -0.00000000 Ha          -0.00000000 eV
  | ---------------------------
  | Total energy                  :        -742.72964387 Ha      -20210.70191886 eV
  | Total energy, T -> 0          :        -742.72964387 Ha      -20210.70191886 eV  <-- do not rely on this value for anything but (periodic) metals
  | Electronic free energy        :        -742.72964387 Ha      -20210.70191886 eV

  Derived energy quantities:
  | Kinetic energy                :         744.05651358 Ha       20246.80788075 eV
  | Electrostatic energy          :       -1386.02874858 Ha      -37715.76120569 eV
  | Energy correction for multipole
  | error in Hartree potential    :          -0.04011010 Ha          -1.09145126 eV
  | Sum of eigenvalues per atom                           :        -354.67749685 eV
  | Total energy (T->0) per atom                          :        -631.58443496 eV  <-- do not rely on this value for anything but (periodic) metals
  | Electronic free energy per atom                       :        -631.58443496 eV

  Self-consistency convergence accuracy:
  | Change of charge density      :  0.9013E+00
  | Change of sum of eigenvalues  :  0.5666E+03 eV
  | Change of total energy        :  0.1558E+02 eV

  End self-consistency iteration #     1       :  max(cpu_time)    wall_clock(cpu1)
  | Time for this iteration                    :        1.560 s           1.557 s
  | Charge density update                      :        0.488 s           0.487 s
[...]
   ----------------------------------------------------------------
   Total forces(  20)            :  0.258469E-02 -0.216609E-02 -0.238389E-02
  atom #   21
   Hellmann-Feynman              :  0.224211E-01  0.185148E-01  0.477680E-01
   Ionic forces                  :  0.000000E+00  0.000000E+00  0.000000E+00
   Multipole                     : -0.735439E-02 -0.400689E-01  0.577528E-02
   Pulay + GGA                   : -0.111722E-01  0.144689E-01 -0.618317E-01
   Van der Waals                 : -0.326711E-02  0.956004E-02  0.536823E-02
   ----------------------------------------------------------------
   Total forces(  21)            :  0.627352E-03  0.247495E-02 -0.292024E-02
  atom #   22
   Hellmann-Feynman              : -0.803458E-02  0.269453E-01 -0.438198E-01
   Ionic forces                  :  0.000000E+00  0.000000E+00  0.000000E+00
   Multipole                     :  0.157735E-01 -0.178221E-01 -0.945212E-02
   Pulay + GGA                   : -0.987576E-02 -0.106173E-01  0.550286E-01
   Van der Waals                 :  0.109160E-02  0.200688E-02 -0.376894E-03
   ----------------------------------------------------------------
   Total forces(  22)            : -0.104523E-02  0.512672E-03  0.137977E-02
  atom #   23
   Hellmann-Feynman              : -0.305413E+00 -0.706204E+00 -0.616247E+00
   Ionic forces                  :  0.000000E+00  0.000000E+00  0.000000E+00
   Multipole                     :  0.598213E-01  0.154361E+00  0.233955E+00
   Pulay + GGA                   :  0.245921E+00  0.541721E+00  0.373425E+00
   Van der Waals                 : -0.248082E-02  0.932789E-02  0.826698E-02
   ----------------------------------------------------------------
   Total forces(  23)            : -0.215151E-02 -0.794104E-03 -0.599515E-03
  atom #   24
   Hellmann-Feynman              :  0.441186E-01  0.232510E-02  0.593160E-01
   Ionic forces                  :  0.000000E+00  0.000000E+00  0.000000E+00
   Multipole                     : -0.214808E-01 -0.114027E-01  0.112515E-01
   Pulay + GGA                   : -0.151071E-01  0.188030E-01 -0.652079E-01
   Van der Waals                 : -0.649019E-02 -0.102006E-01 -0.597793E-02
   ----------------------------------------------------------------
   Total forces(  24)            :  0.104042E-02 -0.475178E-03 -0.618267E-03
  atom #   25
   Hellmann-Feynman              :  0.402601E-01  0.305805E-01  0.299102E-01
   Ionic forces                  :  0.000000E+00  0.000000E+00  0.000000E+00
   Multipole                     :  0.169018E-01 -0.244534E-01 -0.248321E-01
   Pulay + GGA                   : -0.586295E-01 -0.763469E-02 -0.171443E-02
   Van der Waals                 :  0.136412E-02  0.601944E-03 -0.302196E-02
   ----------------------------------------------------------------
   Total forces(  25)            : -0.103489E-03 -0.905595E-03  0.341641E-03
  atom #   26
   Hellmann-Feynman              :  0.199432E-01  0.668682E-01 -0.426917E-02
   Ionic forces                  :  0.000000E+00  0.000000E+00  0.000000E+00
   Multipole                     : -0.225721E-01 -0.419146E-02 -0.256090E-01
   Pulay + GGA                   :  0.955768E-02 -0.585774E-01  0.332784E-01
   Van der Waals                 : -0.505565E-02 -0.459064E-02 -0.254094E-02
   ----------------------------------------------------------------
   Total forces(  26)            :  0.187307E-02 -0.491303E-03  0.859325E-03
  atom #   27
   Hellmann-Feynman              : -0.744519E+00 -0.206687E+01  0.139060E+01
   Ionic forces                  :  0.000000E+00  0.000000E+00  0.000000E+00
   Multipole                     : -0.274807E-01 -0.974323E-01 -0.150158E+00
   Pulay + GGA                   :  0.759352E+00  0.216830E+01 -0.123485E+01
   Van der Waals                 :  0.136344E-01 -0.162346E-02 -0.761447E-02
   ----------------------------------------------------------------
   Total forces(  27)            :  0.986166E-03  0.236778E-02 -0.202504E-02
  atom #   28
   Hellmann-Feynman              :  0.222667E+01  0.680374E+00 -0.232544E+00
   Ionic forces                  :  0.000000E+00  0.000000E+00  0.000000E+00
   Multipole                     : -0.155694E+00 -0.597299E-01  0.439684E-01
   Pulay + GGA                   : -0.205136E+01 -0.630498E+00  0.193404E+00
   Van der Waals                 : -0.211593E-01  0.817075E-02 -0.412568E-02
   ----------------------------------------------------------------
   Total forces(  28)            : -0.153755E-02 -0.168278E-02  0.702889E-03
  atom #   29
   Hellmann-Feynman              :  0.958465E-03 -0.129307E-01 -0.327825E-01
   Ionic forces                  :  0.000000E+00  0.000000E+00  0.000000E+00
   Multipole                     :  0.421914E-01 -0.218360E-02  0.497401E-02
   Pulay + GGA                   : -0.434853E-01  0.122528E-01  0.313875E-01
   Van der Waals                 : -0.828409E-03  0.154098E-02 -0.123435E-02
   ----------------------------------------------------------------
   Total forces(  29)            : -0.116391E-02 -0.132051E-02  0.234467E-02
  atom #   30
   Hellmann-Feynman              : -0.502089E-01 -0.217287E-01 -0.197516E-01
   Ionic forces                  :  0.000000E+00  0.000000E+00  0.000000E+00
   Multipole                     :  0.179448E-01  0.150279E-01 -0.339120E-01
   Pulay + GGA                   :  0.330701E-01  0.928265E-02  0.578415E-01
   Van der Waals                 : -0.612070E-03 -0.209332E-02 -0.335898E-02
   ----------------------------------------------------------------
   Total forces(  30)            :  0.193931E-03  0.488505E-03  0.818924E-03
  atom #   31
   Hellmann-Feynman              : -0.588483E-01 -0.342893E-01 -0.541370E-02
   Ionic forces                  :  0.000000E+00  0.000000E+00  0.000000E+00
   Multipole                     :  0.209299E-01 -0.198017E-01  0.188333E-01
   Pulay + GGA                   :  0.371739E-01  0.530897E-01 -0.100669E-01
   Van der Waals                 :  0.689966E-03  0.191975E-02 -0.404415E-02
   ----------------------------------------------------------------
   Total forces(  31)            : -0.545657E-04  0.918444E-03 -0.691427E-03
  atom #   32
   Hellmann-Feynman              : -0.720753E-01 -0.183219E-01 -0.198841E-02
   Ionic forces                  :  0.000000E+00  0.000000E+00  0.000000E+00
   Multipole                     :  0.177394E-01  0.413195E-01  0.184911E-01
   Pulay + GGA                   :  0.550682E-01 -0.269587E-01 -0.186603E-01
   Van der Waals                 : -0.786506E-03  0.302421E-02  0.154827E-02
   ----------------------------------------------------------------
   Total forces(  32)            : -0.542179E-04 -0.936889E-03 -0.609269E-03

  Timings for VdW correction (Tkatchenko-Scheffler 2009 or later):
  | CPU time:        0.128 s, Wall clock time:        0.127 s.
  Removing unitary transformations (pure translations, rotations) from forces on atoms.
  Atomic forces before filtering:
  | Net force on center of mass :   0.827464E-05  0.386462E-03 -0.107066E-05 eV/A
  | Net torque on center of mass:  -0.695977E-04 -0.213293E-02 -0.667392E-04 eV
  Atomic forces after filtering:
  | Net force on center of mass :   0.304893E-18  0.174225E-18 -0.113246E-17 eV/A
  | Net torque on center of mass:   0.516296E-17 -0.184392E-17 -0.575071E-17 eV

  Energy and forces in a compact form:
  | Total energy uncorrected      :         -0.202090051745594E+05 eV
  | Total energy corrected        :         -0.202090051745594E+05 eV  <-- do not rely on this value for anything but (periodic) metals
  | Electronic free energy        :         -0.202090051745594E+05 eV
  Total atomic forces (unitary forces cleaned) [eV/Ang]:
  |   1          0.993184239114510E-04         -0.118803793818429E-02         -0.173892618579333E-04
  |   2          0.164553398212090E-02          0.224244668450445E-02         -0.472053289427386E-02
  |   3          0.204371761401068E-02         -0.758963444798971E-04          0.188382568738327E-02
  |   4         -0.809881693195408E-03          0.514529433495210E-03         -0.941901143725001E-05
  |   5         -0.282374280693303E-03          0.788362241059288E-04         -0.126120315423472E-03
  |   6          0.253276501494440E-03          0.105831717755135E-02         -0.216524069614839E-04
  |   7         -0.212735093873399E-02         -0.597836873201120E-03          0.154368377846320E-02
  |   8          0.741447668423853E-03         -0.467225374588916E-04         -0.751300599669776E-03
  |   9         -0.174354024961198E-02         -0.150942785683533E-02         -0.275575056726715E-02
  |  10         -0.617281142402107E-03          0.192838340556581E-03          0.449306281652216E-02
  |  11         -0.117195926228960E-02         -0.892589210985892E-03         -0.115158841270793E-02
  |  12          0.190978985903054E-02          0.113850705801260E-02          0.271824366209782E-03
  |  13         -0.797560281301438E-03          0.181183864720149E-02          0.108087094494704E-02
  |  14         -0.542168764334720E-04         -0.419790907831151E-03         -0.114825915154114E-02
  |  15          0.202407989629261E-03          0.119942367404974E-02          0.648020385947529E-03
  |  16          0.300583094518851E-03         -0.972028117676008E-03          0.590397619537944E-03
  |  17          0.999413900002497E-03         -0.315288274573521E-02          0.164448228949929E-02
  |  18          0.112087236183179E-04          0.113290115974604E-02         -0.886486607375274E-03
  |  19         -0.187091744741502E-02          0.166236668409464E-02          0.296899496900012E-02
  |  20          0.257823649931111E-02         -0.218139191575099E-02         -0.240357427369391E-02
  |  21          0.617395813169760E-03          0.246304285347395E-02         -0.291106377917159E-02
  |  22         -0.102903717756124E-02          0.503358989397621E-03          0.138766976934817E-02
  |  23         -0.215736607500306E-02         -0.805320198653273E-03         -0.588327230457830E-03
  |  24          0.102305803915856E-02         -0.488088158666874E-03         -0.610740064241490E-03
  |  25         -0.108998583881292E-03         -0.915185741352284E-03          0.365026916654177E-03
  |  26          0.187046405363381E-02         -0.502653031287931E-03          0.866841477512136E-03
  |  27          0.100219922437868E-02          0.235491020295382E-02         -0.204429233655804E-02
  |  28         -0.152118018609977E-02         -0.169764518225178E-02          0.667985996904841E-03
  |  29         -0.114071611751495E-02         -0.133170430421884E-02          0.233240163355805E-02
  |  30          0.221636857229129E-03          0.474237240268929E-03          0.779425976071681E-03
  |  31         -0.418533455454496E-04          0.902982059988663E-03         -0.727914067474050E-03
  |  32         -0.454545859597710E-04         -0.953335364831241E-03         -0.650103647447205E-03

  ------------------------------------ 
  Start decomposition of the XC Energy 
  ------------------------------------ 
  Hartree-Fock part   :          0.000000000 Ha              0.000000000 eV
  ------------------------------------ 
  X Energy            :        -96.989883495 Ha          -2639.229012382 eV
  C Energy GGA        :         -3.868864493 Ha           -105.277159285 eV
  Total XC Energy     :       -100.858747987 Ha          -2744.506171668 eV
  LDA X and C from self-consistent density 
  X Energy LDA        :        -88.006601600 Ha          -2394.781474673 eV
  C Energy LDA        :         -7.532008871 Ha           -204.956389456 eV
  ------------------------------------ 
  End decomposition of the XC Energy 
  ------------------------------------ 
   
  ESP charge fitting starts.
  | Calculation :  00000001  of  00000001
  | Full density
  Computing multipole expansion for total density.
  Generating points for esp charges.
  Partitioning the integration grid into batches with parallel hashing+maxmin method.
  | Number of batches:     3856
  | Maximal batch size:     194
  | Minimal batch size:      50
  | Average batch size:     126.402
  | Standard deviation of batch sizes:      17.939

  Integration load balanced across    32 MPI tasks.
  Work distribution over tasks is as follows:
  Initializing partition tables, free-atom densities, potentials, etc. across the integration grid (initialize_grid_storage).
  | Original list of interatomic distances with          32 x         32 entries is created.
  | Net number of integration points:   487408
  | of which are non-zero points    :   487408
  Summing up potential from multipole expanded  density.
  Summing up the Hartree potential.
  Time summed over all CPUs for potential: real work        6.330 s, elapsed        6.551 s
  Fitting esp charges to potential.
  |
  | ESP charges fitted to the electrostatic potential :
  |
  | Atom         1: C, ESP charge:      0.80448668
  |
  | Atom         2: C, ESP charge:     -0.54958605
  |
  | Atom         3: O, ESP charge:      0.47702509
  |
  | Atom         4: H, ESP charge:     -0.23807004
  |
  | Atom         5: H, ESP charge:     -0.19354543
  |
  | Atom         6: H, ESP charge:     -0.25016841
  |
  | Atom         7: N, ESP charge:      0.21019974
  |
  | Atom         8: C, ESP charge:      0.07768435
  |
  | Atom         9: C, ESP charge:     -0.66426017
  |
  | Atom        10: O, ESP charge:      0.59061147
  |
  | Atom        11: H, ESP charge:     -0.22042633
  |
  | Atom        12: H, ESP charge:     -0.08726058
  |
  | Atom        13: C, ESP charge:      0.25781532
  |
  | Atom        14: H, ESP charge:     -0.05080086
  |
  | Atom        15: H, ESP charge:     -0.09376059
  |
  | Atom        16: H, ESP charge:     -0.10535198
  |
  | Atom        17: N, ESP charge:      0.34598887
  |
  | Atom        18: C, ESP charge:     -0.19037218
  |
  | Atom        19: C, ESP charge:     -0.52370633
  |
  | Atom        20: O, ESP charge:      0.51633104
  |
  | Atom        21: H, ESP charge:     -0.16751476
  |
  | Atom        22: H, ESP charge:     -0.00145354
  |
  | Atom        23: C, ESP charge:      0.32370565
  |
  | Atom        24: H, ESP charge:     -0.08689647
  |
  | Atom        25: H, ESP charge:     -0.07947198
  |
  | Atom        26: H, ESP charge:     -0.10410067
  |
  | Atom        27: N, ESP charge:      0.43774121
  |
  | Atom        28: C, ESP charge:      0.41080348
  |
  | Atom        29: H, ESP charge:     -0.34396564
  |
  | Atom        30: H, ESP charge:     -0.16739030
  |
  | Atom        31: H, ESP charge:     -0.14712209
  |
  | Atom        32: H, ESP charge:     -0.18716849

  RRMS:       0.00455773

  Done.

------------------------------------------------------------------------------
  Final output of selected total energy values:

  The following output summarizes some interesting total energy values
  at the end of a run (AFTER all relaxation, molecular dynamics, etc.).

  | Total energy of the DFT / Hartree-Fock s.c.f. calculation      :         -20209.005174559 eV
  | Final zero-broadening corrected energy (caution - metals only) :         -20209.005174559 eV
  | For reference only, the value of 1 Hartree used in FHI-aims is :             27.211384500 eV

  Before relying on these values, please be sure to understand exactly which
  total energy value is referred to by a given number. Different objects may
  all carry the same name 'total energy'. Definitions:

  Total energy of the DFT / Hartree-Fock s.c.f. calculation:
  | Note that this energy does not include ANY quantities calculated after the
  | s.c.f. cycle, in particular not ANY RPA, MP2, etc. many-body perturbation terms.

  Final zero-broadening corrected energy:
  | For metallic systems only, a broadening of the occupation numbers at the Fermi
  | level can be extrapolated back to zero broadening by an electron-gas inspired
  | formula. For all systems that are not real metals, this value can be
  | meaningless and should be avoided.

------------------------------------------------------------------------------
  Methods described in the following list of references were used in this FHI-aims run.
  If you publish the results, please make sure to cite these reference if they apply.
  FHI-aims is an academic code, and for our developers (often, Ph.D. students
  and postdocs), scientific credit in the community is essential.
  Thank you for helping us!

  For any use of FHI-aims, please cite:

    Volker Blum, Ralf Gehrke, Felix Hanke, Paula Havu, Ville Havu,
    Xinguo Ren, Karsten Reuter, and Matthias Scheffler
    'Ab initio molecular simulations with numeric atom-centered orbitals'
    Computer Physics Communications 180, 2175-2196 (2009)
    http://dx.doi.org/10.1016/j.cpc.2009.06.022


  The scalable eigensolver library ELPA was used in your run.
  ELPA is essential especially for large systems on hundreds or thousands of CPUs.
  For ELPA, please cite:

    Andreas Marek, Volker Blum, Rainer Johanni, Ville Havu, Bruno Lang,
    Thomas Auckenthaler, Alexander Heinecke, Hans-Joachim Bungartz, and Hermann Lederer,
    'The ELPA Library - Scalable Parallel Eigenvalue Solutions
    for Electronic Structure Theory and Computational Science'
    The Journal of Physics: Condensed Matter 26, 213201 (2014).
    http://dx.doi.org/10.1088/0953-8984/26/21/213201


  For ELPA's efficient two-stage tridiagonalization used in your run, please cite:

    T. Auckenthaler, V. Blum, H.-J. Bungartz, T. Huckle, R. Johanni, L. Kraemer,
    B. Lang, H. Lederer, and P. R. Willems,
    'Parallel solution of partial symmetric eigenvalue problems'
    'from  electronic structure calculations'
    Parallel Computing 37, 783-794 (2011).
    http://dx.doi.org/10.1016/j.parco.2011.05.002


  For the real-space grid partitioning and parallelization used in this calculation, please cite:

    Ville Havu, Volker Blum, Paula Havu, and Matthias Scheffler,
    'Efficient O(N) integration for all-electron electronic structure calculation'
    'using numerically tabulated basis functions'
    Journal of Computational Physics 228, 8367-8379 (2009).
    http://dx.doi.org/10.1016/j.jcp.2009.08.008

  Of course, there are many other important community references, e.g., those cited in the
  above references. Our list is limited to references that describe implementations in the
  FHI-aims code. The reason is purely practical (length of this list) - please credit others as well.

------------------------------------------------------------
          Leaving FHI-aims.
          Date     :  20170309, Time     :  160641.962

          Computational steps:
          | Number of self-consistency cycles          :           14

          Detailed time accounting                     :  max(cpu_time)    wall_clock(cpu1)
          | Total time                                 :       30.486 s          30.683 s
          | Preparation time                           :        0.232 s           0.231 s
          | Grid partitioning                          :        0.320 s           0.316 s
          | Preloading free-atom quantities on grid    :        0.028 s           0.027 s
          | Free-atom superposition energy             :        0.040 s           0.040 s
          | Total time for integrations                :       11.097 s          11.079 s
          | Total time for solution of K.-S. equations :        0.528 s           0.498 s
          | Total time for density & force components  :        9.613 s           9.596 s
          | Total time for mixing                      :        0.124 s           0.102 s
          | Total time for Hartree multipole update    :        0.064 s           0.056 s
          | Total time for Hartree multipole sum       :        6.472 s           6.459 s
          | Total time for total energy evaluation     :        0.024 s           0.024 s
          | Total time for vdW correction              :        0.128 s           0.127 s

          Have a nice day.
------------------------------------------------------------
