  MPI-parallelism will be employed.
------------------------------------------------------------
          Invoking FHI-aims ...
          Version 150427
          Git rev.: 9dd23e0 BL: Update Version stamp
          Compiled on 2015/11/03 at 22:05:20 on host eos03.

          When using FHI-aims, please cite the following reference:

          Volker Blum, Ralf Gehrke, Felix Hanke, Paula Havu,
          Ville Havu, Xinguo Ren, Karsten Reuter, and Matthias Scheffler,
          'Ab Initio Molecular Simulations with Numeric Atom-Centered Orbitals: FHI-aims',
          Computer Physics Communications 180, 2175-2196 (2009)

          For any questions about FHI-aims, please visit the aimsclub website
          with its forums and wiki. Contributions to both the forums and the
          wiki are warmly encouraged - they are for you, and everyone is welcome there.

------------------------------------------------------------

  Date     :  20170309, Time     :  184055.577
  Time zero on CPU 1             :   0.380023000000000E+00  s.
  Internal wall clock time zero  :           258316855.577  s.

  Using       32 parallel tasks.
  Task        0 on host eos366 reporting.
  Task        1 on host eos366 reporting.
  Task        2 on host eos366 reporting.
  Task        3 on host eos366 reporting.
  Task        4 on host eos366 reporting.
  Task        5 on host eos366 reporting.
  Task        6 on host eos366 reporting.
  Task        7 on host eos366 reporting.
  Task        8 on host eos366 reporting.
  Task        9 on host eos366 reporting.
  Task       10 on host eos366 reporting.
  Task       11 on host eos366 reporting.
  Task       12 on host eos366 reporting.
  Task       13 on host eos366 reporting.
  Task       14 on host eos366 reporting.
  Task       15 on host eos366 reporting.
  Task       16 on host eos366 reporting.
  Task       17 on host eos366 reporting.
  Task       18 on host eos366 reporting.
  Task       19 on host eos366 reporting.
  Task       20 on host eos366 reporting.
  Task       21 on host eos366 reporting.
  Task       22 on host eos366 reporting.
  Task       23 on host eos366 reporting.
  Task       24 on host eos366 reporting.
  Task       25 on host eos366 reporting.
  Task       26 on host eos366 reporting.
  Task       27 on host eos366 reporting.
  Task       28 on host eos366 reporting.
  Task       29 on host eos366 reporting.
  Task       30 on host eos366 reporting.
  Task       31 on host eos366 reporting.

  Performing system and environment tests:
  | Environment variable OMP_NUM_THREADS correctly set to 1.
  | Stacksize not measured: no C compiler
  | Checking for scalapack...
  | Testing pdtran()...
  | All pdtran() tests passed.

  Obtaining array dimensions for all initial allocations:
  
  -----------------------------------------------------------------------
  Parsing control.in (first pass over file, find array dimensions only).
  The contents of control.in will be repeated verbatim below
  unless switched off by setting 'verbatim_writeout .false.' .
  in the first line of control.in .
  -----------------------------------------------------------------------
  
  #########################################################################################
  #
  # Input for System
  #
  #########################################################################################
  #
  #
  #  Physical model
  #
    xc                 pbe
    vdw_correction_hirshfeld
    spin               none
    charge             0.
  #
  #  SCF convergence
  #
    occupation_type    gaussian 0.05
    mixer              pulay
      n_max_pulay        10
      charge_mix_param   0.5
    sc_accuracy_rho    1E-4
    sc_accuracy_eev    1E-2
    sc_accuracy_etot   1E-5
    sc_accuracy_forces 1E-4
    sc_iter_limit      1000
  #
  #  ESP charge
  #
    output esp
    esp equal_grid_n 80 80 80
  #
  #
  ################################################################################
  #
  #  FHI-aims code project
  # Volker Blum, Fritz Haber Institute Berlin, 2009
  #
  #  Suggested "tight" defaults for H atom (to be pasted into control.in file)
  #
  ################################################################################
    species        H
  #     global species definitions
      nucleus             1
      mass                1.00794
  #
      l_hartree           6
  #
      cut_pot             4.0  2.0  1.0
      basis_dep_cutoff    1e-4
  #
      radial_base         24 7.0
      radial_multiplier   2
      angular_grids       specified
        division   0.1930   50
        division   0.3175  110
        division   0.4293  194
        division   0.5066  302
        division   0.5626  434
  #      division   0.5922  590
  #      division   0.6227  974
  #      division   0.6868 1202
  #      outer_grid  770
        outer_grid  434
  ################################################################################
  #
  #  Definition of "minimal" basis
  #
  ################################################################################
  #     valence basis states
      valence      1  s   1.
  #     ion occupancy
      ion_occ      1  s   0.5
  ################################################################################
  #
  #  Suggested additional basis functions. For production calculations,
  #  uncomment them one after another (the most important basis functions are
  #  listed first).
  #
  #  Basis constructed for dimers: 0.5 A, 0.7 A, 1.0 A, 1.5 A, 2.5 A
  #
  ################################################################################
  #  "First tier" - improvements: -1014.90 meV to -62.69 meV
       hydro 2 s 2.1
       hydro 2 p 3.5
  #  "Second tier" - improvements: -12.89 meV to -1.83 meV
       hydro 1 s 0.85
       hydro 2 p 3.7
       hydro 2 s 1.2
       hydro 3 d 7
  #  "Third tier" - improvements: -0.25 meV to -0.12 meV
  #     hydro 4 f 11.2
  #     hydro 3 p 4.8
  #     hydro 4 d 9
  #     hydro 3 s 3.2
  ################################################################################
  #
  # For methods that use the localized form of the "resolution of identity" for
  # the two-electron Coulomb operator (RI_method LVL), particularly Hartree-Fock and
  # hybrid density functional calculations, the highest accuracy can be obtained by
  # uncommenting the line beginning with "for_aux"  below, thus adding an extra g radial
  # function to the construction of the product basis set for the expansion.
  # See Ref. New J. Phys. 17, 093020 (2015) for more information, particularly Figs. 1 and 6.
  #
  ################################################################################
  #
  # for_aux hydro 5 g 6.0
  ################################################################################
  #
  #  FHI-aims code project
  # Volker Blum, Fritz Haber Institute Berlin, 2009
  #
  #  Suggested "tight" defaults for C atom (to be pasted into control.in file)
  #
  ################################################################################
    species        C
  #     global species definitions
      nucleus             6
      mass                12.0107
  #
      l_hartree           6
  #
      cut_pot             4.0  2.0  1.0
      basis_dep_cutoff    1e-4
  #
      radial_base         34 7.0
      radial_multiplier   2
      angular_grids specified
        division   0.2187   50
        division   0.4416  110
        division   0.6335  194
        division   0.7727  302
        division   0.8772  434
  #      division   0.9334  590
  #      division   0.9924  770
  #      division   1.0230  974
  #      division   1.5020 1202
  #     outer_grid  974
        outer_grid  434
  ################################################################################
  #
  #  Definition of "minimal" basis
  #
  ################################################################################
  #     valence basis states
      valence      2  s   2.
      valence      2  p   2.
  #     ion occupancy
      ion_occ      2  s   1.
      ion_occ      2  p   1.
  ################################################################################
  #
  #  Suggested additional basis functions. For production calculations,
  #  uncomment them one after another (the most important basis functions are
  #  listed first).
  #
  #  Constructed for dimers: 1.0 A, 1.25 A, 1.5 A, 2.0 A, 3.0 A
  #
  ################################################################################
  #  "First tier" - improvements: -1214.57 meV to -155.61 meV
       hydro 2 p 1.7
       hydro 3 d 6
       hydro 2 s 4.9
  #  "Second tier" - improvements: -67.75 meV to -5.23 meV
       hydro 4 f 9.8
       hydro 3 p 5.2
       hydro 3 s 4.3
       hydro 5 g 14.4
       hydro 3 d 6.2
  #  "Third tier" - improvements: -2.43 meV to -0.60 meV
  #     hydro 2 p 5.6
  #     hydro 2 s 1.4
  #     hydro 3 d 4.9
  #     hydro 4 f 11.2
  #  "Fourth tier" - improvements: -0.39 meV to -0.18 meV
  #     hydro 2 p 2.1
  #     hydro 5 g 16.4
  #     hydro 4 d 13.2
  #     hydro 3 s 13.6
  #     hydro 4 f 17.6
  #  Further basis functions - improvements: -0.08 meV and below
  #     hydro 3 s 2
  #     hydro 3 p 6
  #     hydro 4 d 20
  ################################################################################
  #
  # For methods that use the localized form of the "resolution of identity" for
  # the two-electron Coulomb operator (RI_method LVL), particularly Hartree-Fock and
  # hybrid density functional calculations, the highest accuracy can be obtained by
  # uncommenting the line beginning with "for_aux"  below, thus adding an extra g radial
  # function to the construction of the product basis set for the expansion.
  # See Ref. New J. Phys. 17, 093020 (2015) for more information, particularly Figs. 1 and 6.
  #
  ################################################################################
  #
  # for_aux hydro 5 g 6.0
  ################################################################################
  #
  #  FHI-aims code project
  # Volker Blum, Fritz Haber Institute Berlin, 2009
  #
  #  Suggested "tight" defaults for N atom (to be pasted into control.in file)
  #
  ################################################################################
    species        N
  #     global species definitions
      nucleus             7
      mass                14.0067
  #
      l_hartree           6
  #
      cut_pot             4.0  2.0  1.0
      basis_dep_cutoff    1e-4
  #
      radial_base         35 7.0
      radial_multiplier   2
      angular_grids       specified
        division   0.1841   50
        division   0.3514  110
        division   0.5126  194
        division   0.6292  302
        division   0.6939  434
  #      division   0.7396  590
  #      division   0.7632  770
  #      division   0.8122  974
  #      division   1.1604 1202
  #      outer_grid  974
        outer_grid  434
  ################################################################################
  #
  #  Definition of "minimal" basis
  #
  ################################################################################
  #     valence basis states
      valence      2  s   2.
      valence      2  p   3.
  #     ion occupancy
      ion_occ      2  s   1.
      ion_occ      2  p   2.
  ################################################################################
  #
  #  Suggested additional basis functions. For production calculations,
  #  uncomment them one after another (the most important basis functions are
  #  listed first).
  #
  #  Constructed for dimers: 1.0 A, 1.1 A, 1.5 A, 2.0 A, 3.0 A
  #
  ################################################################################
  #  "First tier" - improvements: -1193.42 meV to -220.60 meV
       hydro 2 p 1.8
       hydro 3 d 6.8
       hydro 3 s 5.8
  #  "Second tier" - improvements: -80.21 meV to -6.86 meV
       hydro 4 f 10.8
       hydro 3 p 5.8
       hydro 1 s 0.8
       hydro 5 g 16
       hydro 3 d 4.9
  #  "Third tier" - improvements: -4.29 meV to -0.53 meV
  #     hydro 3 s 16
  #     ionic 2 p auto
  #     hydro 3 d 6.6
  #     hydro 4 f 11.6
  #  "Fourth tier" - improvements: -0.75 meV to -0.25 meV
  #     hydro 2 p 4.5
  #     hydro 2 s 2.4
  #     hydro 5 g 14.4
  #     hydro 4 d 14.4
  #     hydro 4 f 16.8
  # Further basis functions - -0.21 meV and below
  #     hydro 3 p 14.8
  #     hydro 3 s 4.4
  #     hydro 3 d 19.6
  #     hydro 5 g 12.8
  ################################################################################
  #
  # For methods that use the localized form of the "resolution of identity" for
  # the two-electron Coulomb operator (RI_method LVL), particularly Hartree-Fock and
  # hybrid density functional calculations, the highest accuracy can be obtained by
  # uncommenting the line beginning with "for_aux"  below, thus adding an extra g radial
  # function to the construction of the product basis set for the expansion.
  # See Ref. New J. Phys. 17, 093020 (2015) for more information, particularly Figs. 1 and 6.
  #
  ################################################################################
  #
  # for_aux hydro 5 g 6.0
  ################################################################################
  #
  #  FHI-aims code project
  # Volker Blum, Fritz Haber Institute Berlin, 2009
  #
  #  Suggested "tight" defaults for O atom (to be pasted into control.in file)
  #
  ################################################################################
    species        O
  #     global species definitions
      nucleus             8
      mass                15.9994
  #
      l_hartree           6
  #
      cut_pot             4.0  2.0  1.0
      basis_dep_cutoff    1e-4
  #
      radial_base         36 7.0
      radial_multiplier   2
       angular_grids specified
        division   0.1817   50
        division   0.3417  110
        division   0.4949  194
        division   0.6251  302
        division   0.8014  434
  #      division   0.8507  590
  #      division   0.8762  770
  #      division   0.9023  974
  #      division   1.2339 1202
  #      outer_grid 974
        outer_grid  434
  ################################################################################
  #
  #  Definition of "minimal" basis
  #
  ################################################################################
  #     valence basis states
      valence      2  s   2.
      valence      2  p   4.
  #     ion occupancy
      ion_occ      2  s   1.
      ion_occ      2  p   3.
  ################################################################################
  #
  #  Suggested additional basis functions. For production calculations,
  #  uncomment them one after another (the most important basis functions are
  #  listed first).
  #
  #  Constructed for dimers: 1.0 A, 1.208 A, 1.5 A, 2.0 A, 3.0 A
  #
  ################################################################################
  #  "First tier" - improvements: -699.05 meV to -159.38 meV
       hydro 2 p 1.8
       hydro 3 d 7.6
       hydro 3 s 6.4
  #  "Second tier" - improvements: -49.91 meV to -5.39 meV
       hydro 4 f 11.6
       hydro 3 p 6.2
       hydro 3 d 5.6
       hydro 5 g 17.6
       hydro 1 s 0.75
  #  "Third tier" - improvements: -2.83 meV to -0.50 meV
  #     ionic 2 p auto
  #     hydro 4 f 10.8
  #     hydro 4 d 4.7
  #     hydro 2 s 6.8
  #  "Fourth tier" - improvements: -0.40 meV to -0.12 meV
  #     hydro 3 p 5
  #     hydro 3 s 3.3
  #     hydro 5 g 15.6
  #     hydro 4 f 17.6
  #     hydro 4 d 14
  # Further basis functions - -0.08 meV and below
  #     hydro 3 s 2.1
  #     hydro 4 d 11.6
  #     hydro 3 p 16
  #     hydro 2 s 17.2
  ################################################################################
  #
  # For methods that use the localized form of the "resolution of identity" for
  # the two-electron Coulomb operator (RI_method LVL), particularly Hartree-Fock and
  # hybrid density functional calculations, the highest accuracy can be obtained by
  # uncommenting the line beginning with "for_aux"  below, thus adding an extra g radial
  # function to the construction of the product basis set for the expansion.
  # See Ref. New J. Phys. 17, 093020 (2015) for more information, particularly Figs. 1 and 6.
  #
  ################################################################################
  #
  # for_aux hydro 5 g 6.0
  
  -----------------------------------------------------------------------
  Completed first pass over input file control.in .
  -----------------------------------------------------------------------
  
  
  -----------------------------------------------------------------------
  Parsing geometry.in (first pass over file, find array dimensions only).
  The contents of geometry.in will be repeated verbatim below
  unless switched off by setting 'verbatim_writeout .false.' .
  in the first line of geometry.in .
  -----------------------------------------------------------------------
  
  #
  # This is the geometry file that corresponds to the current relaxation step.
  # If you do not want this file to be written, set the "write_restart_geometry" flag to .false.
  #
  atom      -0.55419110     -1.25847334      1.43413408 C
  atom      -0.21964599     -0.15904787      2.42001733 C
  atom       0.70686273     -0.26947969      3.22935919 O
  atom      -0.19252360     -2.20701816      1.84224772 H
  atom      -0.01808900     -1.06676700      0.49389922 H
  atom      -1.62117963     -1.33739673      1.19580842 H
  atom      -0.96740380      0.98795410      2.39735147 N
  atom      -2.14996941      1.35463432      1.61720137 C
  atom      -3.34007725      0.38116209      1.76048275 C
  atom      -3.99197173      0.05541462      0.76900511 O
  atom      -0.61163296      1.69403619      3.03323568 H
  atom      -2.51013530      2.27933502      2.09451212 H
  atom      -1.84583632      1.64948609      0.14778009 C
  atom      -1.55024509      0.74686217     -0.39923341 H
  atom      -1.03098887      2.38207368      0.08829623 H
  atom      -2.73133410      2.05848340     -0.35037445 H
  atom      -3.74459754     -0.06907029      2.99544696 N
  atom      -3.24556019     -0.03731666      4.37379840 C
  atom      -2.56590676      1.29616599      4.75804200 C
  atom      -3.05970383      2.37593330      4.43517462 O
  atom      -4.58203762     -0.63438304      2.87850545 H
  atom      -4.15964826     -0.01079152      4.99297309 H
  atom      -2.49306550     -1.32693081      4.73630178 C
  atom      -2.35630109     -1.41380629      5.82331048 H
  atom      -1.51310289     -1.39496540      4.24829168 H
  atom      -3.08177746     -2.19632668      4.41705682 H
  atom      -1.46057178      1.18025408      5.54628037 N
  atom      -0.69997062      2.33776659      5.98105209 C
  atom      -1.00065309      0.27793408      5.58906411 H
  atom      -0.45483272      2.25825386      7.04786680 H
  atom      -1.31341493      3.22910767      5.81507720 H
  atom       0.23868768      2.43409924      5.41362318 H
  
  -----------------------------------------------------------------------
  Completed first pass over input file geometry.in .
  -----------------------------------------------------------------------
  

  Basic array size parameters:
  | Number of species                 :        4
  | Number of atoms                   :       32
  | Max. basis fn. angular momentum   :        4
  | Max. atomic/ionic basis occupied n:        2
  | Max. number of basis fn. types    :        2
  | Max. radial fns per species/type  :        8
  | Max. logarithmic grid size        :     1301
  | Max. radial integration grid size :       73
  | Max. angular integration grid size:      434
  | Max. angular grid division number :        8
  | Radial grid for Hartree potential :     1301
  | Number of spin channels           :        1

------------------------------------------------------------
          Reading file control.in.
------------------------------------------------------------
  XC: Using PBE gradient-corrected functionals.
  Spin treatment: No spin polarisation.
  Charge =   0.000000E+00: Neutral system requested explicitly.
  Occupation type: Gaussian broadening, width =   0.500000E-01 eV.
  Using pulay charge density mixing.
  Pulay mixing - number of memorized iterations:   10
  Charge density mixing - mixing parameter:     0.5000
  Convergence accuracy of self-consistent charge density:  0.1000E-03
  Convergence accuracy of sum of eigenvalues:  0.1000E-01
  Convergence accuracy of total energy:  0.1000E-04
  Convergence accuracy of forces:  0.1000E-03
  Maximum number of s.-c. iterations  :  1000
  Fitting ESP-charges to Potential. 
  | Esp charge output options: 
  | ESP Grid method: 3, cubic grid
  | Number of points in x, ,y, z:  0080 0080 0080
  |
 
  Reading configuration options for species H                   .
  | Found nuclear charge :   1.0000
  | Found atomic mass :    1.00794000000000      amu
  | Found l_max for Hartree potential  :   6
  | Found cutoff potl. onset [A], width [A], scale factor :    4.00000    2.00000    1.00000
  | Threshold for basis-dependent cutoff potential is   0.100000E-03
  | Found data for basic radial integration grid :    24 points, outermost radius =    7.000 A
  | Found multiplier for basic radial grid :   2
  | Found angular grid specification: user-specified.
  | Specified grid contains     6 separate shells.
  | Check grid settings after all constraints further below.
  | Found free-atom valence shell :  1 s   1.000
  | No ionic wave fns used. Skipping ion_occ.
  | Found hydrogenic basis function :  2 s   2.100
  | Found hydrogenic basis function :  2 p   3.500
  | Found hydrogenic basis function :  1 s   0.850
  | Found hydrogenic basis function :  2 p   3.700
  | Found hydrogenic basis function :  2 s   1.200
  | Found hydrogenic basis function :  3 d   7.000
  Species H                   : Missing cutoff potential type.
  Defaulting to exp(1/x)/(1-x)^2 type cutoff potential.
  Species H : No 'logarithmic' tag. Using default grid for free atom:
  | Default logarithmic grid data [bohr] : 0.1000E-03 0.1000E+03 0.1012E+01
  Species H : On-site basis accuracy parameter (for Gram-Schmidt orthonormalisation) not specified.
  Using default value basis_acc =  0.1000000E-03.
  Species H                   : Using default innermost maximum threshold i_radial=  2 for radial functions.
  Species H                   : Default cutoff onset for free atom density etc. : 0.40000000E+01 AA.
  Species H                   : Basic radial grid will be enhanced according to radial_multiplier =   2, to contain    49 grid points.
 
  Reading configuration options for species C                   .
  | Found nuclear charge :   6.0000
  | Found atomic mass :    12.0107000000000      amu
  | Found l_max for Hartree potential  :   6
  | Found cutoff potl. onset [A], width [A], scale factor :    4.00000    2.00000    1.00000
  | Threshold for basis-dependent cutoff potential is   0.100000E-03
  | Found data for basic radial integration grid :    34 points, outermost radius =    7.000 A
  | Found multiplier for basic radial grid :   2
  | Found angular grid specification: user-specified.
  | Specified grid contains     6 separate shells.
  | Check grid settings after all constraints further below.
  | Found free-atom valence shell :  2 s   2.000
  | Found free-atom valence shell :  2 p   2.000
  | No ionic wave fns used. Skipping ion_occ.
  | No ionic wave fns used. Skipping ion_occ.
  | Found hydrogenic basis function :  2 p   1.700
  | Found hydrogenic basis function :  3 d   6.000
  | Found hydrogenic basis function :  2 s   4.900
  | Found hydrogenic basis function :  4 f   9.800
  | Found hydrogenic basis function :  3 p   5.200
  | Found hydrogenic basis function :  3 s   4.300
  | Found hydrogenic basis function :  5 g  14.400
  | Found hydrogenic basis function :  3 d   6.200
  Species C                   : Missing cutoff potential type.
  Defaulting to exp(1/x)/(1-x)^2 type cutoff potential.
  Species C : No 'logarithmic' tag. Using default grid for free atom:
  | Default logarithmic grid data [bohr] : 0.1000E-03 0.1000E+03 0.1012E+01
  Species C : On-site basis accuracy parameter (for Gram-Schmidt orthonormalisation) not specified.
  Using default value basis_acc =  0.1000000E-03.
  Species C                   : Using default innermost maximum threshold i_radial=  2 for radial functions.
  Species C                   : Default cutoff onset for free atom density etc. : 0.40000000E+01 AA.
  Species C                   : Basic radial grid will be enhanced according to radial_multiplier =   2, to contain    69 grid points.
 
  Reading configuration options for species N                   .
  | Found nuclear charge :   7.0000
  | Found atomic mass :    14.0067000000000      amu
  | Found l_max for Hartree potential  :   6
  | Found cutoff potl. onset [A], width [A], scale factor :    4.00000    2.00000    1.00000
  | Threshold for basis-dependent cutoff potential is   0.100000E-03
  | Found data for basic radial integration grid :    35 points, outermost radius =    7.000 A
  | Found multiplier for basic radial grid :   2
  | Found angular grid specification: user-specified.
  | Specified grid contains     6 separate shells.
  | Check grid settings after all constraints further below.
  | Found free-atom valence shell :  2 s   2.000
  | Found free-atom valence shell :  2 p   3.000
  | No ionic wave fns used. Skipping ion_occ.
  | No ionic wave fns used. Skipping ion_occ.
  | Found hydrogenic basis function :  2 p   1.800
  | Found hydrogenic basis function :  3 d   6.800
  | Found hydrogenic basis function :  3 s   5.800
  | Found hydrogenic basis function :  4 f  10.800
  | Found hydrogenic basis function :  3 p   5.800
  | Found hydrogenic basis function :  1 s   0.800
  | Found hydrogenic basis function :  5 g  16.000
  | Found hydrogenic basis function :  3 d   4.900
  Species N                   : Missing cutoff potential type.
  Defaulting to exp(1/x)/(1-x)^2 type cutoff potential.
  Species N : No 'logarithmic' tag. Using default grid for free atom:
  | Default logarithmic grid data [bohr] : 0.1000E-03 0.1000E+03 0.1012E+01
  Species N : On-site basis accuracy parameter (for Gram-Schmidt orthonormalisation) not specified.
  Using default value basis_acc =  0.1000000E-03.
  Species N                   : Using default innermost maximum threshold i_radial=  2 for radial functions.
  Species N                   : Default cutoff onset for free atom density etc. : 0.40000000E+01 AA.
  Species N                   : Basic radial grid will be enhanced according to radial_multiplier =   2, to contain    71 grid points.
 
  Reading configuration options for species O                   .
  | Found nuclear charge :   8.0000
  | Found atomic mass :    15.9994000000000      amu
  | Found l_max for Hartree potential  :   6
  | Found cutoff potl. onset [A], width [A], scale factor :    4.00000    2.00000    1.00000
  | Threshold for basis-dependent cutoff potential is   0.100000E-03
  | Found data for basic radial integration grid :    36 points, outermost radius =    7.000 A
  | Found multiplier for basic radial grid :   2
  | Found angular grid specification: user-specified.
  | Specified grid contains     6 separate shells.
  | Check grid settings after all constraints further below.
  | Found free-atom valence shell :  2 s   2.000
  | Found free-atom valence shell :  2 p   4.000
  | No ionic wave fns used. Skipping ion_occ.
  | No ionic wave fns used. Skipping ion_occ.
  | Found hydrogenic basis function :  2 p   1.800
  | Found hydrogenic basis function :  3 d   7.600
  | Found hydrogenic basis function :  3 s   6.400
  | Found hydrogenic basis function :  4 f  11.600
  | Found hydrogenic basis function :  3 p   6.200
  | Found hydrogenic basis function :  3 d   5.600
  | Found hydrogenic basis function :  5 g  17.600
  | Found hydrogenic basis function :  1 s   0.750
  Species O                   : Missing cutoff potential type.
  Defaulting to exp(1/x)/(1-x)^2 type cutoff potential.
  Species O : No 'logarithmic' tag. Using default grid for free atom:
  | Default logarithmic grid data [bohr] : 0.1000E-03 0.1000E+03 0.1012E+01
  Species O : On-site basis accuracy parameter (for Gram-Schmidt orthonormalisation) not specified.
  Using default value basis_acc =  0.1000000E-03.
  Species O                   : Using default innermost maximum threshold i_radial=  2 for radial functions.
  Species O                   : Default cutoff onset for free atom density etc. : 0.40000000E+01 AA.
  Species O                   : Basic radial grid will be enhanced according to radial_multiplier =   2, to contain    73 grid points.
 
  Finished reading input file 'control.in'. Consistency checks are next.
 
  Target number of points in a grid batch is not set. Defaulting to  100
  Method for grid partitioning is not set. Defaulting to parallel hash+maxmin partitioning.
  Batch size limit is not set. Defaulting to    200
  By default, will store active basis functions for each batch.
  If in need of memory, prune_basis_once .false. can be used to disable this option.
  communication_type for Hartree potential was not specified.
  Defaulting to calc_hartree .
  Pulay mixer: Number of initial linear mixing iterations not set.
  Defaulting to    0 iterations.
  Work space size for distributed Hartree potential not set.
  Defaulting to   0.200000E+03 MB.
  Algorithm-dependent basis array size parameters:
  | n_max_pulay                         :       10
  Geometry relaxation not requested: no relaxation will be performed.
  Handling of forces: Unphysical translation and rotation will be removed from forces.
  No accuracy limit for integral partition fn. given. Defaulting to  0.1000E-14.
  No threshold value for u(r) in integrations given. Defaulting to  0.1000E-05.
  No accuracy for occupation numbers given. Defaulting to  0.1000E-07.
  No threshold value for occupation numbers given. Defaulting to  0.0000E+00.
  No accuracy for fermi level given. Defaulting to  0.1000E-19.
  Maximum # of iterations to find E_F not set. Defaulting to  200.
  Preferred method for the eigenvalue solver ('KS_method') not specified in 'control.in'.
  Calling blacs routine to test compilation state
  Since scalapack support is enabled, defaulting to 'elpa'.
  Preferred method for the MBD eigenvalue solver ('mbd_eigensolver') not specified in 'control.in'.
  Calling blacs routine to test compilation state
  Since scalapack support is enabled, defaulting to 'scaLAPACK'.
  Will not use alltoall communication since running on < 1024 CPUs.
  Threshold for basis singularities not set.
  Default threshold for basis singularities:  0.1000E-04
  partition_type (choice of integration weights) for integrals was not specified.
  | Using a version of the partition function of Stratmann and coworkers ('stratmann_smoother').
  | At each grid point, the set of atoms used to build the partition table is smoothly restricted to
  | only those atoms whose free-atom density would be non-zero at that grid point.
  Partitioning for Hartree potential was not defined. Using partition_type for integrals.
  | Adjusted default value of keyword multip_moments_threshold to:       0.10000000E-11
  | This value may affect high angular momentum components of the Hartree potential in periodic systems.
  No q(lm)/r^(l+1) cutoff set for long-range Hartree potential.
  | Using default value of  0.100000E-09 .
  | Verify using the multipole_threshold keyword.
  Defaulting to new monopole extrapolation.
  Density update method: automatic selection selected.
------------------------------------------------------------


------------------------------------------------------------
          Reading geometry description geometry.in.
------------------------------------------------------------
 * Warning! You did not set the 'relativistic' flag in input file 'control.in'.
 * Since you are not attempting to treat any elements beyond Ca(Z=20), FHI-aims
 * will default to 'relativistic none'.
 * You must ensure that this is really what you want!!
 * For example, DO NOT compute total-energy differences between results from
 * different settings of the 'relativistic' flag.
  Input structure read successfully.
  The structure contains       32 atoms,  and a total of        116.000 electrons.

  Input geometry:
  | No unit cell requested.
  | Atomic structure:
  |       Atom                x [A]            y [A]            z [A]
  |    1: Species C             -0.554191        -1.258473         1.434134
  |    2: Species C             -0.219646        -0.159048         2.420017
  |    3: Species O              0.706863        -0.269480         3.229359
  |    4: Species H             -0.192524        -2.207018         1.842248
  |    5: Species H             -0.018089        -1.066767         0.493899
  |    6: Species H             -1.621180        -1.337397         1.195808
  |    7: Species N             -0.967404         0.987954         2.397351
  |    8: Species C             -2.149969         1.354634         1.617201
  |    9: Species C             -3.340077         0.381162         1.760483
  |   10: Species O             -3.991972         0.055415         0.769005
  |   11: Species H             -0.611633         1.694036         3.033236
  |   12: Species H             -2.510135         2.279335         2.094512
  |   13: Species C             -1.845836         1.649486         0.147780
  |   14: Species H             -1.550245         0.746862        -0.399233
  |   15: Species H             -1.030989         2.382074         0.088296
  |   16: Species H             -2.731334         2.058483        -0.350374
  |   17: Species N             -3.744598        -0.069070         2.995447
  |   18: Species C             -3.245560        -0.037317         4.373798
  |   19: Species C             -2.565907         1.296166         4.758042
  |   20: Species O             -3.059704         2.375933         4.435175
  |   21: Species H             -4.582038        -0.634383         2.878505
  |   22: Species H             -4.159648        -0.010792         4.992973
  |   23: Species C             -2.493066        -1.326931         4.736302
  |   24: Species H             -2.356301        -1.413806         5.823310
  |   25: Species H             -1.513103        -1.394965         4.248292
  |   26: Species H             -3.081777        -2.196327         4.417057
  |   27: Species N             -1.460572         1.180254         5.546280
  |   28: Species C             -0.699971         2.337767         5.981052
  |   29: Species H             -1.000653         0.277934         5.589064
  |   30: Species H             -0.454833         2.258254         7.047867
  |   31: Species H             -1.313415         3.229108         5.815077
  |   32: Species H              0.238688         2.434099         5.413623
  |

  | The smallest distance between any two atoms is         1.01367501 AA.
  |
  | The first atom of this pair is atom number                     27 .
  | The second atom of this pair is atom number                    29 .

  Number of empty states per atom not set in control.in - providing a guess from actual geometry.
  | Total number of empty states used during s.c.f. cycle:       71
  If you use a very high smearing, use empty_states (per atom!) in control.in to increase this value.

  Structure-dependent array size parameters: 
  | Maximum number of distinct radial functions  :       40
  | Maximum number of basis functions            :      840
  | Number of Kohn-Sham states (occupied + empty):      129
------------------------------------------------------------

------------------------------------------------------------
          Preparing all fixed parts of the calculation.
------------------------------------------------------------
  Determining machine precision:
    2.225073858507201E-308
  Setting up grids for atomic and cluster calculations.

  Creating wave function, potential, and density for free atoms.

  Species: H

  List of occupied orbitals and eigenvalues:
    n    l              occ      energy [Ha]    energy [eV]
    1    0           1.0000        -0.238382        -6.4867


  Species: C

  List of occupied orbitals and eigenvalues:
    n    l              occ      energy [Ha]    energy [eV]
    1    0           2.0000       -10.041232      -273.2358
    2    0           2.0000        -0.504327       -13.7234
    2    1           2.0000        -0.193750        -5.2722


  Species: N

  List of occupied orbitals and eigenvalues:
    n    l              occ      energy [Ha]    energy [eV]
    1    0           2.0000       -14.129007      -384.4699
    2    0           2.0000        -0.681802       -18.5528
    2    1           3.0000        -0.260543        -7.0897


  Species: O

  List of occupied orbitals and eigenvalues:
    n    l              occ      energy [Ha]    energy [eV]
    1    0           2.0000       -18.898576      -514.2564
    2    0           2.0000        -0.878795       -23.9132
    2    1           4.0000        -0.332075        -9.0362

  Creating fixed part of basis set: Ionic, confined, hydrogenic.
 
  H                    hydrogenic:
 
  List of hydrogenic basis orbitals: 
    n    l      effective z      eigenvalue [eV]  inner max. [A]     outer max. [A]     outer radius [A]   
    2    0         2.100000       -14.9965           0.193243           1.317208           5.373006
    2    1         3.500000       -41.6672           0.602369           0.602369           4.056063
    1    0         0.850000        -9.8292           0.624871           0.624871           5.373006
    2    1         3.700000       -46.5653           0.573622           0.573622           3.910002
    2    0         1.200000        -4.5995           0.334980           2.228188           5.505995
    3    2         7.000000       -74.0753           0.680699           0.680699           3.769201
 
 
  C                    hydrogenic:
 
  List of hydrogenic basis orbitals: 
    n    l      effective z      eigenvalue [eV]  inner max. [A]     outer max. [A]     outer radius [A]   
    2    1         1.700000        -9.8152           1.245706           1.245706           5.401630
    3    2         6.000000       -54.4226           0.792453           0.792453           4.178599
    2    0         4.900000       -81.6681           0.082559           0.562749           3.353238
    4    3         9.800000       -81.6681           0.863254           0.863254           4.028125
    3    1         5.200000       -40.8774           0.305389           1.215618           4.898362
    3    0         4.300000       -27.9508           0.091041           1.610311           5.401630
    5    4        14.400000      -112.8510           0.917666           0.917666           3.883070
    3    2         6.200000       -58.1113           0.763917           0.763917           4.077671
 
 
  N                    hydrogenic:
 
  List of hydrogenic basis orbitals: 
    n    l      effective z      eigenvalue [eV]  inner max. [A]     outer max. [A]     outer radius [A]   
    2    1         1.800000       -11.0118           1.177451           1.177451           5.427479
    3    2         6.800000       -69.9029           0.704619           0.704619           3.854246
    3    0         5.800000       -50.8549           0.067388           1.191934           4.629968
    4    3        10.800000       -99.1854           0.786571           0.786571           3.761152
    3    1         5.800000       -50.8549           0.274880           1.094176           4.518138
    1    0         0.800000        -8.7059           0.662839           0.662839           5.361532
    5    4        16.000000      -139.3222           0.825990           0.825990           3.625711
    3    2         4.900000       -36.2967           0.968267           0.968267           4.862000
 
 
  O                    hydrogenic:
 
  List of hydrogenic basis orbitals: 
    n    l      effective z      eigenvalue [eV]  inner max. [A]     outer max. [A]     outer radius [A]   
    2    1         1.800000       -11.0118           1.178562           1.178562           5.432602
    3    2         7.600000       -87.3182           0.624125           0.624125           3.541477
    3    0         6.400000       -61.9209           0.061167           1.081902           4.306578
    4    3        11.600000      -114.4238           0.731631           0.731631           3.585037
    3    1         6.200000       -58.1113           0.255680           1.030270           4.306578
    3    2         5.600000       -47.4081           0.847233           0.847233           4.413171
    5    4        17.600000      -168.5799           0.749740           0.749740           3.372465
    1    0         0.750000        -7.6499           0.705284           0.705284           5.366593
 

  Adding cutoff potential to free-atom effective potential.
  Creating atomic-like basis functions for current effective potential.

  Species H                   :

  List of atomic basis orbitals and eigenvalues:
    n    l      energy [Ha]    energy [eV]    outer radius [A]
    1    0        -0.238382        -6.4867       5.373006


  Species C                   :

  List of atomic basis orbitals and eigenvalues:
    n    l      energy [Ha]    energy [eV]    outer radius [A]
    1    0       -10.041232      -273.2358       1.934409
    2    0        -0.504327       -13.7234       5.271162
    2    1        -0.193750        -5.2722       5.401630


  Species N                   :

  List of atomic basis orbitals and eigenvalues:
    n    l      energy [Ha]    energy [eV]    outer radius [A]
    1    0       -14.129007      -384.4699       1.637919
    2    0        -0.681802       -18.5528       5.168461
    2    1        -0.260543        -7.0897       5.361532


  Species O                   :

  List of atomic basis orbitals and eigenvalues:
    n    l      energy [Ha]    energy [eV]    outer radius [A]
    1    0       -18.898576      -514.2564       1.415765
    2    0        -0.878795       -23.9132       5.048385
    2    1        -0.332075        -9.0362       5.301386

  Assembling full basis from fixed parts.
  | Species H :   atomic orbital   1 s accepted.
  | Species H :    hydro orbital   2 s accepted.
  | Species H :    hydro orbital   1 s accepted.
  | Species H :    hydro orbital   2 s accepted.
  | Species H :    hydro orbital   2 p accepted.
  | Species H :    hydro orbital   2 p accepted.
  | Species H :    hydro orbital   3 d accepted.
  | Species C :   atomic orbital   1 s accepted.
  | Species C :    hydro orbital   2 s accepted.
  | Species C :   atomic orbital   2 s accepted.
  | Species C :    hydro orbital   3 s accepted.
  | Species C :    hydro orbital   3 p accepted.
  | Species C :   atomic orbital   2 p accepted.
  | Species C :    hydro orbital   2 p accepted.
  | Species C :    hydro orbital   3 d accepted.
  | Species C :    hydro orbital   3 d accepted.
  | Species C :    hydro orbital   4 f accepted.
  | Species C :    hydro orbital   5 g accepted.
  | Species N :   atomic orbital   1 s accepted.
  | Species N :    hydro orbital   3 s accepted.
  | Species N :   atomic orbital   2 s accepted.
  | Species N :    hydro orbital   1 s accepted.
  | Species N :    hydro orbital   3 p accepted.
  | Species N :   atomic orbital   2 p accepted.
  | Species N :    hydro orbital   2 p accepted.
  | Species N :    hydro orbital   3 d accepted.
  | Species N :    hydro orbital   3 d accepted.
  | Species N :    hydro orbital   4 f accepted.
  | Species N :    hydro orbital   5 g accepted.
  | Species O :   atomic orbital   1 s accepted.
  | Species O :    hydro orbital   3 s accepted.
  | Species O :   atomic orbital   2 s accepted.
  | Species O :    hydro orbital   1 s accepted.
  | Species O :    hydro orbital   3 p accepted.
  | Species O :   atomic orbital   2 p accepted.
  | Species O :    hydro orbital   2 p accepted.
  | Species O :    hydro orbital   3 d accepted.
  | Species O :    hydro orbital   3 d accepted.
  | Species O :    hydro orbital   4 f accepted.
  | Species O :    hydro orbital   5 g accepted.
 
  Basis size parameters after reduction:
  | Total number of radial functions:       40
  | Total number of basis functions :      840
 
  Testing on-site integration grid accuracy.
  |  Species  Function  <phi|h_atom|phi> (log., in eV)  <phi|h_atom|phi> (rad., in eV)
           1        1                 -6.4869821809                 -6.4870742227
           1        2                 13.5044133542                 13.5041049177
           1        3                 32.7854418792                 32.7779770519
           1        4                 33.7995553101                 33.7152624900 ***
           1        5                 28.8558651799                 28.8558652046
           1        6                 59.6361831893                 59.6362535845
           1        7                 60.2733718049                 60.2733715484
           2        8               -273.2358277112               -273.2358261765
           2        9                -10.7624923123                -10.7625144012
           2       10                 17.4634079027                 17.4634252127
           2       11                 53.0363661832                 53.0366180446
           2       12                 15.0981351967                 15.0981317714
           2       13                  3.8522181899                  3.8522770949
           2       14                 12.1181835661                 12.1206868578
           2       15                 29.4320778347                 29.4320780959
           2       16                 54.8753777694                 54.8752901936
           2       17                 59.3533975461                 59.3533974833
           2       18                 93.4537491195                 93.4537492066
           3       19               -384.4698526889               -384.4698499465
           3       20                 12.5691022037                 12.5690910168
           3       21                -15.7489097511                -15.7489165588
           3       22                 27.0978334940                 27.0985589490
           3       23                 18.5949116966                 18.5949125562
           3       24                  1.2212828291                  1.2212855301
           3       25                 13.4428926797                 13.4434051125
           3       26                 35.9380614500                 35.9380613666
           3       27                 39.9231532098                 39.9231654735
           3       28                 72.9957335806                 72.9957336833
           3       29                116.4231321147                116.4231321431
           4       30               -514.2564144315               -514.2564099626
           4       31                 15.1726678541                 15.1726530877
           4       32                -21.5447785304                -21.5447874973
           4       33                 14.4944558459                 14.4944698284
           4       34                 20.8882174564                 20.8882178906
           4       35                 -2.4850315908                 -2.4850322289
           4       36                 13.8600193195                 13.8599826966
           4       37                 45.8243383616                 45.8243383675
           4       38                 52.1840606465                 52.1840622440
           4       39                 85.4074185510                 85.4074185819
           4       40                142.0983717302                142.0983717339
 * Note: Onsite integrals marked "***" above are less accurate than
 * onsite_accuracy_threshold =    0.03000 eV. Usually, this is harmless.
 * When in doubt, tighten the "radial" and/or "radial_multiplier" flags to check.

  Preparing densities etc. for the partition functions (integrals / Hartree potential).

  Preparations completed.
  max(cpu_time)          :      0.232 s.
  Wall clock time (cpu1) :      0.233 s.
------------------------------------------------------------

------------------------------------------------------------
          Begin self-consistency loop: Initialization.

          Date     :  20170309, Time     :  184056.624
------------------------------------------------------------

  Initializing index lists of integration centers etc. from given atomic structure:
  | Number of centers in hartree potential         :        32
  | Number of centers in hartree multipole         :        32
  | Number of centers in electron density summation:        32
  | Number of centers in basis integrals           :        32
  | Number of centers in integrals                 :        32
  | Number of centers in hamiltonian               :        32
  Using modified Scalapack Eigenvalue solver (ELPA)
  * Using 32 tasks for Scalapack Eigenvalue solver.
  Detailed listing of tasks and assigned k-points:
  (for non-periodic systems, the "k-point" denotes an internal label only)
   Task     0 k-point     1 on eos366
   Task     1 k-point     1 on eos366
   Task     2 k-point     1 on eos366
   Task     3 k-point     1 on eos366
   Task     4 k-point     1 on eos366
   Task     5 k-point     1 on eos366
   Task     6 k-point     1 on eos366
   Task     7 k-point     1 on eos366
   Task     8 k-point     1 on eos366
   Task     9 k-point     1 on eos366
   Task    10 k-point     1 on eos366
   Task    11 k-point     1 on eos366
   Task    12 k-point     1 on eos366
   Task    13 k-point     1 on eos366
   Task    14 k-point     1 on eos366
   Task    15 k-point     1 on eos366
   Task    16 k-point     1 on eos366
   Task    17 k-point     1 on eos366
   Task    18 k-point     1 on eos366
   Task    19 k-point     1 on eos366
   Task    20 k-point     1 on eos366
   Task    21 k-point     1 on eos366
   Task    22 k-point     1 on eos366
   Task    23 k-point     1 on eos366
   Task    24 k-point     1 on eos366
   Task    25 k-point     1 on eos366
   Task    26 k-point     1 on eos366
   Task    27 k-point     1 on eos366
   Task    28 k-point     1 on eos366
   Task    29 k-point     1 on eos366
   Task    30 k-point     1 on eos366
   Task    31 k-point     1 on eos366
  Tasks:    32 split into      8 X      4 BLACS grid
  Calculating blocksize based on n_basis =          840 max_nprow =            8 max_npcol =            4
  Scalapack blocksize set to:           16
  Required Scalapack workspace - INTEGER:            1 REAL:             1
  Partitioning the integration grid into batches with parallel hashing+maxmin method.
  | Number of batches:     5060
  | Maximal batch size:     200
  | Minimal batch size:      53
  | Average batch size:     104.294
  | Standard deviation of batch sizes:      33.304

  Integration load balanced across    32 MPI tasks.
  Work distribution over tasks is as follows:
  Task     0 has      16472 integration points.
  Task     1 has      16540 integration points.
  Task     2 has      16478 integration points.
  Task     3 has      16441 integration points.
  Task     4 has      16441 integration points.
  Task     5 has      16525 integration points.
  Task     6 has      16536 integration points.
  Task     7 has      16527 integration points.
  Task     8 has      16472 integration points.
  Task     9 has      16442 integration points.
  Task    10 has      16481 integration points.
  Task    11 has      16495 integration points.
  Task    12 has      16523 integration points.
  Task    13 has      16521 integration points.
  Task    14 has      16528 integration points.
  Task    15 has      16449 integration points.
  Task    16 has      16542 integration points.
  Task    17 has      16444 integration points.
  Task    18 has      16501 integration points.
  Task    19 has      16455 integration points.
  Task    20 has      16444 integration points.
  Task    21 has      16538 integration points.
  Task    22 has      16525 integration points.
  Task    23 has      16603 integration points.
  Task    24 has      16491 integration points.
  Task    25 has      16476 integration points.
  Task    26 has      16440 integration points.
  Task    27 has      16519 integration points.
  Task    28 has      16462 integration points.
  Task    29 has      16452 integration points.
  Task    30 has      16445 integration points.
  Task    31 has      16520 integration points.
  Initializing partition tables, free-atom densities, potentials, etc. across the integration grid (initialize_grid_storage).
  | initialize_grid_storage: Actual outermost partition radius vs. multipole_radius_free
  | (-- VB: in principle, multipole_radius_free should be larger, hence this output)
  | Species        1: Confinement radius =              6.000000000000000 AA, multipole_radius_free =              6.071692442739658 AA.
  | Species        1: outer_partition_radius set to              6.071692442739658 AA .
  | Species        2: Confinement radius =              6.000000000000000 AA, multipole_radius_free =              6.029870734432609 AA.
  | Species        2: outer_partition_radius set to              6.029870734432609 AA .
  | Species        3: Confinement radius =              6.000000000000000 AA, multipole_radius_free =              6.058726835495003 AA.
  | Species        3: outer_partition_radius set to              6.058726835495003 AA .
  | Species        4: Confinement radius =              6.000000000000000 AA, multipole_radius_free =              6.064445521808699 AA.
  | Species        4: outer_partition_radius set to              6.064445521808699 AA .
  | Original list of interatomic distances with          32 x         32 entries is created.
  | Net number of integration points:   527728
  | of which are non-zero points    :   410085
  Obtaining max. number of non-zero basis functions in each batch (get_n_compute_maxes).
  | Maximal number of non-zero basis functions:      824 in task     0
  | Maximal number of non-zero basis functions:      820 in task     1
  | Maximal number of non-zero basis functions:      829 in task     2
  | Maximal number of non-zero basis functions:      818 in task     3
  | Maximal number of non-zero basis functions:      810 in task     4
  | Maximal number of non-zero basis functions:      826 in task     5
  | Maximal number of non-zero basis functions:      806 in task     6
  | Maximal number of non-zero basis functions:      819 in task     7
  | Maximal number of non-zero basis functions:      825 in task     8
  | Maximal number of non-zero basis functions:      827 in task     9
  | Maximal number of non-zero basis functions:      812 in task    10
  | Maximal number of non-zero basis functions:      825 in task    11
  | Maximal number of non-zero basis functions:      812 in task    12
  | Maximal number of non-zero basis functions:      820 in task    13
  | Maximal number of non-zero basis functions:      819 in task    14
  | Maximal number of non-zero basis functions:      823 in task    15
  | Maximal number of non-zero basis functions:      814 in task    16
  | Maximal number of non-zero basis functions:      818 in task    17
  | Maximal number of non-zero basis functions:      831 in task    18
  | Maximal number of non-zero basis functions:      817 in task    19
  | Maximal number of non-zero basis functions:      814 in task    20
  | Maximal number of non-zero basis functions:      806 in task    21
  | Maximal number of non-zero basis functions:      811 in task    22
  | Maximal number of non-zero basis functions:      818 in task    23
  | Maximal number of non-zero basis functions:      812 in task    24
  | Maximal number of non-zero basis functions:      817 in task    25
  | Maximal number of non-zero basis functions:      817 in task    26
  | Maximal number of non-zero basis functions:      823 in task    27
  | Maximal number of non-zero basis functions:      824 in task    28
  | Maximal number of non-zero basis functions:      826 in task    29
  | Maximal number of non-zero basis functions:      813 in task    30
  | Maximal number of non-zero basis functions:      828 in task    31
  Selecting the method for density update.
  Loop over occupied states selected for charge density update.
  Integrating Hamiltonian matrix: batch-based integration.
  Time summed over all CPUs for integration: real work       25.521 s, elapsed       26.553 s
  Integrating overlap matrix.
  Time summed over all CPUs for integration: real work       15.966 s, elapsed       16.471 s
  Deallocating overlap matrix.

  Updating Kohn-Sham eigenvalues, eigenvectors, occupation numbers, and Fermi level.
  Solving generalized eigenproblem
  Solving real symmetric generalised eigenvalue problem by standard ScaLAPACK.
  Transforming overlap matrix with ScaLAPACK and checking for singularities.
  : Overlap matrix is nonsingular, using Cholesky decomposition
  | Lowest eigenvalue:  0.860486E-04
  Factoring overlap matrix with Cholesky decomposition
  Using Cholesky factor for transformation
  Using 1-stage real ELPA solver
  Determining occupation numbers for Kohn-Sham eigenstates.
  | Chemical potential (Fermi level) in eV                 : -.94740783E+01
  | Error in electron count due to remaining E_F inaccuracy: 0.00000000E+00
  | Maximum occupation number of highest empty state:  0.00E+00

  Writing Kohn-Sham eigenvalues.

  State    Occupation    Eigenvalue [Ha]    Eigenvalue [eV]
      1       2.00000         -18.974217         -516.31472
      2       2.00000         -18.974189         -516.31396
      3       2.00000         -18.972468         -516.26713
      4       2.00000         -14.256555         -387.94060
      5       2.00000         -14.253886         -387.86797
      6       2.00000         -14.251662         -387.80745
      7       2.00000         -10.171511         -276.78090
      8       2.00000         -10.171496         -276.78049
      9       2.00000         -10.170683         -276.75837
     10       2.00000         -10.166842         -276.65386
     11       2.00000         -10.148162         -276.14554
     12       2.00000         -10.146714         -276.10615
     13       2.00000         -10.135868         -275.81099
     14       2.00000         -10.134694         -275.77907
     15       2.00000         -10.133118         -275.73618
     16       2.00000          -1.134286          -30.86548
     17       2.00000          -1.130295          -30.75690
     18       2.00000          -1.128362          -30.70430
     19       2.00000          -1.017328          -27.68290
     20       2.00000          -1.013109          -27.56809
     21       2.00000          -1.003051          -27.29441
     22       2.00000          -0.882293          -24.00840
     23       2.00000          -0.877030          -23.86521
     24       2.00000          -0.849455          -23.11486
     25       2.00000          -0.816430          -22.21619
     26       2.00000          -0.779609          -21.21424
     27       2.00000          -0.763428          -20.77393
     28       2.00000          -0.705513          -19.19798
     29       2.00000          -0.689901          -18.77317
     30       2.00000          -0.668119          -18.18045
     31       2.00000          -0.639170          -17.39270
     32       2.00000          -0.622760          -16.94617
     33       2.00000          -0.613467          -16.69328
     34       2.00000          -0.605244          -16.46953
     35       2.00000          -0.590340          -16.06396
     36       2.00000          -0.578510          -15.74206
     37       2.00000          -0.566164          -15.40611
     38       2.00000          -0.561739          -15.28568
     39       2.00000          -0.558581          -15.19976
     40       2.00000          -0.552169          -15.02529
     41       2.00000          -0.547860          -14.90803
     42       2.00000          -0.545776          -14.85132
     43       2.00000          -0.533545          -14.51851
     44       2.00000          -0.527483          -14.35355
     45       2.00000          -0.524326          -14.26765
     46       2.00000          -0.515559          -14.02908
     47       2.00000          -0.511749          -13.92540
     48       2.00000          -0.505025          -13.74243
     49       2.00000          -0.497676          -13.54246
     50       2.00000          -0.483046          -13.14436
     51       2.00000          -0.477727          -12.99962
     52       2.00000          -0.473366          -12.88095
     53       2.00000          -0.410605          -11.17313
     54       2.00000          -0.403255          -10.97312
     55       2.00000          -0.400512          -10.89847
     56       2.00000          -0.387469          -10.54357
     57       2.00000          -0.385395          -10.48712
     58       2.00000          -0.381619          -10.38438
     59       0.00000          -0.166718           -4.53664
     60       0.00000          -0.164528           -4.47704
     61       0.00000          -0.155450           -4.23002
     62       0.00000          -0.081103           -2.20692
     63       0.00000          -0.066878           -1.81983
     64       0.00000          -0.060745           -1.65295
     65       0.00000          -0.053762           -1.46293
     66       0.00000          -0.040829           -1.11101
     67       0.00000          -0.036496           -0.99310
     68       0.00000          -0.029978           -0.81573
     69       0.00000          -0.025900           -0.70476
     70       0.00000          -0.025152           -0.68441
     71       0.00000          -0.020735           -0.56423
     72       0.00000          -0.017067           -0.46441
     73       0.00000          -0.011796           -0.32098
     74       0.00000          -0.005903           -0.16064
     75       0.00000          -0.003656           -0.09949
     76       0.00000          -0.003187           -0.08673
     77       0.00000           0.002734            0.07439
     78       0.00000           0.007957            0.21652
     79       0.00000           0.011571            0.31486
     80       0.00000           0.015569            0.42365
     81       0.00000           0.018070            0.49172
     82       0.00000           0.020830            0.56682
     83       0.00000           0.027325            0.74356
     84       0.00000           0.036478            0.99261
     85       0.00000           0.043800            1.19185
     86       0.00000           0.050952            1.38648
     87       0.00000           0.053872            1.46592
     88       0.00000           0.060564            1.64802
     89       0.00000           0.066995            1.82302
     90       0.00000           0.073614            2.00313
     91       0.00000           0.076000            2.06808
     92       0.00000           0.084964            2.31200
     93       0.00000           0.087301            2.37557
     94       0.00000           0.093599            2.54696
     95       0.00000           0.100977            2.74773
     96       0.00000           0.107696            2.93057
     97       0.00000           0.111673            3.03879
     98       0.00000           0.118390            3.22155
     99       0.00000           0.121143            3.29648
    100       0.00000           0.129632            3.52748
    101       0.00000           0.134258            3.65334
    102       0.00000           0.135104            3.67636
    103       0.00000           0.138041            3.75629
    104       0.00000           0.143495            3.90470
    105       0.00000           0.144975            3.94497
    106       0.00000           0.155123            4.22112
    107       0.00000           0.161284            4.38876
    108       0.00000           0.164502            4.47634
    109       0.00000           0.168805            4.59341
    110       0.00000           0.176333            4.79826
    111       0.00000           0.181011            4.92557
    112       0.00000           0.184003            5.00699
    113       0.00000           0.191945            5.22308
    114       0.00000           0.196397            5.34423
    115       0.00000           0.200845            5.46528
    116       0.00000           0.206456            5.61795
    117       0.00000           0.210299            5.72252
    118       0.00000           0.215631            5.86761
    119       0.00000           0.218282            5.93975
    120       0.00000           0.221609            6.03030
    121       0.00000           0.226104            6.15261
    122       0.00000           0.230569            6.27411
    123       0.00000           0.238415            6.48760
    124       0.00000           0.241796            6.57960
    125       0.00000           0.249767            6.79651
    126       0.00000           0.256959            6.99220
    127       0.00000           0.265970            7.23742
    128       0.00000           0.270390            7.35768
    129       0.00000           0.277403            7.54853

  Highest occupied state (VBM) at    -10.38437899 eV
  | Occupation number:      2.00000000

  Lowest unoccupied state (CBM) at    -4.53663855 eV
  | Occupation number:      0.00000000

  Overall HOMO-LUMO gap:      5.84774044 eV.
  Calculating total energy contributions from superposition of free atom densities.

  Total energy components:
  | Sum of eigenvalues            :        -437.84082312 Ha      -11914.25498782 eV
  | XC energy correction          :         -98.83602101 Ha       -2689.46497003 eV
  | XC potential correction       :         127.04523863 Ha        3457.07683720 eV
  | Free-atom electrostatic energy:        -333.63543540 Ha       -9078.68211539 eV
  | Hartree energy correction     :           0.00000000 Ha           0.00000000 eV
  | vdW energy correction         :           0.00000000 Ha           0.00000000 eV
  | Entropy correction            :          -0.00000000 Ha          -0.00000000 eV
  | ---------------------------
  | Total energy                  :        -743.26704090 Ha      -20225.32523604 eV
  | Total energy, T -> 0          :        -743.26704090 Ha      -20225.32523604 eV  <-- do not rely on this value for anything but (periodic) metals
  | Electronic free energy        :        -743.26704090 Ha      -20225.32523604 eV

  Derived energy quantities:
  | Kinetic energy                :         735.19757530 Ha       20005.74390498 eV
  | Electrostatic energy          :       -1379.62859519 Ha      -37541.60417099 eV
  | Energy correction for multipole
  | error in Hartree potential    :           0.00000000 Ha           0.00000000 eV
  | Sum of eigenvalues per atom                           :        -372.32046837 eV
  | Total energy (T->0) per atom                          :        -632.04141363 eV  <-- do not rely on this value for anything but (periodic) metals
  | Electronic free energy per atom                       :        -632.04141363 eV
  Initialize hartree_potential_storage
  Max. number of atoms included in rho_multipole:           32

  End scf initialization - timings             :  max(cpu_time)    wall_clock(cpu1)
  | Time for scf. initialization               :        2.092 s           2.092 s
  | Boundary condition initialization          :        0.004 s           0.001 s
  | Integration                                :        1.368 s           1.366 s
  | Solution of K.-S. eqns.                    :        0.076 s           0.075 s
  | Grid partitioning                          :        0.264 s           0.258 s
  | Preloading free-atom quantities on grid    :        0.028 s           0.028 s
  | Free-atom superposition energy             :        0.044 s           0.041 s
  | Total energy evaluation                    :        0.000 s           0.001 s
------------------------------------------------------------

------------------------------------------------------------
          Begin self-consistency iteration #    1

  Date     :  20170309, Time     :  184058.716
------------------------------------------------------------
  Evaluating new KS density.
  Integration grid: deviation in total charge (<rho> - N_e) =   1.421085E-14
  Pulay mixing of updated and previous charge densities.

  Evaluating partitioned Hartree potential by multipole expansion.
  | Analytical far-field extrapolation by fixed multipoles:
  | Hartree multipole sum: apparent total charge =  -0.951616E-05
  Summing up the Hartree potential.
  Time summed over all CPUs for potential: real work        9.652 s, elapsed        9.955 s
  | RMS charge density error from multipole expansion :   0.108076E-01

  Integrating Hamiltonian matrix: batch-based integration.
  Time summed over all CPUs for integration: real work       25.443 s, elapsed       26.365 s

  Updating Kohn-Sham eigenvalues, eigenvectors, occupation numbers, and Fermi level.
  Solving generalized eigenproblem
  Solving real symmetric generalised eigenvalue problem by standard ScaLAPACK.
  Using Cholesky factor for transformation
  Using 2-stage real ELPA solver
  K-Point:    1, Trafo times: 1-stage=     0.021 s, 2-stage=     0.019 s ==> Using 2-stage solver
  Determining occupation numbers for Kohn-Sham eigenstates.
  | Chemical potential (Fermi level) in eV                 : -.37280385E+01
  | Error in electron count due to remaining E_F inaccuracy: 0.00000000E+00
  | Maximum occupation number of highest empty state:  0.00E+00

  Writing Kohn-Sham eigenvalues.

  State    Occupation    Eigenvalue [Ha]    Eigenvalue [eV]
      1       2.00000         -18.625833         -506.83471
      2       2.00000         -18.618406         -506.63260
      3       2.00000         -18.617172         -506.59903
      4       2.00000         -13.993584         -380.78479
      5       2.00000         -13.992859         -380.76508
      6       2.00000         -13.990770         -380.70822
      7       2.00000         -10.062661         -273.81894
      8       2.00000         -10.060459         -273.75901
      9       2.00000         -10.055668         -273.62865
     10       2.00000          -9.980226         -271.57576
     11       2.00000          -9.962713         -271.09921
     12       2.00000          -9.885370         -268.99461
     13       2.00000          -9.851011         -268.05964
     14       2.00000          -9.847801         -267.97231
     15       2.00000          -9.822762         -267.29096
     16       2.00000          -0.971762          -26.44298
     17       2.00000          -0.962525          -26.19165
     18       2.00000          -0.958765          -26.08933
     19       2.00000          -0.867954          -23.61824
     20       2.00000          -0.864923          -23.53575
     21       2.00000          -0.861087          -23.43137
     22       2.00000          -0.741801          -20.18544
     23       2.00000          -0.722472          -19.65947
     24       2.00000          -0.698154          -18.99773
     25       2.00000          -0.672352          -18.29564
     26       2.00000          -0.639253          -17.39495
     27       2.00000          -0.623337          -16.96186
     28       2.00000          -0.578934          -15.75359
     29       2.00000          -0.560725          -15.25811
     30       2.00000          -0.541515          -14.73538
     31       2.00000          -0.509571          -13.86614
     32       2.00000          -0.495440          -13.48162
     33       2.00000          -0.481235          -13.09508
     34       2.00000          -0.464399          -12.63694
     35       2.00000          -0.437833          -11.91405
     36       2.00000          -0.433727          -11.80232
     37       2.00000          -0.429698          -11.69269
     38       2.00000          -0.427426          -11.63086
     39       2.00000          -0.412744          -11.23132
     40       2.00000          -0.404836          -11.01615
     41       2.00000          -0.395235          -10.75489
     42       2.00000          -0.388376          -10.56826
     43       2.00000          -0.387034          -10.53174
     44       2.00000          -0.376726          -10.25125
     45       2.00000          -0.375605          -10.22072
     46       2.00000          -0.371928          -10.12068
     47       2.00000          -0.368148          -10.01782
     48       2.00000          -0.360537           -9.81072
     49       2.00000          -0.350647           -9.54160
     50       2.00000          -0.345435           -9.39977
     51       2.00000          -0.338323           -9.20623
     52       2.00000          -0.334201           -9.09408
     53       2.00000          -0.242489           -6.59846
     54       2.00000          -0.236182           -6.42685
     55       2.00000          -0.230889           -6.28281
     56       2.00000          -0.222113           -6.04401
     57       2.00000          -0.213952           -5.82193
     58       2.00000          -0.210549           -5.72934
     59       0.00000          -0.060508           -1.64652
     60       0.00000          -0.052593           -1.43113
     61       0.00000          -0.049425           -1.34492
     62       0.00000          -0.031746           -0.86385
     63       0.00000          -0.018688           -0.50853
     64       0.00000          -0.010254           -0.27902
     65       0.00000          -0.004099           -0.11154
     66       0.00000           0.008320            0.22640
     67       0.00000           0.013323            0.36255
     68       0.00000           0.016960            0.46150
     69       0.00000           0.023754            0.64639
     70       0.00000           0.027939            0.76027
     71       0.00000           0.041698            1.13466
     72       0.00000           0.044455            1.20968
     73       0.00000           0.045577            1.24021
     74       0.00000           0.050071            1.36251
     75       0.00000           0.056487            1.53709
     76       0.00000           0.057610            1.56765
     77       0.00000           0.066645            1.81349
     78       0.00000           0.071972            1.95846
     79       0.00000           0.082816            2.25354
     80       0.00000           0.091427            2.48785
     81       0.00000           0.093223            2.53672
     82       0.00000           0.096212            2.61807
     83       0.00000           0.101018            2.74885
     84       0.00000           0.103983            2.82952
     85       0.00000           0.108790            2.96032
     86       0.00000           0.115592            3.14541
     87       0.00000           0.121525            3.30687
     88       0.00000           0.129620            3.52713
     89       0.00000           0.132911            3.61668
     90       0.00000           0.139916            3.80730
     91       0.00000           0.148278            4.03484
     92       0.00000           0.151139            4.11271
     93       0.00000           0.154037            4.19155
     94       0.00000           0.157584            4.28809
     95       0.00000           0.163079            4.43759
     96       0.00000           0.172711            4.69970
     97       0.00000           0.176743            4.80941
     98       0.00000           0.180051            4.89943
     99       0.00000           0.184019            5.00742
    100       0.00000           0.191936            5.22284
    101       0.00000           0.193386            5.26229
    102       0.00000           0.195748            5.32658
    103       0.00000           0.203198            5.52931
    104       0.00000           0.204447            5.56330
    105       0.00000           0.208997            5.68709
    106       0.00000           0.213626            5.81305
    107       0.00000           0.220672            6.00478
    108       0.00000           0.224680            6.11385
    109       0.00000           0.233628            6.35734
    110       0.00000           0.238966            6.50260
    111       0.00000           0.245448            6.67897
    112       0.00000           0.245786            6.68816
    113       0.00000           0.252819            6.87955
    114       0.00000           0.258897            7.04494
    115       0.00000           0.263781            7.17785
    116       0.00000           0.268666            7.31077
    117       0.00000           0.274327            7.46483
    118       0.00000           0.282641            7.69104
    119       0.00000           0.284625            7.74503
    120       0.00000           0.290498            7.90485
    121       0.00000           0.294679            8.01861
    122       0.00000           0.297569            8.09726
    123       0.00000           0.301815            8.21281
    124       0.00000           0.311628            8.47982
    125       0.00000           0.320770            8.72861
    126       0.00000           0.328286            8.93312
    127       0.00000           0.330381            8.99012
    128       0.00000           0.343065            9.33528
    129       0.00000           0.353149            9.60967

  Highest occupied state (VBM) at     -5.72934224 eV
  | Occupation number:      2.00000000

  Lowest unoccupied state (CBM) at    -1.64651601 eV
  | Occupation number:      0.00000000

  Overall HOMO-LUMO gap:      4.08282623 eV.

  Total energy components:
  | Sum of eigenvalues            :        -417.75627486 Ha      -11367.72662243 eV
  | XC energy correction          :        -100.75138416 Ha       -2741.58465342 eV
  | XC potential correction       :         129.52798564 Ha        3524.63582067 eV
  | Free-atom electrostatic energy:        -333.63543540 Ha       -9078.68211539 eV
  | Hartree energy correction     :         -20.08866953 Ha        -546.64051054 eV
  | vdW energy correction         :           0.00000000 Ha           0.00000000 eV
  | Entropy correction            :           0.00000000 Ha           0.00000000 eV
  | ---------------------------
  | Total energy                  :        -742.70377831 Ha      -20209.99808111 eV
  | Total energy, T -> 0          :        -742.70377831 Ha      -20209.99808111 eV  <-- do not rely on this value for anything but (periodic) metals
  | Electronic free energy        :        -742.70377831 Ha      -20209.99808111 eV

  Derived energy quantities:
  | Kinetic energy                :         743.99774667 Ha       20245.20875187 eV
  | Electrostatic energy          :       -1385.95014082 Ha      -37713.62217956 eV
  | Energy correction for multipole
  | error in Hartree potential    :          -0.04292979 Ha          -1.16817914 eV
  | Sum of eigenvalues per atom                           :        -355.24145695 eV
  | Total energy (T->0) per atom                          :        -631.56244003 eV  <-- do not rely on this value for anything but (periodic) metals
  | Electronic free energy per atom                       :        -631.56244003 eV

  Self-consistency convergence accuracy:
  | Change of charge density      :  0.9024E+00
  | Change of sum of eigenvalues  :  0.5465E+03 eV
  | Change of total energy        :  0.1533E+02 eV

  End self-consistency iteration #     1       :  max(cpu_time)    wall_clock(cpu1)
  | Time for this iteration                    :        1.728 s           1.726 s
  | Charge density update                      :        0.536 s           0.535 s
[...]
   ----------------------------------------------------------------
   Total forces(  20)            : -0.208815E-02  0.318180E-02  0.412338E-04
  atom #   21
   Hellmann-Feynman              :  0.314878E-01  0.329614E-01 -0.370227E-01
   Ionic forces                  :  0.000000E+00  0.000000E+00  0.000000E+00
   Multipole                     :  0.882845E-02 -0.378433E-02  0.373921E-01
   Pulay + GGA                   : -0.496634E-01 -0.404123E-01  0.634163E-02
   Van der Waals                 :  0.789285E-02  0.104887E-01 -0.650201E-02
   ----------------------------------------------------------------
   Total forces(  21)            : -0.145431E-02 -0.746585E-03  0.209117E-03
  atom #   22
   Hellmann-Feynman              :  0.440742E-01  0.846607E-02 -0.444889E-01
   Ionic forces                  :  0.000000E+00  0.000000E+00  0.000000E+00
   Multipole                     :  0.770421E-02  0.116740E-02  0.951531E-02
   Pulay + GGA                   : -0.527979E-01 -0.133913E-01  0.404502E-01
   Van der Waals                 :  0.682496E-03  0.371899E-02 -0.460170E-02
   ----------------------------------------------------------------
   Total forces(  22)            : -0.336985E-03 -0.388464E-04  0.874868E-03
  atom #   23
   Hellmann-Feynman              :  0.231754E+00 -0.804197E+00  0.704521E-01
   Ionic forces                  :  0.000000E+00  0.000000E+00  0.000000E+00
   Multipole                     : -0.143442E+00  0.204605E+00 -0.252581E-01
   Pulay + GGA                   : -0.105008E+00  0.590142E+00 -0.221498E-01
   Van der Waals                 :  0.179256E-01  0.871445E-02 -0.224781E-01
   ----------------------------------------------------------------
   Total forces(  23)            :  0.122975E-02 -0.735160E-03  0.566103E-03
  atom #   24
   Hellmann-Feynman              : -0.382684E-01  0.195475E-01 -0.222147E-01
   Ionic forces                  :  0.000000E+00  0.000000E+00  0.000000E+00
   Multipole                     :  0.198758E-01 -0.137082E-01 -0.281677E-01
   Pulay + GGA                   :  0.173048E-01  0.490580E-02  0.526568E-01
   Van der Waals                 :  0.165608E-02 -0.111650E-01 -0.248071E-02
   ----------------------------------------------------------------
   Total forces(  24)            :  0.568274E-03 -0.419941E-03 -0.206299E-03
  atom #   25
   Hellmann-Feynman              : -0.110297E-01  0.448016E-02  0.863548E-03
   Ionic forces                  :  0.000000E+00  0.000000E+00  0.000000E+00
   Multipole                     : -0.247092E-01 -0.123921E-02  0.149000E-01
   Pulay + GGA                   :  0.424434E-01  0.683160E-02 -0.147720E-01
   Van der Waals                 : -0.644957E-02 -0.990146E-02 -0.205853E-02
   ----------------------------------------------------------------
   Total forces(  25)            :  0.254959E-03  0.171095E-03 -0.106698E-02
  atom #   26
   Hellmann-Feynman              : -0.694890E-02  0.483997E-01  0.400020E-04
   Ionic forces                  :  0.000000E+00  0.000000E+00  0.000000E+00
   Multipole                     :  0.344383E-01 -0.277244E-02  0.159900E-01
   Pulay + GGA                   : -0.397059E-01 -0.464946E-01 -0.144058E-01
   Van der Waals                 :  0.119054E-01  0.635029E-03 -0.243990E-02
   ----------------------------------------------------------------
   Total forces(  26)            : -0.311155E-03 -0.232399E-03 -0.815740E-03
  atom #   27
   Hellmann-Feynman              : -0.166759E+01 -0.946092E+00  0.140730E+01
   Ionic forces                  :  0.000000E+00  0.000000E+00  0.000000E+00
   Multipole                     : -0.257804E+00  0.522158E-01 -0.107604E+00
   Pulay + GGA                   :  0.192478E+01  0.888100E+00 -0.129125E+01
   Van der Waals                 :  0.179557E-02  0.821622E-02 -0.103052E-01
   ----------------------------------------------------------------
   Total forces(  27)            :  0.118036E-02  0.244007E-02 -0.186151E-02
  atom #   28
   Hellmann-Feynman              :  0.989515E+00  0.212623E+01  0.654644E+00
   Ionic forces                  :  0.000000E+00  0.000000E+00  0.000000E+00
   Multipole                     : -0.961908E-01 -0.184061E+00 -0.395419E-02
   Pulay + GGA                   : -0.892573E+00 -0.192630E+01 -0.638632E+00
   Van der Waals                 : -0.213094E-02 -0.172272E-01 -0.122443E-01
   ----------------------------------------------------------------
   Total forces(  28)            : -0.137983E-02 -0.135994E-02 -0.186334E-03
  atom #   29
   Hellmann-Feynman              :  0.229380E-02  0.401325E-01 -0.248585E-01
   Ionic forces                  :  0.000000E+00  0.000000E+00  0.000000E+00
   Multipole                     : -0.241540E-02  0.221429E-01  0.223929E-01
   Pulay + GGA                   :  0.701568E-02 -0.623682E-01  0.151780E-01
   Van der Waals                 : -0.694025E-02 -0.559187E-03 -0.126226E-01
   ----------------------------------------------------------------
   Total forces(  29)            : -0.461738E-04 -0.652046E-03  0.898116E-04
  atom #   30
   Hellmann-Feynman              : -0.312308E-01 -0.274573E-01 -0.365938E-01
   Ionic forces                  :  0.000000E+00  0.000000E+00  0.000000E+00
   Multipole                     :  0.117788E-01  0.252673E-01 -0.255054E-01
   Pulay + GGA                   :  0.230366E-01  0.758209E-03  0.650305E-01
   Van der Waals                 : -0.338268E-02  0.134803E-02 -0.266198E-02
   ----------------------------------------------------------------
   Total forces(  30)            :  0.201895E-03 -0.837819E-04  0.269310E-03
  atom #   31
   Hellmann-Feynman              : -0.362088E-01 -0.529057E-01 -0.170268E-01
   Ionic forces                  :  0.000000E+00  0.000000E+00  0.000000E+00
   Multipole                     :  0.475890E-01  0.153374E-02  0.204370E-01
   Pulay + GGA                   : -0.146410E-01  0.562059E-01  0.920364E-03
   Van der Waals                 :  0.225029E-02 -0.435603E-02 -0.413464E-02
   ----------------------------------------------------------------
   Total forces(  31)            : -0.101050E-02  0.477920E-03  0.195874E-03
  atom #   32
   Hellmann-Feynman              : -0.333503E-01 -0.375251E-01  0.186680E-01
   Ionic forces                  :  0.000000E+00  0.000000E+00  0.000000E+00
   Multipole                     : -0.168068E-01  0.148926E-01  0.221294E-01
   Pulay + GGA                   :  0.504913E-01  0.246271E-01 -0.354417E-01
   Van der Waals                 : -0.137322E-03 -0.578744E-03 -0.544982E-02
   ----------------------------------------------------------------
   Total forces(  32)            :  0.196827E-03  0.141588E-02 -0.940641E-04

  Timings for VdW correction (Tkatchenko-Scheffler 2009 or later):
  | CPU time:        0.136 s, Wall clock time:        0.133 s.
  Removing unitary transformations (pure translations, rotations) from forces on atoms.
  Atomic forces before filtering:
  | Net force on center of mass :  -0.393696E-03 -0.127090E-03  0.602282E-03 eV/A
  | Net torque on center of mass:   0.927476E-03  0.199246E-03 -0.249363E-02 eV
  Atomic forces after filtering:
  | Net force on center of mass :  -0.196003E-18  0.348449E-18  0.217781E-19 eV/A
  | Net torque on center of mass:   0.110635E-17 -0.101415E-17  0.147513E-17 eV

  Energy and forces in a compact form:
  | Total energy uncorrected      :         -0.202084771204864E+05 eV
  | Total energy corrected        :         -0.202084771204864E+05 eV  <-- do not rely on this value for anything but (periodic) metals
  | Electronic free energy        :         -0.202084771204864E+05 eV
  Total atomic forces (unitary forces cleaned) [eV/Ang]:
  |   1         -0.843385246853137E-03         -0.107488178833088E-02          0.120901922030161E-03
  |   2         -0.134934365970387E-02          0.492469309821480E-03         -0.232973303097474E-02
  |   3          0.163121445220003E-02         -0.180674534742426E-02          0.225195002976496E-02
  |   4          0.399007413864194E-04         -0.662163338398439E-03         -0.148195507790792E-03
  |   5          0.570091307462194E-03          0.277130112698207E-03         -0.214735021725489E-03
  |   6         -0.467114597406376E-03         -0.340937926306536E-04         -0.470702490238069E-03
  |   7          0.120594199120089E-02          0.130855856858090E-03          0.386929586360359E-03
  |   8         -0.225910067703483E-03          0.302676932008781E-03         -0.100976859437989E-02
  |   9          0.120190173886250E-02          0.674323172056871E-06          0.219299273077251E-02
  |  10         -0.649047080884911E-03         -0.945245180698590E-03         -0.198235486201543E-02
  |  11          0.854807884398272E-03          0.225923139067785E-03          0.164069045424615E-02
  |  12         -0.205756812644776E-03          0.427453795297469E-03          0.973429816826801E-03
  |  13          0.750476633286892E-03          0.919681221774932E-03         -0.419175217045538E-03
  |  14          0.549035128819635E-04         -0.642488417002573E-03          0.250671534178277E-03
  |  15          0.343590736608746E-03         -0.189981055417182E-03          0.346286267587067E-03
  |  16         -0.413754727319387E-03         -0.490837583333994E-03          0.437645280838849E-03
  |  17         -0.198135566748164E-02          0.741145178754712E-03          0.124456258911069E-02
  |  18          0.444931658559874E-03          0.245932545091835E-02         -0.170659292303422E-02
  |  19          0.189171868471996E-02         -0.366364133355460E-02          0.668045316840356E-03
  |  20         -0.211143820960035E-02          0.316774287478382E-02          0.144610851275212E-04
  |  21         -0.142093769753779E-02         -0.795561311813176E-03          0.194465048261103E-03
  |  22         -0.315637411504499E-03         -0.712244008460446E-04          0.857722000535650E-03
  |  23          0.127580129372186E-02         -0.737361010404451E-03          0.554624636580224E-03
  |  24          0.615783032330078E-03         -0.415115135582189E-03         -0.217398543791942E-03
  |  25          0.302363228172460E-03          0.185254319610583E-03         -0.107802118945160E-02
  |  26         -0.248759689118016E-03         -0.246942903668178E-03         -0.823740910632924E-03
  |  27          0.117930250179668E-02          0.246054008246926E-02         -0.188311508612222E-02
  |  28         -0.140265270436208E-02         -0.132342856453511E-02         -0.212577277560605E-03
  |  29         -0.303308144827330E-04         -0.622777800261484E-03          0.719794718318534E-04
  |  30          0.180396675424601E-03         -0.382948734223569E-04          0.243432531715437E-03
  |  31         -0.104999399819802E-02          0.502255644382868E-03          0.165874464321541E-03
  |  32          0.172292311787646E-03          0.146765559570577E-02         -0.120554112166053E-03

  ------------------------------------ 
  Start decomposition of the XC Energy 
  ------------------------------------ 
  Hartree-Fock part   :          0.000000000 Ha              0.000000000 eV
  ------------------------------------ 
  X Energy            :        -96.983112323 Ha          -2639.044759441 eV
  C Energy GGA        :         -3.874224375 Ha           -105.423009100 eV
  Total XC Energy     :       -100.857336698 Ha          -2744.467768541 eV
  LDA X and C from self-consistent density 
  X Energy LDA        :        -88.009084467 Ha          -2394.849036932 eV
  C Energy LDA        :         -7.533423901 Ha           -204.994894368 eV
  ------------------------------------ 
  End decomposition of the XC Energy 
  ------------------------------------ 
   
  ESP charge fitting starts.
  | Calculation :  00000001  of  00000001
  | Full density
  Computing multipole expansion for total density.
  Generating points for esp charges.
  Partitioning the integration grid into batches with parallel hashing+maxmin method.
  | Number of batches:     3952
  | Maximal batch size:     200
  | Minimal batch size:      50
  | Average batch size:     123.114
  | Standard deviation of batch sizes:      16.055

  Integration load balanced across    32 MPI tasks.
  Work distribution over tasks is as follows:
  Initializing partition tables, free-atom densities, potentials, etc. across the integration grid (initialize_grid_storage).
  | Original list of interatomic distances with          32 x         32 entries is created.
  | Net number of integration points:   486548
  | of which are non-zero points    :   486548
  Summing up potential from multipole expanded  density.
  Summing up the Hartree potential.
  Time summed over all CPUs for potential: real work        6.415 s, elapsed        6.699 s
  Fitting esp charges to potential.
  |
  | ESP charges fitted to the electrostatic potential :
  |
  | Atom         1: C, ESP charge:      0.57343358
  |
  | Atom         2: C, ESP charge:     -0.60034190
  |
  | Atom         3: O, ESP charge:      0.55420312
  |
  | Atom         4: H, ESP charge:     -0.17478152
  |
  | Atom         5: H, ESP charge:     -0.17234107
  |
  | Atom         6: H, ESP charge:     -0.16115880
  |
  | Atom         7: N, ESP charge:      0.49191014
  |
  | Atom         8: C, ESP charge:     -0.66887817
  |
  | Atom         9: C, ESP charge:     -0.35135765
  |
  | Atom        10: O, ESP charge:      0.52231619
  |
  | Atom        11: H, ESP charge:     -0.24228768
  |
  | Atom        12: H, ESP charge:      0.05901970
  |
  | Atom        13: C, ESP charge:      0.42774167
  |
  | Atom        14: H, ESP charge:     -0.09917778
  |
  | Atom        15: H, ESP charge:     -0.07427563
  |
  | Atom        16: H, ESP charge:     -0.11246577
  |
  | Atom        17: N, ESP charge:      0.48418429
  |
  | Atom        18: C, ESP charge:      0.21159371
  |
  | Atom        19: C, ESP charge:     -0.40002612
  |
  | Atom        20: O, ESP charge:      0.45812819
  |
  | Atom        21: H, ESP charge:     -0.35120408
  |
  | Atom        22: H, ESP charge:     -0.19374727
  |
  | Atom        23: C, ESP charge:      0.18098489
  |
  | Atom        24: H, ESP charge:     -0.04009225
  |
  | Atom        25: H, ESP charge:     -0.05260231
  |
  | Atom        26: H, ESP charge:     -0.11569302
  |
  | Atom        27: N, ESP charge:      0.25061539
  |
  | Atom        28: C, ESP charge:      0.33482068
  |
  | Atom        29: H, ESP charge:     -0.32178693
  |
  | Atom        30: H, ESP charge:     -0.13036613
  |
  | Atom        31: H, ESP charge:     -0.16330747
  |
  | Atom        32: H, ESP charge:     -0.12306001

  RRMS:       0.00705743

  Done.

------------------------------------------------------------------------------
  Final output of selected total energy values:

  The following output summarizes some interesting total energy values
  at the end of a run (AFTER all relaxation, molecular dynamics, etc.).

  | Total energy of the DFT / Hartree-Fock s.c.f. calculation      :         -20208.477120486 eV
  | Final zero-broadening corrected energy (caution - metals only) :         -20208.477120486 eV
  | For reference only, the value of 1 Hartree used in FHI-aims is :             27.211384500 eV

  Before relying on these values, please be sure to understand exactly which
  total energy value is referred to by a given number. Different objects may
  all carry the same name 'total energy'. Definitions:

  Total energy of the DFT / Hartree-Fock s.c.f. calculation:
  | Note that this energy does not include ANY quantities calculated after the
  | s.c.f. cycle, in particular not ANY RPA, MP2, etc. many-body perturbation terms.

  Final zero-broadening corrected energy:
  | For metallic systems only, a broadening of the occupation numbers at the Fermi
  | level can be extrapolated back to zero broadening by an electron-gas inspired
  | formula. For all systems that are not real metals, this value can be
  | meaningless and should be avoided.

------------------------------------------------------------------------------
  Methods described in the following list of references were used in this FHI-aims run.
  If you publish the results, please make sure to cite these reference if they apply.
  FHI-aims is an academic code, and for our developers (often, Ph.D. students
  and postdocs), scientific credit in the community is essential.
  Thank you for helping us!

  For any use of FHI-aims, please cite:

    Volker Blum, Ralf Gehrke, Felix Hanke, Paula Havu, Ville Havu,
    Xinguo Ren, Karsten Reuter, and Matthias Scheffler
    'Ab initio molecular simulations with numeric atom-centered orbitals'
    Computer Physics Communications 180, 2175-2196 (2009)
    http://dx.doi.org/10.1016/j.cpc.2009.06.022


  The scalable eigensolver library ELPA was used in your run.
  ELPA is essential especially for large systems on hundreds or thousands of CPUs.
  For ELPA, please cite:

    Andreas Marek, Volker Blum, Rainer Johanni, Ville Havu, Bruno Lang,
    Thomas Auckenthaler, Alexander Heinecke, Hans-Joachim Bungartz, and Hermann Lederer,
    'The ELPA Library - Scalable Parallel Eigenvalue Solutions
    for Electronic Structure Theory and Computational Science'
    The Journal of Physics: Condensed Matter 26, 213201 (2014).
    http://dx.doi.org/10.1088/0953-8984/26/21/213201


  For ELPA's efficient two-stage tridiagonalization used in your run, please cite:

    T. Auckenthaler, V. Blum, H.-J. Bungartz, T. Huckle, R. Johanni, L. Kraemer,
    B. Lang, H. Lederer, and P. R. Willems,
    'Parallel solution of partial symmetric eigenvalue problems'
    'from  electronic structure calculations'
    Parallel Computing 37, 783-794 (2011).
    http://dx.doi.org/10.1016/j.parco.2011.05.002


  For the real-space grid partitioning and parallelization used in this calculation, please cite:

    Ville Havu, Volker Blum, Paula Havu, and Matthias Scheffler,
    'Efficient O(N) integration for all-electron electronic structure calculation'
    'using numerically tabulated basis functions'
    Journal of Computational Physics 228, 8367-8379 (2009).
    http://dx.doi.org/10.1016/j.jcp.2009.08.008

  Of course, there are many other important community references, e.g., those cited in the
  above references. Our list is limited to references that describe implementations in the
  FHI-aims code. The reason is purely practical (length of this list) - please credit others as well.

------------------------------------------------------------
          Leaving FHI-aims.
          Date     :  20170309, Time     :  184129.134

          Computational steps:
          | Number of self-consistency cycles          :           14

          Detailed time accounting                     :  max(cpu_time)    wall_clock(cpu1)
          | Total time                                 :       33.370 s          33.557 s
          | Preparation time                           :        0.232 s           0.233 s
          | Grid partitioning                          :        0.264 s           0.258 s
          | Preloading free-atom quantities on grid    :        0.028 s           0.028 s
          | Free-atom superposition energy             :        0.044 s           0.041 s
          | Total time for integrations                :       13.073 s          13.044 s
          | Total time for solution of K.-S. equations :        0.528 s           0.496 s
          | Total time for density & force components  :       10.609 s          10.580 s
          | Total time for mixing                      :        0.124 s           0.103 s
          | Total time for Hartree multipole update    :        0.080 s           0.058 s
          | Total time for Hartree multipole sum       :        6.308 s           6.279 s
          | Total time for total energy evaluation     :        0.016 s           0.024 s
          | Total time for vdW correction              :        0.136 s           0.133 s

          Have a nice day.
------------------------------------------------------------
