  MPI-parallelism will be employed.
------------------------------------------------------------
          Invoking FHI-aims ...
          Version 150427
          Git rev.: 9dd23e0 BL: Update Version stamp
          Compiled on 2015/11/03 at 22:05:20 on host eos03.

          When using FHI-aims, please cite the following reference:

          Volker Blum, Ralf Gehrke, Felix Hanke, Paula Havu,
          Ville Havu, Xinguo Ren, Karsten Reuter, and Matthias Scheffler,
          'Ab Initio Molecular Simulations with Numeric Atom-Centered Orbitals: FHI-aims',
          Computer Physics Communications 180, 2175-2196 (2009)

          For any questions about FHI-aims, please visit the aimsclub website
          with its forums and wiki. Contributions to both the forums and the
          wiki are warmly encouraged - they are for you, and everyone is welcome there.

------------------------------------------------------------

  Date     :  20170309, Time     :  183110.475
  Time zero on CPU 1             :   0.424026000000000E+00  s.
  Internal wall clock time zero  :           258316270.475  s.

  Using       32 parallel tasks.
  Task        0 on host eos366 reporting.
  Task        1 on host eos366 reporting.
  Task        2 on host eos366 reporting.
  Task        3 on host eos366 reporting.
  Task        4 on host eos366 reporting.
  Task        5 on host eos366 reporting.
  Task        6 on host eos366 reporting.
  Task        7 on host eos366 reporting.
  Task        8 on host eos366 reporting.
  Task        9 on host eos366 reporting.
  Task       10 on host eos366 reporting.
  Task       11 on host eos366 reporting.
  Task       12 on host eos366 reporting.
  Task       13 on host eos366 reporting.
  Task       14 on host eos366 reporting.
  Task       15 on host eos366 reporting.
  Task       16 on host eos366 reporting.
  Task       17 on host eos366 reporting.
  Task       18 on host eos366 reporting.
  Task       19 on host eos366 reporting.
  Task       20 on host eos366 reporting.
  Task       21 on host eos366 reporting.
  Task       22 on host eos366 reporting.
  Task       23 on host eos366 reporting.
  Task       24 on host eos366 reporting.
  Task       25 on host eos366 reporting.
  Task       26 on host eos366 reporting.
  Task       27 on host eos366 reporting.
  Task       28 on host eos366 reporting.
  Task       29 on host eos366 reporting.
  Task       30 on host eos366 reporting.
  Task       31 on host eos366 reporting.

  Performing system and environment tests:
  | Environment variable OMP_NUM_THREADS correctly set to 1.
  | Stacksize not measured: no C compiler
  | Checking for scalapack...
  | Testing pdtran()...
  | All pdtran() tests passed.

  Obtaining array dimensions for all initial allocations:
  
  -----------------------------------------------------------------------
  Parsing control.in (first pass over file, find array dimensions only).
  The contents of control.in will be repeated verbatim below
  unless switched off by setting 'verbatim_writeout .false.' .
  in the first line of control.in .
  -----------------------------------------------------------------------
  
  #########################################################################################
  #
  # Input for System
  #
  #########################################################################################
  #
  #
  #  Physical model
  #
    xc                 pbe
    vdw_correction_hirshfeld
    spin               none
    charge             0.
  #
  #  SCF convergence
  #
    occupation_type    gaussian 0.05
    mixer              pulay
      n_max_pulay        10
      charge_mix_param   0.5
    sc_accuracy_rho    1E-4
    sc_accuracy_eev    1E-2
    sc_accuracy_etot   1E-5
    sc_accuracy_forces 1E-4
    sc_iter_limit      1000
  #
  #  ESP charge
  #
    output esp
    esp equal_grid_n 80 80 80
  #
  #
  ################################################################################
  #
  #  FHI-aims code project
  # Volker Blum, Fritz Haber Institute Berlin, 2009
  #
  #  Suggested "tight" defaults for H atom (to be pasted into control.in file)
  #
  ################################################################################
    species        H
  #     global species definitions
      nucleus             1
      mass                1.00794
  #
      l_hartree           6
  #
      cut_pot             4.0  2.0  1.0
      basis_dep_cutoff    1e-4
  #
      radial_base         24 7.0
      radial_multiplier   2
      angular_grids       specified
        division   0.1930   50
        division   0.3175  110
        division   0.4293  194
        division   0.5066  302
        division   0.5626  434
  #      division   0.5922  590
  #      division   0.6227  974
  #      division   0.6868 1202
  #      outer_grid  770
        outer_grid  434
  ################################################################################
  #
  #  Definition of "minimal" basis
  #
  ################################################################################
  #     valence basis states
      valence      1  s   1.
  #     ion occupancy
      ion_occ      1  s   0.5
  ################################################################################
  #
  #  Suggested additional basis functions. For production calculations,
  #  uncomment them one after another (the most important basis functions are
  #  listed first).
  #
  #  Basis constructed for dimers: 0.5 A, 0.7 A, 1.0 A, 1.5 A, 2.5 A
  #
  ################################################################################
  #  "First tier" - improvements: -1014.90 meV to -62.69 meV
       hydro 2 s 2.1
       hydro 2 p 3.5
  #  "Second tier" - improvements: -12.89 meV to -1.83 meV
       hydro 1 s 0.85
       hydro 2 p 3.7
       hydro 2 s 1.2
       hydro 3 d 7
  #  "Third tier" - improvements: -0.25 meV to -0.12 meV
  #     hydro 4 f 11.2
  #     hydro 3 p 4.8
  #     hydro 4 d 9
  #     hydro 3 s 3.2
  ################################################################################
  #
  # For methods that use the localized form of the "resolution of identity" for
  # the two-electron Coulomb operator (RI_method LVL), particularly Hartree-Fock and
  # hybrid density functional calculations, the highest accuracy can be obtained by
  # uncommenting the line beginning with "for_aux"  below, thus adding an extra g radial
  # function to the construction of the product basis set for the expansion.
  # See Ref. New J. Phys. 17, 093020 (2015) for more information, particularly Figs. 1 and 6.
  #
  ################################################################################
  #
  # for_aux hydro 5 g 6.0
  ################################################################################
  #
  #  FHI-aims code project
  # Volker Blum, Fritz Haber Institute Berlin, 2009
  #
  #  Suggested "tight" defaults for C atom (to be pasted into control.in file)
  #
  ################################################################################
    species        C
  #     global species definitions
      nucleus             6
      mass                12.0107
  #
      l_hartree           6
  #
      cut_pot             4.0  2.0  1.0
      basis_dep_cutoff    1e-4
  #
      radial_base         34 7.0
      radial_multiplier   2
      angular_grids specified
        division   0.2187   50
        division   0.4416  110
        division   0.6335  194
        division   0.7727  302
        division   0.8772  434
  #      division   0.9334  590
  #      division   0.9924  770
  #      division   1.0230  974
  #      division   1.5020 1202
  #     outer_grid  974
        outer_grid  434
  ################################################################################
  #
  #  Definition of "minimal" basis
  #
  ################################################################################
  #     valence basis states
      valence      2  s   2.
      valence      2  p   2.
  #     ion occupancy
      ion_occ      2  s   1.
      ion_occ      2  p   1.
  ################################################################################
  #
  #  Suggested additional basis functions. For production calculations,
  #  uncomment them one after another (the most important basis functions are
  #  listed first).
  #
  #  Constructed for dimers: 1.0 A, 1.25 A, 1.5 A, 2.0 A, 3.0 A
  #
  ################################################################################
  #  "First tier" - improvements: -1214.57 meV to -155.61 meV
       hydro 2 p 1.7
       hydro 3 d 6
       hydro 2 s 4.9
  #  "Second tier" - improvements: -67.75 meV to -5.23 meV
       hydro 4 f 9.8
       hydro 3 p 5.2
       hydro 3 s 4.3
       hydro 5 g 14.4
       hydro 3 d 6.2
  #  "Third tier" - improvements: -2.43 meV to -0.60 meV
  #     hydro 2 p 5.6
  #     hydro 2 s 1.4
  #     hydro 3 d 4.9
  #     hydro 4 f 11.2
  #  "Fourth tier" - improvements: -0.39 meV to -0.18 meV
  #     hydro 2 p 2.1
  #     hydro 5 g 16.4
  #     hydro 4 d 13.2
  #     hydro 3 s 13.6
  #     hydro 4 f 17.6
  #  Further basis functions - improvements: -0.08 meV and below
  #     hydro 3 s 2
  #     hydro 3 p 6
  #     hydro 4 d 20
  ################################################################################
  #
  # For methods that use the localized form of the "resolution of identity" for
  # the two-electron Coulomb operator (RI_method LVL), particularly Hartree-Fock and
  # hybrid density functional calculations, the highest accuracy can be obtained by
  # uncommenting the line beginning with "for_aux"  below, thus adding an extra g radial
  # function to the construction of the product basis set for the expansion.
  # See Ref. New J. Phys. 17, 093020 (2015) for more information, particularly Figs. 1 and 6.
  #
  ################################################################################
  #
  # for_aux hydro 5 g 6.0
  ################################################################################
  #
  #  FHI-aims code project
  # Volker Blum, Fritz Haber Institute Berlin, 2009
  #
  #  Suggested "tight" defaults for N atom (to be pasted into control.in file)
  #
  ################################################################################
    species        N
  #     global species definitions
      nucleus             7
      mass                14.0067
  #
      l_hartree           6
  #
      cut_pot             4.0  2.0  1.0
      basis_dep_cutoff    1e-4
  #
      radial_base         35 7.0
      radial_multiplier   2
      angular_grids       specified
        division   0.1841   50
        division   0.3514  110
        division   0.5126  194
        division   0.6292  302
        division   0.6939  434
  #      division   0.7396  590
  #      division   0.7632  770
  #      division   0.8122  974
  #      division   1.1604 1202
  #      outer_grid  974
        outer_grid  434
  ################################################################################
  #
  #  Definition of "minimal" basis
  #
  ################################################################################
  #     valence basis states
      valence      2  s   2.
      valence      2  p   3.
  #     ion occupancy
      ion_occ      2  s   1.
      ion_occ      2  p   2.
  ################################################################################
  #
  #  Suggested additional basis functions. For production calculations,
  #  uncomment them one after another (the most important basis functions are
  #  listed first).
  #
  #  Constructed for dimers: 1.0 A, 1.1 A, 1.5 A, 2.0 A, 3.0 A
  #
  ################################################################################
  #  "First tier" - improvements: -1193.42 meV to -220.60 meV
       hydro 2 p 1.8
       hydro 3 d 6.8
       hydro 3 s 5.8
  #  "Second tier" - improvements: -80.21 meV to -6.86 meV
       hydro 4 f 10.8
       hydro 3 p 5.8
       hydro 1 s 0.8
       hydro 5 g 16
       hydro 3 d 4.9
  #  "Third tier" - improvements: -4.29 meV to -0.53 meV
  #     hydro 3 s 16
  #     ionic 2 p auto
  #     hydro 3 d 6.6
  #     hydro 4 f 11.6
  #  "Fourth tier" - improvements: -0.75 meV to -0.25 meV
  #     hydro 2 p 4.5
  #     hydro 2 s 2.4
  #     hydro 5 g 14.4
  #     hydro 4 d 14.4
  #     hydro 4 f 16.8
  # Further basis functions - -0.21 meV and below
  #     hydro 3 p 14.8
  #     hydro 3 s 4.4
  #     hydro 3 d 19.6
  #     hydro 5 g 12.8
  ################################################################################
  #
  # For methods that use the localized form of the "resolution of identity" for
  # the two-electron Coulomb operator (RI_method LVL), particularly Hartree-Fock and
  # hybrid density functional calculations, the highest accuracy can be obtained by
  # uncommenting the line beginning with "for_aux"  below, thus adding an extra g radial
  # function to the construction of the product basis set for the expansion.
  # See Ref. New J. Phys. 17, 093020 (2015) for more information, particularly Figs. 1 and 6.
  #
  ################################################################################
  #
  # for_aux hydro 5 g 6.0
  ################################################################################
  #
  #  FHI-aims code project
  # Volker Blum, Fritz Haber Institute Berlin, 2009
  #
  #  Suggested "tight" defaults for O atom (to be pasted into control.in file)
  #
  ################################################################################
    species        O
  #     global species definitions
      nucleus             8
      mass                15.9994
  #
      l_hartree           6
  #
      cut_pot             4.0  2.0  1.0
      basis_dep_cutoff    1e-4
  #
      radial_base         36 7.0
      radial_multiplier   2
       angular_grids specified
        division   0.1817   50
        division   0.3417  110
        division   0.4949  194
        division   0.6251  302
        division   0.8014  434
  #      division   0.8507  590
  #      division   0.8762  770
  #      division   0.9023  974
  #      division   1.2339 1202
  #      outer_grid 974
        outer_grid  434
  ################################################################################
  #
  #  Definition of "minimal" basis
  #
  ################################################################################
  #     valence basis states
      valence      2  s   2.
      valence      2  p   4.
  #     ion occupancy
      ion_occ      2  s   1.
      ion_occ      2  p   3.
  ################################################################################
  #
  #  Suggested additional basis functions. For production calculations,
  #  uncomment them one after another (the most important basis functions are
  #  listed first).
  #
  #  Constructed for dimers: 1.0 A, 1.208 A, 1.5 A, 2.0 A, 3.0 A
  #
  ################################################################################
  #  "First tier" - improvements: -699.05 meV to -159.38 meV
       hydro 2 p 1.8
       hydro 3 d 7.6
       hydro 3 s 6.4
  #  "Second tier" - improvements: -49.91 meV to -5.39 meV
       hydro 4 f 11.6
       hydro 3 p 6.2
       hydro 3 d 5.6
       hydro 5 g 17.6
       hydro 1 s 0.75
  #  "Third tier" - improvements: -2.83 meV to -0.50 meV
  #     ionic 2 p auto
  #     hydro 4 f 10.8
  #     hydro 4 d 4.7
  #     hydro 2 s 6.8
  #  "Fourth tier" - improvements: -0.40 meV to -0.12 meV
  #     hydro 3 p 5
  #     hydro 3 s 3.3
  #     hydro 5 g 15.6
  #     hydro 4 f 17.6
  #     hydro 4 d 14
  # Further basis functions - -0.08 meV and below
  #     hydro 3 s 2.1
  #     hydro 4 d 11.6
  #     hydro 3 p 16
  #     hydro 2 s 17.2
  ################################################################################
  #
  # For methods that use the localized form of the "resolution of identity" for
  # the two-electron Coulomb operator (RI_method LVL), particularly Hartree-Fock and
  # hybrid density functional calculations, the highest accuracy can be obtained by
  # uncommenting the line beginning with "for_aux"  below, thus adding an extra g radial
  # function to the construction of the product basis set for the expansion.
  # See Ref. New J. Phys. 17, 093020 (2015) for more information, particularly Figs. 1 and 6.
  #
  ################################################################################
  #
  # for_aux hydro 5 g 6.0
  
  -----------------------------------------------------------------------
  Completed first pass over input file control.in .
  -----------------------------------------------------------------------
  
  
  -----------------------------------------------------------------------
  Parsing geometry.in (first pass over file, find array dimensions only).
  The contents of geometry.in will be repeated verbatim below
  unless switched off by setting 'verbatim_writeout .false.' .
  in the first line of geometry.in .
  -----------------------------------------------------------------------
  
  #
  # This is the geometry file that corresponds to the current relaxation step.
  # If you do not want this file to be written, set the "write_restart_geometry" flag to .false.
  #
  atom       0.08131630      0.19324026      1.04423472 C
  atom      -0.66502983     -0.75552250      1.96187066 C
  atom      -0.34091499     -1.94321947      2.03360574 O
  atom       0.39822213      1.10685460      1.56423422 H
  atom      -0.53634845      0.49077754      0.18672658 H
  atom       0.96216475     -0.33764906      0.67311102 H
  atom      -1.71572080     -0.29439836      2.71952455 N
  atom      -2.29543103      1.03468158      2.92158116 C
  atom      -3.67571139      0.95517082      3.61368642 C
  atom      -3.94948843      1.81590276      4.44639378 O
  atom      -1.98195943     -0.97532252      3.43312591 H
  atom      -1.69663774      1.60019525      3.65389311 H
  atom      -2.45786195      1.91711189      1.67246698 C
  atom      -3.05956627      2.79117550      1.95016761 H
  atom      -2.96784965      1.39035132      0.85785223 H
  atom      -1.49651656      2.28577069      1.30230022 H
  atom      -4.63907117      0.03586070      3.25770619 N
  atom      -4.65967183     -1.19670409      2.46912377 C
  atom      -3.78384462     -2.30739322      3.12060053 C
  atom      -3.46962814     -2.24689305      4.31027971 O
  atom      -5.43622341      0.15219177      3.87675315 H
  atom      -5.69080935     -1.56426204      2.59639693 H
  atom      -4.45276997     -0.98860498      0.96259716 C
  atom      -4.82026046     -1.85358478      0.39252180 H
  atom      -3.39858332     -0.82706486      0.71039187 H
  atom      -5.03172680     -0.11932595      0.62822459 H
  atom      -3.44465095     -3.34644174      2.31927271 N
  atom      -2.56021633     -4.40723370      2.78456826 C
  atom      -3.57464254     -3.24645000      1.32054305 H
  atom      -2.71451555     -5.30019141      2.16833650 H
  atom      -2.80386428     -4.63802753      3.82662471 H
  atom      -1.50928895     -4.08956243      2.72720220 H
  
  -----------------------------------------------------------------------
  Completed first pass over input file geometry.in .
  -----------------------------------------------------------------------
  

  Basic array size parameters:
  | Number of species                 :        4
  | Number of atoms                   :       32
  | Max. basis fn. angular momentum   :        4
  | Max. atomic/ionic basis occupied n:        2
  | Max. number of basis fn. types    :        2
  | Max. radial fns per species/type  :        8
  | Max. logarithmic grid size        :     1301
  | Max. radial integration grid size :       73
  | Max. angular integration grid size:      434
  | Max. angular grid division number :        8
  | Radial grid for Hartree potential :     1301
  | Number of spin channels           :        1

------------------------------------------------------------
          Reading file control.in.
------------------------------------------------------------
  XC: Using PBE gradient-corrected functionals.
  Spin treatment: No spin polarisation.
  Charge =   0.000000E+00: Neutral system requested explicitly.
  Occupation type: Gaussian broadening, width =   0.500000E-01 eV.
  Using pulay charge density mixing.
  Pulay mixing - number of memorized iterations:   10
  Charge density mixing - mixing parameter:     0.5000
  Convergence accuracy of self-consistent charge density:  0.1000E-03
  Convergence accuracy of sum of eigenvalues:  0.1000E-01
  Convergence accuracy of total energy:  0.1000E-04
  Convergence accuracy of forces:  0.1000E-03
  Maximum number of s.-c. iterations  :  1000
  Fitting ESP-charges to Potential. 
  | Esp charge output options: 
  | ESP Grid method: 3, cubic grid
  | Number of points in x, ,y, z:  0080 0080 0080
  |
 
  Reading configuration options for species H                   .
  | Found nuclear charge :   1.0000
  | Found atomic mass :    1.00794000000000      amu
  | Found l_max for Hartree potential  :   6
  | Found cutoff potl. onset [A], width [A], scale factor :    4.00000    2.00000    1.00000
  | Threshold for basis-dependent cutoff potential is   0.100000E-03
  | Found data for basic radial integration grid :    24 points, outermost radius =    7.000 A
  | Found multiplier for basic radial grid :   2
  | Found angular grid specification: user-specified.
  | Specified grid contains     6 separate shells.
  | Check grid settings after all constraints further below.
  | Found free-atom valence shell :  1 s   1.000
  | No ionic wave fns used. Skipping ion_occ.
  | Found hydrogenic basis function :  2 s   2.100
  | Found hydrogenic basis function :  2 p   3.500
  | Found hydrogenic basis function :  1 s   0.850
  | Found hydrogenic basis function :  2 p   3.700
  | Found hydrogenic basis function :  2 s   1.200
  | Found hydrogenic basis function :  3 d   7.000
  Species H                   : Missing cutoff potential type.
  Defaulting to exp(1/x)/(1-x)^2 type cutoff potential.
  Species H : No 'logarithmic' tag. Using default grid for free atom:
  | Default logarithmic grid data [bohr] : 0.1000E-03 0.1000E+03 0.1012E+01
  Species H : On-site basis accuracy parameter (for Gram-Schmidt orthonormalisation) not specified.
  Using default value basis_acc =  0.1000000E-03.
  Species H                   : Using default innermost maximum threshold i_radial=  2 for radial functions.
  Species H                   : Default cutoff onset for free atom density etc. : 0.40000000E+01 AA.
  Species H                   : Basic radial grid will be enhanced according to radial_multiplier =   2, to contain    49 grid points.
 
  Reading configuration options for species C                   .
  | Found nuclear charge :   6.0000
  | Found atomic mass :    12.0107000000000      amu
  | Found l_max for Hartree potential  :   6
  | Found cutoff potl. onset [A], width [A], scale factor :    4.00000    2.00000    1.00000
  | Threshold for basis-dependent cutoff potential is   0.100000E-03
  | Found data for basic radial integration grid :    34 points, outermost radius =    7.000 A
  | Found multiplier for basic radial grid :   2
  | Found angular grid specification: user-specified.
  | Specified grid contains     6 separate shells.
  | Check grid settings after all constraints further below.
  | Found free-atom valence shell :  2 s   2.000
  | Found free-atom valence shell :  2 p   2.000
  | No ionic wave fns used. Skipping ion_occ.
  | No ionic wave fns used. Skipping ion_occ.
  | Found hydrogenic basis function :  2 p   1.700
  | Found hydrogenic basis function :  3 d   6.000
  | Found hydrogenic basis function :  2 s   4.900
  | Found hydrogenic basis function :  4 f   9.800
  | Found hydrogenic basis function :  3 p   5.200
  | Found hydrogenic basis function :  3 s   4.300
  | Found hydrogenic basis function :  5 g  14.400
  | Found hydrogenic basis function :  3 d   6.200
  Species C                   : Missing cutoff potential type.
  Defaulting to exp(1/x)/(1-x)^2 type cutoff potential.
  Species C : No 'logarithmic' tag. Using default grid for free atom:
  | Default logarithmic grid data [bohr] : 0.1000E-03 0.1000E+03 0.1012E+01
  Species C : On-site basis accuracy parameter (for Gram-Schmidt orthonormalisation) not specified.
  Using default value basis_acc =  0.1000000E-03.
  Species C                   : Using default innermost maximum threshold i_radial=  2 for radial functions.
  Species C                   : Default cutoff onset for free atom density etc. : 0.40000000E+01 AA.
  Species C                   : Basic radial grid will be enhanced according to radial_multiplier =   2, to contain    69 grid points.
 
  Reading configuration options for species N                   .
  | Found nuclear charge :   7.0000
  | Found atomic mass :    14.0067000000000      amu
  | Found l_max for Hartree potential  :   6
  | Found cutoff potl. onset [A], width [A], scale factor :    4.00000    2.00000    1.00000
  | Threshold for basis-dependent cutoff potential is   0.100000E-03
  | Found data for basic radial integration grid :    35 points, outermost radius =    7.000 A
  | Found multiplier for basic radial grid :   2
  | Found angular grid specification: user-specified.
  | Specified grid contains     6 separate shells.
  | Check grid settings after all constraints further below.
  | Found free-atom valence shell :  2 s   2.000
  | Found free-atom valence shell :  2 p   3.000
  | No ionic wave fns used. Skipping ion_occ.
  | No ionic wave fns used. Skipping ion_occ.
  | Found hydrogenic basis function :  2 p   1.800
  | Found hydrogenic basis function :  3 d   6.800
  | Found hydrogenic basis function :  3 s   5.800
  | Found hydrogenic basis function :  4 f  10.800
  | Found hydrogenic basis function :  3 p   5.800
  | Found hydrogenic basis function :  1 s   0.800
  | Found hydrogenic basis function :  5 g  16.000
  | Found hydrogenic basis function :  3 d   4.900
  Species N                   : Missing cutoff potential type.
  Defaulting to exp(1/x)/(1-x)^2 type cutoff potential.
  Species N : No 'logarithmic' tag. Using default grid for free atom:
  | Default logarithmic grid data [bohr] : 0.1000E-03 0.1000E+03 0.1012E+01
  Species N : On-site basis accuracy parameter (for Gram-Schmidt orthonormalisation) not specified.
  Using default value basis_acc =  0.1000000E-03.
  Species N                   : Using default innermost maximum threshold i_radial=  2 for radial functions.
  Species N                   : Default cutoff onset for free atom density etc. : 0.40000000E+01 AA.
  Species N                   : Basic radial grid will be enhanced according to radial_multiplier =   2, to contain    71 grid points.
 
  Reading configuration options for species O                   .
  | Found nuclear charge :   8.0000
  | Found atomic mass :    15.9994000000000      amu
  | Found l_max for Hartree potential  :   6
  | Found cutoff potl. onset [A], width [A], scale factor :    4.00000    2.00000    1.00000
  | Threshold for basis-dependent cutoff potential is   0.100000E-03
  | Found data for basic radial integration grid :    36 points, outermost radius =    7.000 A
  | Found multiplier for basic radial grid :   2
  | Found angular grid specification: user-specified.
  | Specified grid contains     6 separate shells.
  | Check grid settings after all constraints further below.
  | Found free-atom valence shell :  2 s   2.000
  | Found free-atom valence shell :  2 p   4.000
  | No ionic wave fns used. Skipping ion_occ.
  | No ionic wave fns used. Skipping ion_occ.
  | Found hydrogenic basis function :  2 p   1.800
  | Found hydrogenic basis function :  3 d   7.600
  | Found hydrogenic basis function :  3 s   6.400
  | Found hydrogenic basis function :  4 f  11.600
  | Found hydrogenic basis function :  3 p   6.200
  | Found hydrogenic basis function :  3 d   5.600
  | Found hydrogenic basis function :  5 g  17.600
  | Found hydrogenic basis function :  1 s   0.750
  Species O                   : Missing cutoff potential type.
  Defaulting to exp(1/x)/(1-x)^2 type cutoff potential.
  Species O : No 'logarithmic' tag. Using default grid for free atom:
  | Default logarithmic grid data [bohr] : 0.1000E-03 0.1000E+03 0.1012E+01
  Species O : On-site basis accuracy parameter (for Gram-Schmidt orthonormalisation) not specified.
  Using default value basis_acc =  0.1000000E-03.
  Species O                   : Using default innermost maximum threshold i_radial=  2 for radial functions.
  Species O                   : Default cutoff onset for free atom density etc. : 0.40000000E+01 AA.
  Species O                   : Basic radial grid will be enhanced according to radial_multiplier =   2, to contain    73 grid points.
 
  Finished reading input file 'control.in'. Consistency checks are next.
 
  Target number of points in a grid batch is not set. Defaulting to  100
  Method for grid partitioning is not set. Defaulting to parallel hash+maxmin partitioning.
  Batch size limit is not set. Defaulting to    200
  By default, will store active basis functions for each batch.
  If in need of memory, prune_basis_once .false. can be used to disable this option.
  communication_type for Hartree potential was not specified.
  Defaulting to calc_hartree .
  Pulay mixer: Number of initial linear mixing iterations not set.
  Defaulting to    0 iterations.
  Work space size for distributed Hartree potential not set.
  Defaulting to   0.200000E+03 MB.
  Algorithm-dependent basis array size parameters:
  | n_max_pulay                         :       10
  Geometry relaxation not requested: no relaxation will be performed.
  Handling of forces: Unphysical translation and rotation will be removed from forces.
  No accuracy limit for integral partition fn. given. Defaulting to  0.1000E-14.
  No threshold value for u(r) in integrations given. Defaulting to  0.1000E-05.
  No accuracy for occupation numbers given. Defaulting to  0.1000E-07.
  No threshold value for occupation numbers given. Defaulting to  0.0000E+00.
  No accuracy for fermi level given. Defaulting to  0.1000E-19.
  Maximum # of iterations to find E_F not set. Defaulting to  200.
  Preferred method for the eigenvalue solver ('KS_method') not specified in 'control.in'.
  Calling blacs routine to test compilation state
  Since scalapack support is enabled, defaulting to 'elpa'.
  Preferred method for the MBD eigenvalue solver ('mbd_eigensolver') not specified in 'control.in'.
  Calling blacs routine to test compilation state
  Since scalapack support is enabled, defaulting to 'scaLAPACK'.
  Will not use alltoall communication since running on < 1024 CPUs.
  Threshold for basis singularities not set.
  Default threshold for basis singularities:  0.1000E-04
  partition_type (choice of integration weights) for integrals was not specified.
  | Using a version of the partition function of Stratmann and coworkers ('stratmann_smoother').
  | At each grid point, the set of atoms used to build the partition table is smoothly restricted to
  | only those atoms whose free-atom density would be non-zero at that grid point.
  Partitioning for Hartree potential was not defined. Using partition_type for integrals.
  | Adjusted default value of keyword multip_moments_threshold to:       0.10000000E-11
  | This value may affect high angular momentum components of the Hartree potential in periodic systems.
  No q(lm)/r^(l+1) cutoff set for long-range Hartree potential.
  | Using default value of  0.100000E-09 .
  | Verify using the multipole_threshold keyword.
  Defaulting to new monopole extrapolation.
  Density update method: automatic selection selected.
------------------------------------------------------------


------------------------------------------------------------
          Reading geometry description geometry.in.
------------------------------------------------------------
 * Warning! You did not set the 'relativistic' flag in input file 'control.in'.
 * Since you are not attempting to treat any elements beyond Ca(Z=20), FHI-aims
 * will default to 'relativistic none'.
 * You must ensure that this is really what you want!!
 * For example, DO NOT compute total-energy differences between results from
 * different settings of the 'relativistic' flag.
  Input structure read successfully.
  The structure contains       32 atoms,  and a total of        116.000 electrons.

  Input geometry:
  | No unit cell requested.
  | Atomic structure:
  |       Atom                x [A]            y [A]            z [A]
  |    1: Species C              0.081316         0.193240         1.044235
  |    2: Species C             -0.665030        -0.755522         1.961871
  |    3: Species O             -0.340915        -1.943219         2.033606
  |    4: Species H              0.398222         1.106855         1.564234
  |    5: Species H             -0.536348         0.490778         0.186727
  |    6: Species H              0.962165        -0.337649         0.673111
  |    7: Species N             -1.715721        -0.294398         2.719525
  |    8: Species C             -2.295431         1.034682         2.921581
  |    9: Species C             -3.675711         0.955171         3.613686
  |   10: Species O             -3.949488         1.815903         4.446394
  |   11: Species H             -1.981959        -0.975323         3.433126
  |   12: Species H             -1.696638         1.600195         3.653893
  |   13: Species C             -2.457862         1.917112         1.672467
  |   14: Species H             -3.059566         2.791176         1.950168
  |   15: Species H             -2.967850         1.390351         0.857852
  |   16: Species H             -1.496517         2.285771         1.302300
  |   17: Species N             -4.639071         0.035861         3.257706
  |   18: Species C             -4.659672        -1.196704         2.469124
  |   19: Species C             -3.783845        -2.307393         3.120601
  |   20: Species O             -3.469628        -2.246893         4.310280
  |   21: Species H             -5.436223         0.152192         3.876753
  |   22: Species H             -5.690809        -1.564262         2.596397
  |   23: Species C             -4.452770        -0.988605         0.962597
  |   24: Species H             -4.820260        -1.853585         0.392522
  |   25: Species H             -3.398583        -0.827065         0.710392
  |   26: Species H             -5.031727        -0.119326         0.628225
  |   27: Species N             -3.444651        -3.346442         2.319273
  |   28: Species C             -2.560216        -4.407234         2.784568
  |   29: Species H             -3.574643        -3.246450         1.320543
  |   30: Species H             -2.714516        -5.300191         2.168337
  |   31: Species H             -2.803864        -4.638028         3.826625
  |   32: Species H             -1.509289        -4.089562         2.727202
  |

  | The smallest distance between any two atoms is         1.01210528 AA.
  |
  | The first atom of this pair is atom number                     27 .
  | The second atom of this pair is atom number                    29 .

  Number of empty states per atom not set in control.in - providing a guess from actual geometry.
  | Total number of empty states used during s.c.f. cycle:       71
  If you use a very high smearing, use empty_states (per atom!) in control.in to increase this value.

  Structure-dependent array size parameters: 
  | Maximum number of distinct radial functions  :       40
  | Maximum number of basis functions            :      840
  | Number of Kohn-Sham states (occupied + empty):      129
------------------------------------------------------------

------------------------------------------------------------
          Preparing all fixed parts of the calculation.
------------------------------------------------------------
  Determining machine precision:
    2.225073858507201E-308
  Setting up grids for atomic and cluster calculations.

  Creating wave function, potential, and density for free atoms.

  Species: H

  List of occupied orbitals and eigenvalues:
    n    l              occ      energy [Ha]    energy [eV]
    1    0           1.0000        -0.238382        -6.4867


  Species: C

  List of occupied orbitals and eigenvalues:
    n    l              occ      energy [Ha]    energy [eV]
    1    0           2.0000       -10.041232      -273.2358
    2    0           2.0000        -0.504327       -13.7234
    2    1           2.0000        -0.193750        -5.2722


  Species: N

  List of occupied orbitals and eigenvalues:
    n    l              occ      energy [Ha]    energy [eV]
    1    0           2.0000       -14.129007      -384.4699
    2    0           2.0000        -0.681802       -18.5528
    2    1           3.0000        -0.260543        -7.0897


  Species: O

  List of occupied orbitals and eigenvalues:
    n    l              occ      energy [Ha]    energy [eV]
    1    0           2.0000       -18.898576      -514.2564
    2    0           2.0000        -0.878795       -23.9132
    2    1           4.0000        -0.332075        -9.0362

  Creating fixed part of basis set: Ionic, confined, hydrogenic.
 
  H                    hydrogenic:
 
  List of hydrogenic basis orbitals: 
    n    l      effective z      eigenvalue [eV]  inner max. [A]     outer max. [A]     outer radius [A]   
    2    0         2.100000       -14.9965           0.193243           1.317208           5.373006
    2    1         3.500000       -41.6672           0.602369           0.602369           4.056063
    1    0         0.850000        -9.8292           0.624871           0.624871           5.373006
    2    1         3.700000       -46.5653           0.573622           0.573622           3.910002
    2    0         1.200000        -4.5995           0.334980           2.228188           5.505995
    3    2         7.000000       -74.0753           0.680699           0.680699           3.769201
 
 
  C                    hydrogenic:
 
  List of hydrogenic basis orbitals: 
    n    l      effective z      eigenvalue [eV]  inner max. [A]     outer max. [A]     outer radius [A]   
    2    1         1.700000        -9.8152           1.245706           1.245706           5.401630
    3    2         6.000000       -54.4226           0.792453           0.792453           4.178599
    2    0         4.900000       -81.6681           0.082559           0.562749           3.353238
    4    3         9.800000       -81.6681           0.863254           0.863254           4.028125
    3    1         5.200000       -40.8774           0.305389           1.215618           4.898362
    3    0         4.300000       -27.9508           0.091041           1.610311           5.401630
    5    4        14.400000      -112.8510           0.917666           0.917666           3.883070
    3    2         6.200000       -58.1113           0.763917           0.763917           4.077671
 
 
  N                    hydrogenic:
 
  List of hydrogenic basis orbitals: 
    n    l      effective z      eigenvalue [eV]  inner max. [A]     outer max. [A]     outer radius [A]   
    2    1         1.800000       -11.0118           1.177451           1.177451           5.427479
    3    2         6.800000       -69.9029           0.704619           0.704619           3.854246
    3    0         5.800000       -50.8549           0.067388           1.191934           4.629968
    4    3        10.800000       -99.1854           0.786571           0.786571           3.761152
    3    1         5.800000       -50.8549           0.274880           1.094176           4.518138
    1    0         0.800000        -8.7059           0.662839           0.662839           5.361532
    5    4        16.000000      -139.3222           0.825990           0.825990           3.625711
    3    2         4.900000       -36.2967           0.968267           0.968267           4.862000
 
 
  O                    hydrogenic:
 
  List of hydrogenic basis orbitals: 
    n    l      effective z      eigenvalue [eV]  inner max. [A]     outer max. [A]     outer radius [A]   
    2    1         1.800000       -11.0118           1.178562           1.178562           5.432602
    3    2         7.600000       -87.3182           0.624125           0.624125           3.541477
    3    0         6.400000       -61.9209           0.061167           1.081902           4.306578
    4    3        11.600000      -114.4238           0.731631           0.731631           3.585037
    3    1         6.200000       -58.1113           0.255680           1.030270           4.306578
    3    2         5.600000       -47.4081           0.847233           0.847233           4.413171
    5    4        17.600000      -168.5799           0.749740           0.749740           3.372465
    1    0         0.750000        -7.6499           0.705284           0.705284           5.366593
 

  Adding cutoff potential to free-atom effective potential.
  Creating atomic-like basis functions for current effective potential.

  Species H                   :

  List of atomic basis orbitals and eigenvalues:
    n    l      energy [Ha]    energy [eV]    outer radius [A]
    1    0        -0.238382        -6.4867       5.373006


  Species C                   :

  List of atomic basis orbitals and eigenvalues:
    n    l      energy [Ha]    energy [eV]    outer radius [A]
    1    0       -10.041232      -273.2358       1.934409
    2    0        -0.504327       -13.7234       5.271162
    2    1        -0.193750        -5.2722       5.401630


  Species N                   :

  List of atomic basis orbitals and eigenvalues:
    n    l      energy [Ha]    energy [eV]    outer radius [A]
    1    0       -14.129007      -384.4699       1.637919
    2    0        -0.681802       -18.5528       5.168461
    2    1        -0.260543        -7.0897       5.361532


  Species O                   :

  List of atomic basis orbitals and eigenvalues:
    n    l      energy [Ha]    energy [eV]    outer radius [A]
    1    0       -18.898576      -514.2564       1.415765
    2    0        -0.878795       -23.9132       5.048385
    2    1        -0.332075        -9.0362       5.301386

  Assembling full basis from fixed parts.
  | Species H :   atomic orbital   1 s accepted.
  | Species H :    hydro orbital   2 s accepted.
  | Species H :    hydro orbital   1 s accepted.
  | Species H :    hydro orbital   2 s accepted.
  | Species H :    hydro orbital   2 p accepted.
  | Species H :    hydro orbital   2 p accepted.
  | Species H :    hydro orbital   3 d accepted.
  | Species C :   atomic orbital   1 s accepted.
  | Species C :    hydro orbital   2 s accepted.
  | Species C :   atomic orbital   2 s accepted.
  | Species C :    hydro orbital   3 s accepted.
  | Species C :    hydro orbital   3 p accepted.
  | Species C :   atomic orbital   2 p accepted.
  | Species C :    hydro orbital   2 p accepted.
  | Species C :    hydro orbital   3 d accepted.
  | Species C :    hydro orbital   3 d accepted.
  | Species C :    hydro orbital   4 f accepted.
  | Species C :    hydro orbital   5 g accepted.
  | Species N :   atomic orbital   1 s accepted.
  | Species N :    hydro orbital   3 s accepted.
  | Species N :   atomic orbital   2 s accepted.
  | Species N :    hydro orbital   1 s accepted.
  | Species N :    hydro orbital   3 p accepted.
  | Species N :   atomic orbital   2 p accepted.
  | Species N :    hydro orbital   2 p accepted.
  | Species N :    hydro orbital   3 d accepted.
  | Species N :    hydro orbital   3 d accepted.
  | Species N :    hydro orbital   4 f accepted.
  | Species N :    hydro orbital   5 g accepted.
  | Species O :   atomic orbital   1 s accepted.
  | Species O :    hydro orbital   3 s accepted.
  | Species O :   atomic orbital   2 s accepted.
  | Species O :    hydro orbital   1 s accepted.
  | Species O :    hydro orbital   3 p accepted.
  | Species O :   atomic orbital   2 p accepted.
  | Species O :    hydro orbital   2 p accepted.
  | Species O :    hydro orbital   3 d accepted.
  | Species O :    hydro orbital   3 d accepted.
  | Species O :    hydro orbital   4 f accepted.
  | Species O :    hydro orbital   5 g accepted.
 
  Basis size parameters after reduction:
  | Total number of radial functions:       40
  | Total number of basis functions :      840
 
  Testing on-site integration grid accuracy.
  |  Species  Function  <phi|h_atom|phi> (log., in eV)  <phi|h_atom|phi> (rad., in eV)
           1        1                 -6.4869821809                 -6.4870742227
           1        2                 13.5044133542                 13.5041049177
           1        3                 32.7854418792                 32.7779770519
           1        4                 33.7995553101                 33.7152624900 ***
           1        5                 28.8558651799                 28.8558652046
           1        6                 59.6361831893                 59.6362535845
           1        7                 60.2733718049                 60.2733715484
           2        8               -273.2358277112               -273.2358261765
           2        9                -10.7624923123                -10.7625144012
           2       10                 17.4634079027                 17.4634252127
           2       11                 53.0363661832                 53.0366180446
           2       12                 15.0981351967                 15.0981317714
           2       13                  3.8522181899                  3.8522770949
           2       14                 12.1181835661                 12.1206868578
           2       15                 29.4320778347                 29.4320780959
           2       16                 54.8753777694                 54.8752901936
           2       17                 59.3533975461                 59.3533974833
           2       18                 93.4537491195                 93.4537492066
           3       19               -384.4698526889               -384.4698499465
           3       20                 12.5691022037                 12.5690910168
           3       21                -15.7489097511                -15.7489165588
           3       22                 27.0978334940                 27.0985589490
           3       23                 18.5949116966                 18.5949125562
           3       24                  1.2212828291                  1.2212855301
           3       25                 13.4428926797                 13.4434051125
           3       26                 35.9380614500                 35.9380613666
           3       27                 39.9231532098                 39.9231654735
           3       28                 72.9957335806                 72.9957336833
           3       29                116.4231321147                116.4231321431
           4       30               -514.2564144315               -514.2564099626
           4       31                 15.1726678541                 15.1726530877
           4       32                -21.5447785304                -21.5447874973
           4       33                 14.4944558459                 14.4944698284
           4       34                 20.8882174564                 20.8882178906
           4       35                 -2.4850315908                 -2.4850322289
           4       36                 13.8600193195                 13.8599826966
           4       37                 45.8243383616                 45.8243383675
           4       38                 52.1840606465                 52.1840622440
           4       39                 85.4074185510                 85.4074185819
           4       40                142.0983717302                142.0983717339
 * Note: Onsite integrals marked "***" above are less accurate than
 * onsite_accuracy_threshold =    0.03000 eV. Usually, this is harmless.
 * When in doubt, tighten the "radial" and/or "radial_multiplier" flags to check.

  Preparing densities etc. for the partition functions (integrals / Hartree potential).

  Preparations completed.
  max(cpu_time)          :      0.236 s.
  Wall clock time (cpu1) :      0.234 s.
------------------------------------------------------------

------------------------------------------------------------
          Begin self-consistency loop: Initialization.

          Date     :  20170309, Time     :  183111.479
------------------------------------------------------------

  Initializing index lists of integration centers etc. from given atomic structure:
  | Number of centers in hartree potential         :        32
  | Number of centers in hartree multipole         :        32
  | Number of centers in electron density summation:        32
  | Number of centers in basis integrals           :        32
  | Number of centers in integrals                 :        32
  | Number of centers in hamiltonian               :        32
  Using modified Scalapack Eigenvalue solver (ELPA)
  * Using 32 tasks for Scalapack Eigenvalue solver.
  Detailed listing of tasks and assigned k-points:
  (for non-periodic systems, the "k-point" denotes an internal label only)
   Task     0 k-point     1 on eos366
   Task     1 k-point     1 on eos366
   Task     2 k-point     1 on eos366
   Task     3 k-point     1 on eos366
   Task     4 k-point     1 on eos366
   Task     5 k-point     1 on eos366
   Task     6 k-point     1 on eos366
   Task     7 k-point     1 on eos366
   Task     8 k-point     1 on eos366
   Task     9 k-point     1 on eos366
   Task    10 k-point     1 on eos366
   Task    11 k-point     1 on eos366
   Task    12 k-point     1 on eos366
   Task    13 k-point     1 on eos366
   Task    14 k-point     1 on eos366
   Task    15 k-point     1 on eos366
   Task    16 k-point     1 on eos366
   Task    17 k-point     1 on eos366
   Task    18 k-point     1 on eos366
   Task    19 k-point     1 on eos366
   Task    20 k-point     1 on eos366
   Task    21 k-point     1 on eos366
   Task    22 k-point     1 on eos366
   Task    23 k-point     1 on eos366
   Task    24 k-point     1 on eos366
   Task    25 k-point     1 on eos366
   Task    26 k-point     1 on eos366
   Task    27 k-point     1 on eos366
   Task    28 k-point     1 on eos366
   Task    29 k-point     1 on eos366
   Task    30 k-point     1 on eos366
   Task    31 k-point     1 on eos366
  Tasks:    32 split into      8 X      4 BLACS grid
  Calculating blocksize based on n_basis =          840 max_nprow =            8 max_npcol =            4
  Scalapack blocksize set to:           16
  Required Scalapack workspace - INTEGER:            1 REAL:             1
  Partitioning the integration grid into batches with parallel hashing+maxmin method.
  | Number of batches:     5059
  | Maximal batch size:     200
  | Minimal batch size:      33
  | Average batch size:     104.315
  | Standard deviation of batch sizes:      33.721

  Integration load balanced across    32 MPI tasks.
  Work distribution over tasks is as follows:
  Task     0 has      16485 integration points.
  Task     1 has      16559 integration points.
  Task     2 has      16447 integration points.
  Task     3 has      16598 integration points.
  Task     4 has      16476 integration points.
  Task     5 has      16574 integration points.
  Task     6 has      16449 integration points.
  Task     7 has      16441 integration points.
  Task     8 has      16459 integration points.
  Task     9 has      16443 integration points.
  Task    10 has      16471 integration points.
  Task    11 has      16444 integration points.
  Task    12 has      16447 integration points.
  Task    13 has      16454 integration points.
  Task    14 has      16453 integration points.
  Task    15 has      16556 integration points.
  Task    16 has      16449 integration points.
  Task    17 has      16602 integration points.
  Task    18 has      16466 integration points.
  Task    19 has      16456 integration points.
  Task    20 has      16449 integration points.
  Task    21 has      16473 integration points.
  Task    22 has      16453 integration points.
  Task    23 has      16458 integration points.
  Task    24 has      16452 integration points.
  Task    25 has      16587 integration points.
  Task    26 has      16451 integration points.
  Task    27 has      16479 integration points.
  Task    28 has      16525 integration points.
  Task    29 has      16456 integration points.
  Task    30 has      16615 integration points.
  Task    31 has      16601 integration points.
  Initializing partition tables, free-atom densities, potentials, etc. across the integration grid (initialize_grid_storage).
  | initialize_grid_storage: Actual outermost partition radius vs. multipole_radius_free
  | (-- VB: in principle, multipole_radius_free should be larger, hence this output)
  | Species        1: Confinement radius =              6.000000000000000 AA, multipole_radius_free =              6.071692442739658 AA.
  | Species        1: outer_partition_radius set to              6.071692442739658 AA .
  | Species        2: Confinement radius =              6.000000000000000 AA, multipole_radius_free =              6.029870734432609 AA.
  | Species        2: outer_partition_radius set to              6.029870734432609 AA .
  | Species        3: Confinement radius =              6.000000000000000 AA, multipole_radius_free =              6.058726835495003 AA.
  | Species        3: outer_partition_radius set to              6.058726835495003 AA .
  | Species        4: Confinement radius =              6.000000000000000 AA, multipole_radius_free =              6.064445521808699 AA.
  | Species        4: outer_partition_radius set to              6.064445521808699 AA .
  | Original list of interatomic distances with          32 x         32 entries is created.
  | Net number of integration points:   527728
  | of which are non-zero points    :   411536
  Obtaining max. number of non-zero basis functions in each batch (get_n_compute_maxes).
  | Maximal number of non-zero basis functions:      821 in task     0
  | Maximal number of non-zero basis functions:      808 in task     1
  | Maximal number of non-zero basis functions:      816 in task     2
  | Maximal number of non-zero basis functions:      821 in task     3
  | Maximal number of non-zero basis functions:      815 in task     4
  | Maximal number of non-zero basis functions:      812 in task     5
  | Maximal number of non-zero basis functions:      813 in task     6
  | Maximal number of non-zero basis functions:      821 in task     7
  | Maximal number of non-zero basis functions:      803 in task     8
  | Maximal number of non-zero basis functions:      806 in task     9
  | Maximal number of non-zero basis functions:      819 in task    10
  | Maximal number of non-zero basis functions:      816 in task    11
  | Maximal number of non-zero basis functions:      806 in task    12
  | Maximal number of non-zero basis functions:      826 in task    13
  | Maximal number of non-zero basis functions:      818 in task    14
  | Maximal number of non-zero basis functions:      819 in task    15
  | Maximal number of non-zero basis functions:      806 in task    16
  | Maximal number of non-zero basis functions:      809 in task    17
  | Maximal number of non-zero basis functions:      815 in task    18
  | Maximal number of non-zero basis functions:      818 in task    19
  | Maximal number of non-zero basis functions:      814 in task    20
  | Maximal number of non-zero basis functions:      812 in task    21
  | Maximal number of non-zero basis functions:      812 in task    22
  | Maximal number of non-zero basis functions:      807 in task    23
  | Maximal number of non-zero basis functions:      824 in task    24
  | Maximal number of non-zero basis functions:      811 in task    25
  | Maximal number of non-zero basis functions:      825 in task    26
  | Maximal number of non-zero basis functions:      809 in task    27
  | Maximal number of non-zero basis functions:      808 in task    28
  | Maximal number of non-zero basis functions:      809 in task    29
  | Maximal number of non-zero basis functions:      817 in task    30
  | Maximal number of non-zero basis functions:      812 in task    31
  Selecting the method for density update.
  Loop over occupied states selected for charge density update.
  Integrating Hamiltonian matrix: batch-based integration.
  Time summed over all CPUs for integration: real work       24.599 s, elapsed       25.642 s
  Integrating overlap matrix.
  Time summed over all CPUs for integration: real work       15.285 s, elapsed       15.914 s
  Deallocating overlap matrix.

  Updating Kohn-Sham eigenvalues, eigenvectors, occupation numbers, and Fermi level.
  Solving generalized eigenproblem
  Solving real symmetric generalised eigenvalue problem by standard ScaLAPACK.
  Transforming overlap matrix with ScaLAPACK and checking for singularities.
  : Overlap matrix is nonsingular, using Cholesky decomposition
  | Lowest eigenvalue:  0.916158E-04
  Factoring overlap matrix with Cholesky decomposition
  Using Cholesky factor for transformation
  Using 1-stage real ELPA solver
  Determining occupation numbers for Kohn-Sham eigenstates.
  | Chemical potential (Fermi level) in eV                 : -.94817894E+01
  | Error in electron count due to remaining E_F inaccuracy: 0.00000000E+00
  | Maximum occupation number of highest empty state:  0.00E+00

  Writing Kohn-Sham eigenvalues.

  State    Occupation    Eigenvalue [Ha]    Eigenvalue [eV]
      1       2.00000         -18.974564         -516.32415
      2       2.00000         -18.974119         -516.31205
      3       2.00000         -18.973205         -516.28716
      4       2.00000         -14.257136         -387.95640
      5       2.00000         -14.251669         -387.80764
      6       2.00000         -14.251382         -387.79982
      7       2.00000         -10.171351         -276.77655
      8       2.00000         -10.171262         -276.77412
      9       2.00000         -10.170933         -276.76516
     10       2.00000         -10.166741         -276.65110
     11       2.00000         -10.146893         -276.11101
     12       2.00000         -10.146450         -276.09894
     13       2.00000         -10.135020         -275.78792
     14       2.00000         -10.134571         -275.77570
     15       2.00000         -10.133157         -275.73722
     16       2.00000          -1.135413          -30.89615
     17       2.00000          -1.130819          -30.77116
     18       2.00000          -1.129234          -30.72802
     19       2.00000          -1.015978          -27.64617
     20       2.00000          -1.012362          -27.54777
     21       2.00000          -1.001147          -27.24259
     22       2.00000          -0.881899          -23.99768
     23       2.00000          -0.876848          -23.86025
     24       2.00000          -0.849927          -23.12770
     25       2.00000          -0.816920          -22.22953
     26       2.00000          -0.776931          -21.14136
     27       2.00000          -0.764911          -20.81428
     28       2.00000          -0.695737          -18.93197
     29       2.00000          -0.678536          -18.46390
     30       2.00000          -0.675292          -18.37564
     31       2.00000          -0.645710          -17.57067
     32       2.00000          -0.629010          -17.11623
     33       2.00000          -0.607784          -16.53863
     34       2.00000          -0.601211          -16.35977
     35       2.00000          -0.590741          -16.07487
     36       2.00000          -0.580674          -15.80094
     37       2.00000          -0.569021          -15.48385
     38       2.00000          -0.563075          -15.32204
     39       2.00000          -0.558910          -15.20872
     40       2.00000          -0.552592          -15.03679
     41       2.00000          -0.549765          -14.95985
     42       2.00000          -0.544427          -14.81461
     43       2.00000          -0.532077          -14.47856
     44       2.00000          -0.524274          -14.26622
     45       2.00000          -0.523637          -14.24889
     46       2.00000          -0.515357          -14.02358
     47       2.00000          -0.512584          -13.94811
     48       2.00000          -0.504306          -13.72286
     49       2.00000          -0.498246          -13.55796
     50       2.00000          -0.486331          -13.23375
     51       2.00000          -0.474930          -12.92351
     52       2.00000          -0.472122          -12.84708
     53       2.00000          -0.407763          -11.09579
     54       2.00000          -0.404490          -11.00674
     55       2.00000          -0.396941          -10.80131
     56       2.00000          -0.389660          -10.60318
     57       2.00000          -0.385028          -10.47716
     58       2.00000          -0.382200          -10.40020
     59       0.00000          -0.168436           -4.58338
     60       0.00000          -0.163585           -4.45138
     61       0.00000          -0.153243           -4.16997
     62       0.00000          -0.083839           -2.28137
     63       0.00000          -0.066331           -1.80496
     64       0.00000          -0.063318           -1.72297
     65       0.00000          -0.052848           -1.43807
     66       0.00000          -0.045443           -1.23657
     67       0.00000          -0.039480           -1.07430
     68       0.00000          -0.032996           -0.89787
     69       0.00000          -0.031204           -0.84912
     70       0.00000          -0.025638           -0.69765
     71       0.00000          -0.019821           -0.53937
     72       0.00000          -0.018357           -0.49951
     73       0.00000          -0.010484           -0.28529
     74       0.00000          -0.008627           -0.23475
     75       0.00000          -0.004317           -0.11746
     76       0.00000          -0.003014           -0.08201
     77       0.00000           0.000732            0.01992
     78       0.00000           0.009593            0.26104
     79       0.00000           0.015174            0.41291
     80       0.00000           0.016355            0.44503
     81       0.00000           0.021373            0.58160
     82       0.00000           0.023617            0.64264
     83       0.00000           0.026594            0.72366
     84       0.00000           0.039465            1.07390
     85       0.00000           0.041981            1.14237
     86       0.00000           0.054541            1.48413
     87       0.00000           0.058913            1.60311
     88       0.00000           0.060466            1.64537
     89       0.00000           0.073399            1.99728
     90       0.00000           0.079533            2.16419
     91       0.00000           0.081497            2.21764
     92       0.00000           0.087361            2.37720
     93       0.00000           0.090732            2.46895
     94       0.00000           0.094352            2.56744
     95       0.00000           0.099421            2.70537
     96       0.00000           0.103602            2.81915
     97       0.00000           0.112184            3.05269
     98       0.00000           0.115713            3.14871
     99       0.00000           0.117462            3.19631
    100       0.00000           0.126839            3.45146
    101       0.00000           0.130690            3.55624
    102       0.00000           0.133836            3.64186
    103       0.00000           0.137960            3.75410
    104       0.00000           0.140417            3.82094
    105       0.00000           0.148740            4.04742
    106       0.00000           0.156971            4.27140
    107       0.00000           0.157649            4.28986
    108       0.00000           0.159680            4.34511
    109       0.00000           0.164681            4.48119
    110       0.00000           0.173877            4.73143
    111       0.00000           0.178005            4.84375
    112       0.00000           0.183845            5.00267
    113       0.00000           0.186736            5.08134
    114       0.00000           0.189289            5.15082
    115       0.00000           0.197371            5.37075
    116       0.00000           0.204129            5.55464
    117       0.00000           0.206430            5.61724
    118       0.00000           0.210706            5.73359
    119       0.00000           0.220069            5.98839
    120       0.00000           0.224674            6.11368
    121       0.00000           0.229305            6.23972
    122       0.00000           0.234282            6.37514
    123       0.00000           0.244292            6.64752
    124       0.00000           0.246407            6.70508
    125       0.00000           0.249010            6.77590
    126       0.00000           0.259266            7.05498
    127       0.00000           0.265224            7.21712
    128       0.00000           0.270982            7.37380
    129       0.00000           0.273645            7.44625

  Highest occupied state (VBM) at    -10.40019739 eV
  | Occupation number:      2.00000000

  Lowest unoccupied state (CBM) at    -4.58338163 eV
  | Occupation number:      0.00000000

  Overall HOMO-LUMO gap:      5.81681576 eV.
  Calculating total energy contributions from superposition of free atom densities.

  Total energy components:
  | Sum of eigenvalues            :        -437.80653202 Ha      -11913.32187948 eV
  | XC energy correction          :         -98.83177964 Ha       -2689.34955650 eV
  | XC potential correction       :         127.03922235 Ha        3456.91312597 eV
  | Free-atom electrostatic energy:        -333.66130773 Ha       -9079.38613732 eV
  | Hartree energy correction     :           0.00000000 Ha           0.00000000 eV
  | vdW energy correction         :           0.00000000 Ha           0.00000000 eV
  | Entropy correction            :          -0.00000000 Ha          -0.00000000 eV
  | ---------------------------
  | Total energy                  :        -743.26039703 Ha      -20225.14444732 eV
  | Total energy, T -> 0          :        -743.26039703 Ha      -20225.14444732 eV  <-- do not rely on this value for anything but (periodic) metals
  | Electronic free energy        :        -743.26039703 Ha      -20225.14444732 eV

  Derived energy quantities:
  | Kinetic energy                :         735.19031987 Ha       20005.54647457 eV
  | Electrostatic energy          :       -1379.61893727 Ha      -37541.34136540 eV
  | Energy correction for multipole
  | error in Hartree potential    :           0.00000000 Ha           0.00000000 eV
  | Sum of eigenvalues per atom                           :        -372.29130873 eV
  | Total energy (T->0) per atom                          :        -632.03576398 eV  <-- do not rely on this value for anything but (periodic) metals
  | Electronic free energy per atom                       :        -632.03576398 eV
  Initialize hartree_potential_storage
  Max. number of atoms included in rho_multipole:           32

  End scf initialization - timings             :  max(cpu_time)    wall_clock(cpu1)
  | Time for scf. initialization               :        2.072 s           2.074 s
  | Boundary condition initialization          :        0.004 s           0.000 s
  | Integration                                :        1.320 s           1.319 s
  | Solution of K.-S. eqns.                    :        0.076 s           0.076 s
  | Grid partitioning                          :        0.296 s           0.283 s
  | Preloading free-atom quantities on grid    :        0.032 s           0.028 s
  | Free-atom superposition energy             :        0.044 s           0.041 s
  | Total energy evaluation                    :        0.004 s           0.001 s
------------------------------------------------------------

------------------------------------------------------------
          Begin self-consistency iteration #    1

  Date     :  20170309, Time     :  183113.553
------------------------------------------------------------
  Evaluating new KS density.
  Integration grid: deviation in total charge (<rho> - N_e) =  -1.421085E-14
  Pulay mixing of updated and previous charge densities.

  Evaluating partitioned Hartree potential by multipole expansion.
  | Analytical far-field extrapolation by fixed multipoles:
  | Hartree multipole sum: apparent total charge =   0.594172E-04
  Summing up the Hartree potential.
  Time summed over all CPUs for potential: real work        9.661 s, elapsed        9.850 s
  | RMS charge density error from multipole expansion :   0.107395E-01

  Integrating Hamiltonian matrix: batch-based integration.
  Time summed over all CPUs for integration: real work       24.370 s, elapsed       25.467 s

  Updating Kohn-Sham eigenvalues, eigenvectors, occupation numbers, and Fermi level.
  Solving generalized eigenproblem
  Solving real symmetric generalised eigenvalue problem by standard ScaLAPACK.
  Using Cholesky factor for transformation
  Using 2-stage real ELPA solver
  K-Point:    1, Trafo times: 1-stage=     0.021 s, 2-stage=     0.022 s ==> Using 1-stage solver
  Determining occupation numbers for Kohn-Sham eigenstates.
  | Chemical potential (Fermi level) in eV                 : -.49761502E+01
  | Error in electron count due to remaining E_F inaccuracy: 0.00000000E+00
  | Maximum occupation number of highest empty state:  0.00E+00

  Writing Kohn-Sham eigenvalues.

  State    Occupation    Eigenvalue [Ha]    Eigenvalue [eV]
      1       2.00000         -18.622113         -506.73347
      2       2.00000         -18.615514         -506.55392
      3       2.00000         -18.609135         -506.38032
      4       2.00000         -13.988772         -380.65385
      5       2.00000         -13.986629         -380.59553
      6       2.00000         -13.985332         -380.56025
      7       2.00000         -10.058604         -273.70853
      8       2.00000         -10.055860         -273.63386
      9       2.00000         -10.052131         -273.53241
     10       2.00000          -9.979162         -271.54681
     11       2.00000          -9.967331         -271.22486
     12       2.00000          -9.872883         -268.65482
     13       2.00000          -9.855086         -268.17054
     14       2.00000          -9.848333         -267.98678
     15       2.00000          -9.846235         -267.92969
     16       2.00000          -0.968876          -26.36446
     17       2.00000          -0.959010          -26.09600
     18       2.00000          -0.952676          -25.92362
     19       2.00000          -0.864584          -23.52652
     20       2.00000          -0.860037          -23.40280
     21       2.00000          -0.855711          -23.28507
     22       2.00000          -0.740070          -20.13833
     23       2.00000          -0.728251          -19.81671
     24       2.00000          -0.699195          -19.02607
     25       2.00000          -0.665378          -18.10586
     26       2.00000          -0.639247          -17.39479
     27       2.00000          -0.628837          -17.11154
     28       2.00000          -0.566659          -15.41956
     29       2.00000          -0.548940          -14.93742
     30       2.00000          -0.544924          -14.82814
     31       2.00000          -0.514158          -13.99096
     32       2.00000          -0.496384          -13.50730
     33       2.00000          -0.482071          -13.11781
     34       2.00000          -0.455974          -12.40769
     35       2.00000          -0.446715          -12.15573
     36       2.00000          -0.434863          -11.83321
     37       2.00000          -0.424283          -11.54532
     38       2.00000          -0.418759          -11.39501
     39       2.00000          -0.415928          -11.31799
     40       2.00000          -0.405956          -11.04662
     41       2.00000          -0.401808          -10.93374
     42       2.00000          -0.388240          -10.56454
     43       2.00000          -0.383398          -10.43278
     44       2.00000          -0.378662          -10.30392
     45       2.00000          -0.373024          -10.15049
     46       2.00000          -0.371751          -10.11585
     47       2.00000          -0.366706           -9.97857
     48       2.00000          -0.358963           -9.76788
     49       2.00000          -0.349730           -9.51663
     50       2.00000          -0.346396           -9.42592
     51       2.00000          -0.333252           -9.06824
     52       2.00000          -0.332162           -9.03860
     53       2.00000          -0.235297           -6.40276
     54       2.00000          -0.233781           -6.36149
     55       2.00000          -0.228325           -6.21304
     56       2.00000          -0.217450           -5.91711
     57       2.00000          -0.215929           -5.87572
     58       2.00000          -0.202591           -5.51277
     59       0.00000          -0.058868           -1.60187
     60       0.00000          -0.051557           -1.40294
     61       0.00000          -0.039749           -1.08163
     62       0.00000          -0.036008           -0.97982
     63       0.00000          -0.022038           -0.59970
     64       0.00000          -0.015111           -0.41120
     65       0.00000          -0.006526           -0.17759
     66       0.00000           0.007756            0.21104
     67       0.00000           0.009011            0.24521
     68       0.00000           0.018256            0.49678
     69       0.00000           0.024253            0.65995
     70       0.00000           0.029490            0.80248
     71       0.00000           0.035842            0.97532
     72       0.00000           0.040930            1.11376
     73       0.00000           0.049091            1.33583
     74       0.00000           0.052919            1.44000
     75       0.00000           0.055320            1.50534
     76       0.00000           0.061304            1.66817
     77       0.00000           0.067436            1.83503
     78       0.00000           0.078629            2.13961
     79       0.00000           0.082118            2.23456
     80       0.00000           0.086785            2.36154
     81       0.00000           0.094785            2.57922
     82       0.00000           0.098227            2.67289
     83       0.00000           0.101589            2.76439
     84       0.00000           0.106282            2.89207
     85       0.00000           0.108943            2.96448
     86       0.00000           0.111199            3.02589
     87       0.00000           0.118554            3.22603
     88       0.00000           0.123947            3.37278
     89       0.00000           0.136495            3.71422
     90       0.00000           0.139439            3.79434
     91       0.00000           0.143521            3.90540
     92       0.00000           0.148170            4.03192
     93       0.00000           0.159974            4.35311
     94       0.00000           0.166450            4.52933
     95       0.00000           0.169254            4.60564
     96       0.00000           0.177244            4.82305
     97       0.00000           0.178420            4.85505
     98       0.00000           0.179523            4.88507
     99       0.00000           0.185431            5.04584
    100       0.00000           0.186205            5.06689
    101       0.00000           0.192546            5.23943
    102       0.00000           0.196375            5.34362
    103       0.00000           0.199899            5.43953
    104       0.00000           0.204377            5.56137
    105       0.00000           0.209565            5.70256
    106       0.00000           0.215325            5.85929
    107       0.00000           0.220660            6.00446
    108       0.00000           0.225894            6.14688
    109       0.00000           0.232224            6.31913
    110       0.00000           0.235125            6.39807
    111       0.00000           0.238665            6.49440
    112       0.00000           0.245054            6.66825
    113       0.00000           0.245367            6.67678
    114       0.00000           0.256533            6.98063
    115       0.00000           0.260173            7.07967
    116       0.00000           0.261809            7.12418
    117       0.00000           0.268956            7.31867
    118       0.00000           0.278036            7.56573
    119       0.00000           0.282304            7.68188
    120       0.00000           0.286627            7.79951
    121       0.00000           0.299105            8.13907
    122       0.00000           0.301760            8.21130
    123       0.00000           0.311899            8.48720
    124       0.00000           0.314860            8.56778
    125       0.00000           0.321616            8.75161
    126       0.00000           0.327437            8.91000
    127       0.00000           0.334728            9.10842
    128       0.00000           0.344688            9.37944
    129       0.00000           0.347874            9.46614

  Highest occupied state (VBM) at     -5.51276824 eV
  | Occupation number:      2.00000000

  Lowest unoccupied state (CBM) at    -1.60187465 eV
  | Occupation number:      0.00000000

  Overall HOMO-LUMO gap:      3.91089358 eV.

  Total energy components:
  | Sum of eigenvalues            :        -417.55613325 Ha      -11362.28049227 eV
  | XC energy correction          :        -100.74512372 Ha       -2741.41429808 eV
  | XC potential correction       :         129.51930016 Ha        3524.39947680 eV
  | Free-atom electrostatic energy:        -333.66130773 Ha       -9079.38613732 eV
  | Hartree energy correction     :         -20.25631086 Ha        -551.20226337 eV
  | vdW energy correction         :           0.00000000 Ha           0.00000000 eV
  | Entropy correction            :          -0.00000000 Ha          -0.00000000 eV
  | ---------------------------
  | Total energy                  :        -742.69957540 Ha      -20209.88371425 eV
  | Total energy, T -> 0          :        -742.69957540 Ha      -20209.88371425 eV  <-- do not rely on this value for anything but (periodic) metals
  | Electronic free energy        :        -742.69957540 Ha      -20209.88371425 eV

  Derived energy quantities:
  | Kinetic energy                :         743.97876779 Ha       20244.69231007 eV
  | Electrostatic energy          :       -1385.93321947 Ha      -37713.16172623 eV
  | Energy correction for multipole
  | error in Hartree potential    :          -0.04155800 Ha          -1.13085065 eV
  | Sum of eigenvalues per atom                           :        -355.07126538 eV
  | Total energy (T->0) per atom                          :        -631.55886607 eV  <-- do not rely on this value for anything but (periodic) metals
  | Electronic free energy per atom                       :        -631.55886607 eV

  Self-consistency convergence accuracy:
  | Change of charge density      :  0.9024E+00
  | Change of sum of eigenvalues  :  0.5510E+03 eV
  | Change of total energy        :  0.1526E+02 eV

  End self-consistency iteration #     1       :  max(cpu_time)    wall_clock(cpu1)
  | Time for this iteration                    :        1.688 s           1.690 s
  | Charge density update                      :        0.532 s           0.527 s
[...]
   ----------------------------------------------------------------
   Total forces(  20)            : -0.339621E-03 -0.283243E-03 -0.414272E-02
  atom #   21
   Hellmann-Feynman              :  0.672929E-01  0.243701E-01  0.863999E-02
   Ionic forces                  :  0.000000E+00  0.000000E+00  0.000000E+00
   Multipole                     : -0.154521E-01 -0.263298E-01 -0.292181E-01
   Pulay + GGA                   : -0.617066E-01  0.644653E-03  0.280456E-01
   Van der Waals                 :  0.104344E-01  0.739295E-03 -0.849074E-02
   ----------------------------------------------------------------
   Total forces(  21)            :  0.568524E-03 -0.575772E-03 -0.102329E-02
  atom #   22
   Hellmann-Feynman              :  0.605779E-01  0.299884E-01 -0.703895E-02
   Ionic forces                  :  0.000000E+00  0.000000E+00  0.000000E+00
   Multipole                     :  0.255810E-02 -0.171600E-01 -0.657018E-02
   Pulay + GGA                   : -0.639391E-01 -0.165578E-01  0.966682E-02
   Van der Waals                 :  0.132516E-02  0.363991E-02  0.424064E-02
   ----------------------------------------------------------------
   Total forces(  22)            :  0.522069E-03 -0.895309E-04  0.298331E-03
  atom #   23
   Hellmann-Feynman              :  0.631036E-01  0.332690E+00 -0.913456E+00
   Ionic forces                  :  0.000000E+00  0.000000E+00  0.000000E+00
   Multipole                     : -0.712446E-01 -0.174199E-01  0.279898E+00
   Pulay + GGA                   : -0.620983E-02 -0.322173E+00  0.628967E+00
   Van der Waals                 :  0.133516E-01  0.635728E-02  0.562659E-02
   ----------------------------------------------------------------
   Total forces(  23)            : -0.999281E-03 -0.545399E-03  0.103551E-02
  atom #   24
   Hellmann-Feynman              : -0.236360E-01  0.314601E-01  0.462086E-01
   Ionic forces                  :  0.000000E+00  0.000000E+00  0.000000E+00
   Multipole                     :  0.272380E-01  0.191543E-01 -0.168358E-01
   Pulay + GGA                   : -0.421787E-02 -0.584122E-01 -0.219241E-01
   Van der Waals                 :  0.726658E-03  0.841548E-02 -0.758924E-02
   ----------------------------------------------------------------
   Total forces(  24)            :  0.110821E-03  0.617641E-03 -0.140572E-03
  atom #   25
   Hellmann-Feynman              : -0.210854E-01 -0.139613E-01  0.350556E-01
   Ionic forces                  :  0.000000E+00  0.000000E+00  0.000000E+00
   Multipole                     : -0.244970E-01 -0.988638E-03 -0.256248E-02
   Pulay + GGA                   :  0.440876E-01  0.108702E-01 -0.229409E-01
   Van der Waals                 :  0.827594E-03  0.419616E-02 -0.976397E-02
   ----------------------------------------------------------------
   Total forces(  25)            : -0.667180E-03  0.116393E-03 -0.211782E-03
  atom #   26
   Hellmann-Feynman              : -0.892287E-02 -0.316630E-01  0.482455E-01
   Ionic forces                  :  0.000000E+00  0.000000E+00  0.000000E+00
   Multipole                     :  0.271587E-01 -0.127496E-01 -0.197793E-01
   Pulay + GGA                   : -0.278126E-01  0.434577E-01 -0.321177E-01
   Van der Waals                 :  0.993703E-02  0.899836E-03  0.434731E-02
   ----------------------------------------------------------------
   Total forces(  26)            :  0.360293E-03 -0.550592E-04  0.695787E-03
  atom #   27
   Hellmann-Feynman              : -0.198214E+01 -0.278367E+00  0.340246E+00
   Ionic forces                  :  0.000000E+00  0.000000E+00  0.000000E+00
   Multipole                     : -0.139739E+00  0.254316E+00  0.154474E+00
   Pulay + GGA                   :  0.210307E+01  0.205129E-01 -0.502368E+00
   Van der Waals                 :  0.179056E-01  0.456444E-02  0.806496E-02
   ----------------------------------------------------------------
   Total forces(  27)            : -0.912469E-03  0.102661E-02  0.416048E-03
  atom #   28
   Hellmann-Feynman              :  0.165251E+01 -0.170772E+01  0.969548E+00
   Ionic forces                  :  0.000000E+00  0.000000E+00  0.000000E+00
   Multipole                     : -0.107988E+00  0.830763E-01 -0.105231E+00
   Pulay + GGA                   : -0.154476E+01  0.160317E+01 -0.856206E+00
   Van der Waals                 :  0.549207E-03  0.218119E-01 -0.767661E-02
   ----------------------------------------------------------------
   Total forces(  28)            :  0.318011E-03  0.340279E-03  0.434093E-03
  atom #   29
   Hellmann-Feynman              :  0.203146E-01  0.576904E-02  0.409826E-01
   Ionic forces                  :  0.000000E+00  0.000000E+00  0.000000E+00
   Multipole                     :  0.180618E-02 -0.212867E-01  0.185641E-01
   Pulay + GGA                   : -0.239027E-01  0.889719E-02 -0.651237E-01
   Van der Waals                 :  0.248654E-02  0.587715E-02  0.588337E-02
   ----------------------------------------------------------------
   Total forces(  29)            :  0.704585E-03 -0.743357E-03  0.306295E-03
  atom #   30
   Hellmann-Feynman              : -0.244703E-01  0.442712E-01  0.923999E-02
   Ionic forces                  :  0.000000E+00  0.000000E+00  0.000000E+00
   Multipole                     :  0.349919E-01  0.155128E-02  0.299538E-01
   Pulay + GGA                   : -0.105662E-01 -0.486442E-01 -0.422025E-01
   Van der Waals                 :  0.140558E-03  0.360476E-02  0.311143E-02
   ----------------------------------------------------------------
   Total forces(  30)            :  0.960153E-04  0.783021E-03  0.102631E-03
  atom #   31
   Hellmann-Feynman              : -0.253459E-01  0.556860E-01 -0.284602E-01
   Ionic forces                  :  0.000000E+00  0.000000E+00  0.000000E+00
   Multipole                     :  0.348179E-01 -0.146371E-01 -0.230287E-01
   Pulay + GGA                   : -0.121178E-01 -0.401723E-01  0.537466E-01
   Van der Waals                 :  0.214459E-02 -0.138441E-02 -0.313892E-02
   ----------------------------------------------------------------
   Total forces(  31)            : -0.501198E-03 -0.507839E-03 -0.881142E-03
  atom #   32
   Hellmann-Feynman              : -0.417484E-01  0.417803E-01 -0.941892E-02
   Ionic forces                  :  0.000000E+00  0.000000E+00  0.000000E+00
   Multipole                     : -0.172884E-01 -0.261935E-01  0.537646E-02
   Pulay + GGA                   :  0.523862E-01 -0.204375E-01  0.258722E-02
   Van der Waals                 :  0.574168E-02  0.441178E-02  0.226648E-02
   ----------------------------------------------------------------
   Total forces(  32)            : -0.908921E-03 -0.438933E-03  0.811232E-03

  Timings for VdW correction (Tkatchenko-Scheffler 2009 or later):
  | CPU time:        0.132 s, Wall clock time:        0.131 s.
  Removing unitary transformations (pure translations, rotations) from forces on atoms.
  Atomic forces before filtering:
  | Net force on center of mass :   0.420960E-03  0.300645E-03 -0.141418E-04 eV/A
  | Net torque on center of mass:  -0.105461E-03 -0.196396E-02 -0.318061E-02 eV
  Atomic forces after filtering:
  | Net force on center of mass :  -0.696899E-18  0.696899E-18 -0.174225E-18 eV/A
  | Net torque on center of mass:  -0.456369E-17  0.921958E-18 -0.368783E-18 eV

  Energy and forces in a compact form:
  | Total energy uncorrected      :         -0.202083031321617E+05 eV
  | Total energy corrected        :         -0.202083031321617E+05 eV  <-- do not rely on this value for anything but (periodic) metals
  | Electronic free energy        :         -0.202083031321617E+05 eV
  Total atomic forces (unitary forces cleaned) [eV/Ang]:
  |   1         -0.582169008355978E-03         -0.557033444153875E-03          0.118207026931823E-03
  |   2          0.145170509068683E-02         -0.281294546219170E-02         -0.685117496575119E-03
  |   3         -0.857304173954923E-03          0.266419081431969E-02         -0.188376702215108E-03
  |   4         -0.422176711893063E-03         -0.865738346944451E-04          0.359646220371978E-03
  |   5          0.593190414675182E-03          0.598278844896128E-03          0.437637301791395E-03
  |   6         -0.224250885179009E-03          0.764083903467370E-03          0.231275487085278E-03
  |   7          0.783521468750476E-03         -0.849364475770630E-04         -0.604955033113183E-03
  |   8         -0.144464275144987E-03          0.294752579929549E-03         -0.635778275929151E-03
  |   9          0.358419376655989E-03          0.253689343737294E-02          0.948717570292227E-03
  |  10          0.535016425634798E-03         -0.248284684571695E-02         -0.119859915160818E-02
  |  11         -0.335855941118066E-03          0.163832265719578E-02          0.107796755193077E-03
  |  12         -0.397082622794684E-03         -0.589892679811433E-03         -0.345070858457421E-03
  |  13         -0.452006748449571E-04         -0.123712316938588E-02          0.205739314135066E-02
  |  14          0.380337899986698E-03         -0.466021814425269E-03         -0.647327678845388E-03
  |  15          0.931944497969523E-04         -0.213247207134269E-03          0.550805778561351E-03
  |  16         -0.531420092999216E-03         -0.624782473470070E-03         -0.214623314296313E-03
  |  17         -0.227713606133716E-03          0.564823514857831E-03         -0.573185269315303E-03
  |  18          0.102163126303760E-02         -0.188257059775179E-02          0.141543388928709E-03
  |  19          0.850577284149434E-04          0.262726110285444E-02          0.226594227369004E-02
  |  20         -0.306259963331225E-03         -0.303045868702951E-03         -0.413312109774488E-02
  |  21          0.565115204101739E-03         -0.620845512175955E-03         -0.986735364589831E-03
  |  22          0.523959342342991E-03         -0.137375835656607E-03          0.337545753542924E-03
  |  23         -0.102641902760591E-02         -0.576556396598304E-03          0.105860407705149E-02
  |  24          0.873451943672491E-04          0.581960974346874E-03         -0.112974452734684E-03
  |  25         -0.699739630912746E-03          0.989799157987228E-04         -0.202543586983039E-03
  |  26          0.317489195459483E-03         -0.935715704766123E-04          0.726886337080159E-03
  |  27         -0.891177340244455E-03          0.100793878348186E-02          0.424865693153214E-03
  |  28          0.359174974086111E-03          0.332867430228661E-03          0.430795360474644E-03
  |  29          0.711390610049064E-03         -0.763297654206477E-03          0.316871182046246E-03
  |  30          0.140594779473114E-03          0.773864317854255E-03          0.101006865909160E-03
  |  31         -0.443283768751822E-03         -0.518828863585226E-03         -0.881315649584398E-03
  |  32         -0.872625694254471E-03         -0.432722598889226E-03          0.794183718537625E-03

  ------------------------------------ 
  Start decomposition of the XC Energy 
  ------------------------------------ 
  Hartree-Fock part   :          0.000000000 Ha              0.000000000 eV
  ------------------------------------ 
  X Energy            :        -96.980339805 Ha          -2638.969315376 eV
  C Energy GGA        :         -3.872616660 Ha           -105.379260963 eV
  Total XC Energy     :       -100.852956465 Ha          -2744.348576339 eV
  LDA X and C from self-consistent density 
  X Energy LDA        :        -88.003859961 Ha          -2394.706870889 eV
  C Energy LDA        :         -7.533093981 Ha           -204.985916781 eV
  ------------------------------------ 
  End decomposition of the XC Energy 
  ------------------------------------ 
   
  ESP charge fitting starts.
  | Calculation :  00000001  of  00000001
  | Full density
  Computing multipole expansion for total density.
  Generating points for esp charges.
  Partitioning the integration grid into batches with parallel hashing+maxmin method.
  | Number of batches:     3917
  | Maximal batch size:     198
  | Minimal batch size:      52
  | Average batch size:     124.427
  | Standard deviation of batch sizes:      17.084

  Integration load balanced across    32 MPI tasks.
  Work distribution over tasks is as follows:
  Initializing partition tables, free-atom densities, potentials, etc. across the integration grid (initialize_grid_storage).
  | Original list of interatomic distances with          32 x         32 entries is created.
  | Net number of integration points:   487380
  | of which are non-zero points    :   487380
  Summing up potential from multipole expanded  density.
  Summing up the Hartree potential.
  Time summed over all CPUs for potential: real work        6.413 s, elapsed        6.683 s
  Fitting esp charges to potential.
  |
  | ESP charges fitted to the electrostatic potential :
  |
  | Atom         1: C, ESP charge:      0.62541762
  |
  | Atom         2: C, ESP charge:     -0.64909449
  |
  | Atom         3: O, ESP charge:      0.54592402
  |
  | Atom         4: H, ESP charge:     -0.17964368
  |
  | Atom         5: H, ESP charge:     -0.17660785
  |
  | Atom         6: H, ESP charge:     -0.17884224
  |
  | Atom         7: N, ESP charge:      0.40196753
  |
  | Atom         8: C, ESP charge:     -0.28745731
  |
  | Atom         9: C, ESP charge:     -0.33387316
  |
  | Atom        10: O, ESP charge:      0.49531575
  |
  | Atom        11: H, ESP charge:     -0.25326573
  |
  | Atom        12: H, ESP charge:     -0.04888461
  |
  | Atom        13: C, ESP charge:      0.60014977
  |
  | Atom        14: H, ESP charge:     -0.19154069
  |
  | Atom        15: H, ESP charge:     -0.15673194
  |
  | Atom        16: H, ESP charge:     -0.15188475
  |
  | Atom        17: N, ESP charge:      0.29784861
  |
  | Atom        18: C, ESP charge:      0.23626552
  |
  | Atom        19: C, ESP charge:     -0.62342612
  |
  | Atom        20: O, ESP charge:      0.49858751
  |
  | Atom        21: H, ESP charge:     -0.28399241
  |
  | Atom        22: H, ESP charge:     -0.16627925
  |
  | Atom        23: C, ESP charge:      0.21775928
  |
  | Atom        24: H, ESP charge:     -0.04254415
  |
  | Atom        25: H, ESP charge:     -0.06348873
  |
  | Atom        26: H, ESP charge:     -0.12019188
  |
  | Atom        27: N, ESP charge:      0.50883622
  |
  | Atom        28: C, ESP charge:      0.43592600
  |
  | Atom        29: H, ESP charge:     -0.40453656
  |
  | Atom        30: H, ESP charge:     -0.17144775
  |
  | Atom        31: H, ESP charge:     -0.19795480
  |
  | Atom        32: H, ESP charge:     -0.18230972

  RRMS:       0.00332851

  Done.

------------------------------------------------------------------------------
  Final output of selected total energy values:

  The following output summarizes some interesting total energy values
  at the end of a run (AFTER all relaxation, molecular dynamics, etc.).

  | Total energy of the DFT / Hartree-Fock s.c.f. calculation      :         -20208.303132162 eV
  | Final zero-broadening corrected energy (caution - metals only) :         -20208.303132162 eV
  | For reference only, the value of 1 Hartree used in FHI-aims is :             27.211384500 eV

  Before relying on these values, please be sure to understand exactly which
  total energy value is referred to by a given number. Different objects may
  all carry the same name 'total energy'. Definitions:

  Total energy of the DFT / Hartree-Fock s.c.f. calculation:
  | Note that this energy does not include ANY quantities calculated after the
  | s.c.f. cycle, in particular not ANY RPA, MP2, etc. many-body perturbation terms.

  Final zero-broadening corrected energy:
  | For metallic systems only, a broadening of the occupation numbers at the Fermi
  | level can be extrapolated back to zero broadening by an electron-gas inspired
  | formula. For all systems that are not real metals, this value can be
  | meaningless and should be avoided.

------------------------------------------------------------------------------
  Methods described in the following list of references were used in this FHI-aims run.
  If you publish the results, please make sure to cite these reference if they apply.
  FHI-aims is an academic code, and for our developers (often, Ph.D. students
  and postdocs), scientific credit in the community is essential.
  Thank you for helping us!

  For any use of FHI-aims, please cite:

    Volker Blum, Ralf Gehrke, Felix Hanke, Paula Havu, Ville Havu,
    Xinguo Ren, Karsten Reuter, and Matthias Scheffler
    'Ab initio molecular simulations with numeric atom-centered orbitals'
    Computer Physics Communications 180, 2175-2196 (2009)
    http://dx.doi.org/10.1016/j.cpc.2009.06.022


  The scalable eigensolver library ELPA was used in your run.
  ELPA is essential especially for large systems on hundreds or thousands of CPUs.
  For ELPA, please cite:

    Andreas Marek, Volker Blum, Rainer Johanni, Ville Havu, Bruno Lang,
    Thomas Auckenthaler, Alexander Heinecke, Hans-Joachim Bungartz, and Hermann Lederer,
    'The ELPA Library - Scalable Parallel Eigenvalue Solutions
    for Electronic Structure Theory and Computational Science'
    The Journal of Physics: Condensed Matter 26, 213201 (2014).
    http://dx.doi.org/10.1088/0953-8984/26/21/213201


  For ELPA's efficient two-stage tridiagonalization used in your run, please cite:

    T. Auckenthaler, V. Blum, H.-J. Bungartz, T. Huckle, R. Johanni, L. Kraemer,
    B. Lang, H. Lederer, and P. R. Willems,
    'Parallel solution of partial symmetric eigenvalue problems'
    'from  electronic structure calculations'
    Parallel Computing 37, 783-794 (2011).
    http://dx.doi.org/10.1016/j.parco.2011.05.002


  For the real-space grid partitioning and parallelization used in this calculation, please cite:

    Ville Havu, Volker Blum, Paula Havu, and Matthias Scheffler,
    'Efficient O(N) integration for all-electron electronic structure calculation'
    'using numerically tabulated basis functions'
    Journal of Computational Physics 228, 8367-8379 (2009).
    http://dx.doi.org/10.1016/j.jcp.2009.08.008

  Of course, there are many other important community references, e.g., those cited in the
  above references. Our list is limited to references that describe implementations in the
  FHI-aims code. The reason is purely practical (length of this list) - please credit others as well.

------------------------------------------------------------
          Leaving FHI-aims.
          Date     :  20170309, Time     :  183143.520

          Computational steps:
          | Number of self-consistency cycles          :           14

          Detailed time accounting                     :  max(cpu_time)    wall_clock(cpu1)
          | Total time                                 :       32.862 s          33.045 s
          | Preparation time                           :        0.236 s           0.234 s
          | Grid partitioning                          :        0.296 s           0.283 s
          | Preloading free-atom quantities on grid    :        0.032 s           0.028 s
          | Free-atom superposition energy             :        0.044 s           0.041 s
          | Total time for integrations                :       12.625 s          12.609 s
          | Total time for solution of K.-S. equations :        0.580 s           0.544 s
          | Total time for density & force components  :       10.525 s          10.492 s
          | Total time for mixing                      :        0.128 s           0.103 s
          | Total time for Hartree multipole update    :        0.088 s           0.059 s
          | Total time for Hartree multipole sum       :        6.288 s           6.254 s
          | Total time for total energy evaluation     :        0.036 s           0.024 s
          | Total time for vdW correction              :        0.132 s           0.131 s

          Have a nice day.
------------------------------------------------------------
