  MPI-parallelism will be employed.
------------------------------------------------------------
          Invoking FHI-aims ...
          Version 150427
          Git rev.: 9dd23e0 BL: Update Version stamp
          Compiled on 2015/11/03 at 22:05:20 on host eos03.

          When using FHI-aims, please cite the following reference:

          Volker Blum, Ralf Gehrke, Felix Hanke, Paula Havu,
          Ville Havu, Xinguo Ren, Karsten Reuter, and Matthias Scheffler,
          'Ab Initio Molecular Simulations with Numeric Atom-Centered Orbitals: FHI-aims',
          Computer Physics Communications 180, 2175-2196 (2009)

          For any questions about FHI-aims, please visit the aimsclub website
          with its forums and wiki. Contributions to both the forums and the
          wiki are warmly encouraged - they are for you, and everyone is welcome there.

------------------------------------------------------------

  Date     :  20170309, Time     :  190540.499
  Time zero on CPU 1             :   0.416026000000000E+00  s.
  Internal wall clock time zero  :           258318340.499  s.

  Using       32 parallel tasks.
  Task        0 on host eos366 reporting.
  Task        1 on host eos366 reporting.
  Task        2 on host eos366 reporting.
  Task        3 on host eos366 reporting.
  Task        4 on host eos366 reporting.
  Task        5 on host eos366 reporting.
  Task        6 on host eos366 reporting.
  Task        7 on host eos366 reporting.
  Task        8 on host eos366 reporting.
  Task        9 on host eos366 reporting.
  Task       10 on host eos366 reporting.
  Task       11 on host eos366 reporting.
  Task       12 on host eos366 reporting.
  Task       13 on host eos366 reporting.
  Task       14 on host eos366 reporting.
  Task       15 on host eos366 reporting.
  Task       16 on host eos366 reporting.
  Task       17 on host eos366 reporting.
  Task       18 on host eos366 reporting.
  Task       19 on host eos366 reporting.
  Task       20 on host eos366 reporting.
  Task       21 on host eos366 reporting.
  Task       22 on host eos366 reporting.
  Task       23 on host eos366 reporting.
  Task       24 on host eos366 reporting.
  Task       25 on host eos366 reporting.
  Task       26 on host eos366 reporting.
  Task       27 on host eos366 reporting.
  Task       28 on host eos366 reporting.
  Task       29 on host eos366 reporting.
  Task       30 on host eos366 reporting.
  Task       31 on host eos366 reporting.

  Performing system and environment tests:
  | Environment variable OMP_NUM_THREADS correctly set to 1.
  | Stacksize not measured: no C compiler
  | Checking for scalapack...
  | Testing pdtran()...
  | All pdtran() tests passed.

  Obtaining array dimensions for all initial allocations:
  
  -----------------------------------------------------------------------
  Parsing control.in (first pass over file, find array dimensions only).
  The contents of control.in will be repeated verbatim below
  unless switched off by setting 'verbatim_writeout .false.' .
  in the first line of control.in .
  -----------------------------------------------------------------------
  
  #########################################################################################
  #
  # Input for System
  #
  #########################################################################################
  #
  #
  #  Physical model
  #
    xc                 pbe
    vdw_correction_hirshfeld
    spin               none
    charge             0.
  #
  #  SCF convergence
  #
    occupation_type    gaussian 0.05
    mixer              pulay
      n_max_pulay        10
      charge_mix_param   0.5
    sc_accuracy_rho    1E-4
    sc_accuracy_eev    1E-2
    sc_accuracy_etot   1E-5
    sc_accuracy_forces 1E-4
    sc_iter_limit      1000
  #
  #  ESP charge
  #
    output esp
    esp equal_grid_n 80 80 80
  #
  #
  ################################################################################
  #
  #  FHI-aims code project
  # Volker Blum, Fritz Haber Institute Berlin, 2009
  #
  #  Suggested "tight" defaults for H atom (to be pasted into control.in file)
  #
  ################################################################################
    species        H
  #     global species definitions
      nucleus             1
      mass                1.00794
  #
      l_hartree           6
  #
      cut_pot             4.0  2.0  1.0
      basis_dep_cutoff    1e-4
  #
      radial_base         24 7.0
      radial_multiplier   2
      angular_grids       specified
        division   0.1930   50
        division   0.3175  110
        division   0.4293  194
        division   0.5066  302
        division   0.5626  434
  #      division   0.5922  590
  #      division   0.6227  974
  #      division   0.6868 1202
  #      outer_grid  770
        outer_grid  434
  ################################################################################
  #
  #  Definition of "minimal" basis
  #
  ################################################################################
  #     valence basis states
      valence      1  s   1.
  #     ion occupancy
      ion_occ      1  s   0.5
  ################################################################################
  #
  #  Suggested additional basis functions. For production calculations,
  #  uncomment them one after another (the most important basis functions are
  #  listed first).
  #
  #  Basis constructed for dimers: 0.5 A, 0.7 A, 1.0 A, 1.5 A, 2.5 A
  #
  ################################################################################
  #  "First tier" - improvements: -1014.90 meV to -62.69 meV
       hydro 2 s 2.1
       hydro 2 p 3.5
  #  "Second tier" - improvements: -12.89 meV to -1.83 meV
       hydro 1 s 0.85
       hydro 2 p 3.7
       hydro 2 s 1.2
       hydro 3 d 7
  #  "Third tier" - improvements: -0.25 meV to -0.12 meV
  #     hydro 4 f 11.2
  #     hydro 3 p 4.8
  #     hydro 4 d 9
  #     hydro 3 s 3.2
  ################################################################################
  #
  # For methods that use the localized form of the "resolution of identity" for
  # the two-electron Coulomb operator (RI_method LVL), particularly Hartree-Fock and
  # hybrid density functional calculations, the highest accuracy can be obtained by
  # uncommenting the line beginning with "for_aux"  below, thus adding an extra g radial
  # function to the construction of the product basis set for the expansion.
  # See Ref. New J. Phys. 17, 093020 (2015) for more information, particularly Figs. 1 and 6.
  #
  ################################################################################
  #
  # for_aux hydro 5 g 6.0
  ################################################################################
  #
  #  FHI-aims code project
  # Volker Blum, Fritz Haber Institute Berlin, 2009
  #
  #  Suggested "tight" defaults for C atom (to be pasted into control.in file)
  #
  ################################################################################
    species        C
  #     global species definitions
      nucleus             6
      mass                12.0107
  #
      l_hartree           6
  #
      cut_pot             4.0  2.0  1.0
      basis_dep_cutoff    1e-4
  #
      radial_base         34 7.0
      radial_multiplier   2
      angular_grids specified
        division   0.2187   50
        division   0.4416  110
        division   0.6335  194
        division   0.7727  302
        division   0.8772  434
  #      division   0.9334  590
  #      division   0.9924  770
  #      division   1.0230  974
  #      division   1.5020 1202
  #     outer_grid  974
        outer_grid  434
  ################################################################################
  #
  #  Definition of "minimal" basis
  #
  ################################################################################
  #     valence basis states
      valence      2  s   2.
      valence      2  p   2.
  #     ion occupancy
      ion_occ      2  s   1.
      ion_occ      2  p   1.
  ################################################################################
  #
  #  Suggested additional basis functions. For production calculations,
  #  uncomment them one after another (the most important basis functions are
  #  listed first).
  #
  #  Constructed for dimers: 1.0 A, 1.25 A, 1.5 A, 2.0 A, 3.0 A
  #
  ################################################################################
  #  "First tier" - improvements: -1214.57 meV to -155.61 meV
       hydro 2 p 1.7
       hydro 3 d 6
       hydro 2 s 4.9
  #  "Second tier" - improvements: -67.75 meV to -5.23 meV
       hydro 4 f 9.8
       hydro 3 p 5.2
       hydro 3 s 4.3
       hydro 5 g 14.4
       hydro 3 d 6.2
  #  "Third tier" - improvements: -2.43 meV to -0.60 meV
  #     hydro 2 p 5.6
  #     hydro 2 s 1.4
  #     hydro 3 d 4.9
  #     hydro 4 f 11.2
  #  "Fourth tier" - improvements: -0.39 meV to -0.18 meV
  #     hydro 2 p 2.1
  #     hydro 5 g 16.4
  #     hydro 4 d 13.2
  #     hydro 3 s 13.6
  #     hydro 4 f 17.6
  #  Further basis functions - improvements: -0.08 meV and below
  #     hydro 3 s 2
  #     hydro 3 p 6
  #     hydro 4 d 20
  ################################################################################
  #
  # For methods that use the localized form of the "resolution of identity" for
  # the two-electron Coulomb operator (RI_method LVL), particularly Hartree-Fock and
  # hybrid density functional calculations, the highest accuracy can be obtained by
  # uncommenting the line beginning with "for_aux"  below, thus adding an extra g radial
  # function to the construction of the product basis set for the expansion.
  # See Ref. New J. Phys. 17, 093020 (2015) for more information, particularly Figs. 1 and 6.
  #
  ################################################################################
  #
  # for_aux hydro 5 g 6.0
  ################################################################################
  #
  #  FHI-aims code project
  # Volker Blum, Fritz Haber Institute Berlin, 2009
  #
  #  Suggested "tight" defaults for N atom (to be pasted into control.in file)
  #
  ################################################################################
    species        N
  #     global species definitions
      nucleus             7
      mass                14.0067
  #
      l_hartree           6
  #
      cut_pot             4.0  2.0  1.0
      basis_dep_cutoff    1e-4
  #
      radial_base         35 7.0
      radial_multiplier   2
      angular_grids       specified
        division   0.1841   50
        division   0.3514  110
        division   0.5126  194
        division   0.6292  302
        division   0.6939  434
  #      division   0.7396  590
  #      division   0.7632  770
  #      division   0.8122  974
  #      division   1.1604 1202
  #      outer_grid  974
        outer_grid  434
  ################################################################################
  #
  #  Definition of "minimal" basis
  #
  ################################################################################
  #     valence basis states
      valence      2  s   2.
      valence      2  p   3.
  #     ion occupancy
      ion_occ      2  s   1.
      ion_occ      2  p   2.
  ################################################################################
  #
  #  Suggested additional basis functions. For production calculations,
  #  uncomment them one after another (the most important basis functions are
  #  listed first).
  #
  #  Constructed for dimers: 1.0 A, 1.1 A, 1.5 A, 2.0 A, 3.0 A
  #
  ################################################################################
  #  "First tier" - improvements: -1193.42 meV to -220.60 meV
       hydro 2 p 1.8
       hydro 3 d 6.8
       hydro 3 s 5.8
  #  "Second tier" - improvements: -80.21 meV to -6.86 meV
       hydro 4 f 10.8
       hydro 3 p 5.8
       hydro 1 s 0.8
       hydro 5 g 16
       hydro 3 d 4.9
  #  "Third tier" - improvements: -4.29 meV to -0.53 meV
  #     hydro 3 s 16
  #     ionic 2 p auto
  #     hydro 3 d 6.6
  #     hydro 4 f 11.6
  #  "Fourth tier" - improvements: -0.75 meV to -0.25 meV
  #     hydro 2 p 4.5
  #     hydro 2 s 2.4
  #     hydro 5 g 14.4
  #     hydro 4 d 14.4
  #     hydro 4 f 16.8
  # Further basis functions - -0.21 meV and below
  #     hydro 3 p 14.8
  #     hydro 3 s 4.4
  #     hydro 3 d 19.6
  #     hydro 5 g 12.8
  ################################################################################
  #
  # For methods that use the localized form of the "resolution of identity" for
  # the two-electron Coulomb operator (RI_method LVL), particularly Hartree-Fock and
  # hybrid density functional calculations, the highest accuracy can be obtained by
  # uncommenting the line beginning with "for_aux"  below, thus adding an extra g radial
  # function to the construction of the product basis set for the expansion.
  # See Ref. New J. Phys. 17, 093020 (2015) for more information, particularly Figs. 1 and 6.
  #
  ################################################################################
  #
  # for_aux hydro 5 g 6.0
  ################################################################################
  #
  #  FHI-aims code project
  # Volker Blum, Fritz Haber Institute Berlin, 2009
  #
  #  Suggested "tight" defaults for O atom (to be pasted into control.in file)
  #
  ################################################################################
    species        O
  #     global species definitions
      nucleus             8
      mass                15.9994
  #
      l_hartree           6
  #
      cut_pot             4.0  2.0  1.0
      basis_dep_cutoff    1e-4
  #
      radial_base         36 7.0
      radial_multiplier   2
       angular_grids specified
        division   0.1817   50
        division   0.3417  110
        division   0.4949  194
        division   0.6251  302
        division   0.8014  434
  #      division   0.8507  590
  #      division   0.8762  770
  #      division   0.9023  974
  #      division   1.2339 1202
  #      outer_grid 974
        outer_grid  434
  ################################################################################
  #
  #  Definition of "minimal" basis
  #
  ################################################################################
  #     valence basis states
      valence      2  s   2.
      valence      2  p   4.
  #     ion occupancy
      ion_occ      2  s   1.
      ion_occ      2  p   3.
  ################################################################################
  #
  #  Suggested additional basis functions. For production calculations,
  #  uncomment them one after another (the most important basis functions are
  #  listed first).
  #
  #  Constructed for dimers: 1.0 A, 1.208 A, 1.5 A, 2.0 A, 3.0 A
  #
  ################################################################################
  #  "First tier" - improvements: -699.05 meV to -159.38 meV
       hydro 2 p 1.8
       hydro 3 d 7.6
       hydro 3 s 6.4
  #  "Second tier" - improvements: -49.91 meV to -5.39 meV
       hydro 4 f 11.6
       hydro 3 p 6.2
       hydro 3 d 5.6
       hydro 5 g 17.6
       hydro 1 s 0.75
  #  "Third tier" - improvements: -2.83 meV to -0.50 meV
  #     ionic 2 p auto
  #     hydro 4 f 10.8
  #     hydro 4 d 4.7
  #     hydro 2 s 6.8
  #  "Fourth tier" - improvements: -0.40 meV to -0.12 meV
  #     hydro 3 p 5
  #     hydro 3 s 3.3
  #     hydro 5 g 15.6
  #     hydro 4 f 17.6
  #     hydro 4 d 14
  # Further basis functions - -0.08 meV and below
  #     hydro 3 s 2.1
  #     hydro 4 d 11.6
  #     hydro 3 p 16
  #     hydro 2 s 17.2
  ################################################################################
  #
  # For methods that use the localized form of the "resolution of identity" for
  # the two-electron Coulomb operator (RI_method LVL), particularly Hartree-Fock and
  # hybrid density functional calculations, the highest accuracy can be obtained by
  # uncommenting the line beginning with "for_aux"  below, thus adding an extra g radial
  # function to the construction of the product basis set for the expansion.
  # See Ref. New J. Phys. 17, 093020 (2015) for more information, particularly Figs. 1 and 6.
  #
  ################################################################################
  #
  # for_aux hydro 5 g 6.0
  
  -----------------------------------------------------------------------
  Completed first pass over input file control.in .
  -----------------------------------------------------------------------
  
  
  -----------------------------------------------------------------------
  Parsing geometry.in (first pass over file, find array dimensions only).
  The contents of geometry.in will be repeated verbatim below
  unless switched off by setting 'verbatim_writeout .false.' .
  in the first line of geometry.in .
  -----------------------------------------------------------------------
  
  #
  # This is the geometry file that corresponds to the current relaxation step.
  # If you do not want this file to be written, set the "write_restart_geometry" flag to .false.
  #
  atom       0.23173769     -1.07877456      0.75813137 C
  atom      -0.18441695      0.18307689      1.49178818 C
  atom       0.60165294      1.10385986      1.71543553 O
  atom       1.05045006     -1.55371290      1.31320847 H
  atom       0.62332355     -0.80075555     -0.22828002 H
  atom      -0.58235342     -1.80275183      0.62960542 H
  atom      -1.49173573      0.22852954      1.88226715 N
  atom      -2.02975549      1.32804315      2.65532829 C
  atom      -3.22653316      0.77631965      3.44693654 C
  atom      -3.81392041     -0.24808329      3.08714232 O
  atom      -2.11781801     -0.56509831      1.76665522 H
  atom      -1.24225630      1.67191731      3.34547502 H
  atom      -2.45959479      2.51082512      1.76654051 C
  atom      -2.83004834      3.34948642      2.37087404 H
  atom      -3.25435300      2.19993413      1.07575520 H
  atom      -1.59638275      2.85601867      1.18575419 H
  atom      -3.59961489      1.53210676      4.51137434 N
  atom      -4.70383491      1.22130059      5.43055571 C
  atom      -4.26755321      0.07214769      6.38680166 C
  atom      -3.45427210      0.36198455      7.26720519 O
  atom      -2.94592312      2.24200911      4.82139968 H
  atom      -4.71981390      2.06879171      6.12849636 H
  atom      -6.06450948      1.18549930      4.73123534 C
  atom      -6.28599680      2.18510719      4.33470858 H
  atom      -6.85242075      0.92840765      5.45116808 H
  atom      -6.09848424      0.47728507      3.89983168 H
  atom      -4.76543099     -1.19172923      6.29181492 N
  atom      -5.58074373     -1.83853828      5.27022967 C
  atom      -4.37976988     -1.78800990      7.01866168 H
  atom      -5.25257420     -1.54508186      4.26725643 H
  atom      -6.65233030     -1.62256855      5.39205458 H
  atom      -5.44350336     -2.92112608      5.36994269 H
  
  -----------------------------------------------------------------------
  Completed first pass over input file geometry.in .
  -----------------------------------------------------------------------
  

  Basic array size parameters:
  | Number of species                 :        4
  | Number of atoms                   :       32
  | Max. basis fn. angular momentum   :        4
  | Max. atomic/ionic basis occupied n:        2
  | Max. number of basis fn. types    :        2
  | Max. radial fns per species/type  :        8
  | Max. logarithmic grid size        :     1301
  | Max. radial integration grid size :       73
  | Max. angular integration grid size:      434
  | Max. angular grid division number :        8
  | Radial grid for Hartree potential :     1301
  | Number of spin channels           :        1

------------------------------------------------------------
          Reading file control.in.
------------------------------------------------------------
  XC: Using PBE gradient-corrected functionals.
  Spin treatment: No spin polarisation.
  Charge =   0.000000E+00: Neutral system requested explicitly.
  Occupation type: Gaussian broadening, width =   0.500000E-01 eV.
  Using pulay charge density mixing.
  Pulay mixing - number of memorized iterations:   10
  Charge density mixing - mixing parameter:     0.5000
  Convergence accuracy of self-consistent charge density:  0.1000E-03
  Convergence accuracy of sum of eigenvalues:  0.1000E-01
  Convergence accuracy of total energy:  0.1000E-04
  Convergence accuracy of forces:  0.1000E-03
  Maximum number of s.-c. iterations  :  1000
  Fitting ESP-charges to Potential. 
  | Esp charge output options: 
  | ESP Grid method: 3, cubic grid
  | Number of points in x, ,y, z:  0080 0080 0080
  |
 
  Reading configuration options for species H                   .
  | Found nuclear charge :   1.0000
  | Found atomic mass :    1.00794000000000      amu
  | Found l_max for Hartree potential  :   6
  | Found cutoff potl. onset [A], width [A], scale factor :    4.00000    2.00000    1.00000
  | Threshold for basis-dependent cutoff potential is   0.100000E-03
  | Found data for basic radial integration grid :    24 points, outermost radius =    7.000 A
  | Found multiplier for basic radial grid :   2
  | Found angular grid specification: user-specified.
  | Specified grid contains     6 separate shells.
  | Check grid settings after all constraints further below.
  | Found free-atom valence shell :  1 s   1.000
  | No ionic wave fns used. Skipping ion_occ.
  | Found hydrogenic basis function :  2 s   2.100
  | Found hydrogenic basis function :  2 p   3.500
  | Found hydrogenic basis function :  1 s   0.850
  | Found hydrogenic basis function :  2 p   3.700
  | Found hydrogenic basis function :  2 s   1.200
  | Found hydrogenic basis function :  3 d   7.000
  Species H                   : Missing cutoff potential type.
  Defaulting to exp(1/x)/(1-x)^2 type cutoff potential.
  Species H : No 'logarithmic' tag. Using default grid for free atom:
  | Default logarithmic grid data [bohr] : 0.1000E-03 0.1000E+03 0.1012E+01
  Species H : On-site basis accuracy parameter (for Gram-Schmidt orthonormalisation) not specified.
  Using default value basis_acc =  0.1000000E-03.
  Species H                   : Using default innermost maximum threshold i_radial=  2 for radial functions.
  Species H                   : Default cutoff onset for free atom density etc. : 0.40000000E+01 AA.
  Species H                   : Basic radial grid will be enhanced according to radial_multiplier =   2, to contain    49 grid points.
 
  Reading configuration options for species C                   .
  | Found nuclear charge :   6.0000
  | Found atomic mass :    12.0107000000000      amu
  | Found l_max for Hartree potential  :   6
  | Found cutoff potl. onset [A], width [A], scale factor :    4.00000    2.00000    1.00000
  | Threshold for basis-dependent cutoff potential is   0.100000E-03
  | Found data for basic radial integration grid :    34 points, outermost radius =    7.000 A
  | Found multiplier for basic radial grid :   2
  | Found angular grid specification: user-specified.
  | Specified grid contains     6 separate shells.
  | Check grid settings after all constraints further below.
  | Found free-atom valence shell :  2 s   2.000
  | Found free-atom valence shell :  2 p   2.000
  | No ionic wave fns used. Skipping ion_occ.
  | No ionic wave fns used. Skipping ion_occ.
  | Found hydrogenic basis function :  2 p   1.700
  | Found hydrogenic basis function :  3 d   6.000
  | Found hydrogenic basis function :  2 s   4.900
  | Found hydrogenic basis function :  4 f   9.800
  | Found hydrogenic basis function :  3 p   5.200
  | Found hydrogenic basis function :  3 s   4.300
  | Found hydrogenic basis function :  5 g  14.400
  | Found hydrogenic basis function :  3 d   6.200
  Species C                   : Missing cutoff potential type.
  Defaulting to exp(1/x)/(1-x)^2 type cutoff potential.
  Species C : No 'logarithmic' tag. Using default grid for free atom:
  | Default logarithmic grid data [bohr] : 0.1000E-03 0.1000E+03 0.1012E+01
  Species C : On-site basis accuracy parameter (for Gram-Schmidt orthonormalisation) not specified.
  Using default value basis_acc =  0.1000000E-03.
  Species C                   : Using default innermost maximum threshold i_radial=  2 for radial functions.
  Species C                   : Default cutoff onset for free atom density etc. : 0.40000000E+01 AA.
  Species C                   : Basic radial grid will be enhanced according to radial_multiplier =   2, to contain    69 grid points.
 
  Reading configuration options for species N                   .
  | Found nuclear charge :   7.0000
  | Found atomic mass :    14.0067000000000      amu
  | Found l_max for Hartree potential  :   6
  | Found cutoff potl. onset [A], width [A], scale factor :    4.00000    2.00000    1.00000
  | Threshold for basis-dependent cutoff potential is   0.100000E-03
  | Found data for basic radial integration grid :    35 points, outermost radius =    7.000 A
  | Found multiplier for basic radial grid :   2
  | Found angular grid specification: user-specified.
  | Specified grid contains     6 separate shells.
  | Check grid settings after all constraints further below.
  | Found free-atom valence shell :  2 s   2.000
  | Found free-atom valence shell :  2 p   3.000
  | No ionic wave fns used. Skipping ion_occ.
  | No ionic wave fns used. Skipping ion_occ.
  | Found hydrogenic basis function :  2 p   1.800
  | Found hydrogenic basis function :  3 d   6.800
  | Found hydrogenic basis function :  3 s   5.800
  | Found hydrogenic basis function :  4 f  10.800
  | Found hydrogenic basis function :  3 p   5.800
  | Found hydrogenic basis function :  1 s   0.800
  | Found hydrogenic basis function :  5 g  16.000
  | Found hydrogenic basis function :  3 d   4.900
  Species N                   : Missing cutoff potential type.
  Defaulting to exp(1/x)/(1-x)^2 type cutoff potential.
  Species N : No 'logarithmic' tag. Using default grid for free atom:
  | Default logarithmic grid data [bohr] : 0.1000E-03 0.1000E+03 0.1012E+01
  Species N : On-site basis accuracy parameter (for Gram-Schmidt orthonormalisation) not specified.
  Using default value basis_acc =  0.1000000E-03.
  Species N                   : Using default innermost maximum threshold i_radial=  2 for radial functions.
  Species N                   : Default cutoff onset for free atom density etc. : 0.40000000E+01 AA.
  Species N                   : Basic radial grid will be enhanced according to radial_multiplier =   2, to contain    71 grid points.
 
  Reading configuration options for species O                   .
  | Found nuclear charge :   8.0000
  | Found atomic mass :    15.9994000000000      amu
  | Found l_max for Hartree potential  :   6
  | Found cutoff potl. onset [A], width [A], scale factor :    4.00000    2.00000    1.00000
  | Threshold for basis-dependent cutoff potential is   0.100000E-03
  | Found data for basic radial integration grid :    36 points, outermost radius =    7.000 A
  | Found multiplier for basic radial grid :   2
  | Found angular grid specification: user-specified.
  | Specified grid contains     6 separate shells.
  | Check grid settings after all constraints further below.
  | Found free-atom valence shell :  2 s   2.000
  | Found free-atom valence shell :  2 p   4.000
  | No ionic wave fns used. Skipping ion_occ.
  | No ionic wave fns used. Skipping ion_occ.
  | Found hydrogenic basis function :  2 p   1.800
  | Found hydrogenic basis function :  3 d   7.600
  | Found hydrogenic basis function :  3 s   6.400
  | Found hydrogenic basis function :  4 f  11.600
  | Found hydrogenic basis function :  3 p   6.200
  | Found hydrogenic basis function :  3 d   5.600
  | Found hydrogenic basis function :  5 g  17.600
  | Found hydrogenic basis function :  1 s   0.750
  Species O                   : Missing cutoff potential type.
  Defaulting to exp(1/x)/(1-x)^2 type cutoff potential.
  Species O : No 'logarithmic' tag. Using default grid for free atom:
  | Default logarithmic grid data [bohr] : 0.1000E-03 0.1000E+03 0.1012E+01
  Species O : On-site basis accuracy parameter (for Gram-Schmidt orthonormalisation) not specified.
  Using default value basis_acc =  0.1000000E-03.
  Species O                   : Using default innermost maximum threshold i_radial=  2 for radial functions.
  Species O                   : Default cutoff onset for free atom density etc. : 0.40000000E+01 AA.
  Species O                   : Basic radial grid will be enhanced according to radial_multiplier =   2, to contain    73 grid points.
 
  Finished reading input file 'control.in'. Consistency checks are next.
 
  Target number of points in a grid batch is not set. Defaulting to  100
  Method for grid partitioning is not set. Defaulting to parallel hash+maxmin partitioning.
  Batch size limit is not set. Defaulting to    200
  By default, will store active basis functions for each batch.
  If in need of memory, prune_basis_once .false. can be used to disable this option.
  communication_type for Hartree potential was not specified.
  Defaulting to calc_hartree .
  Pulay mixer: Number of initial linear mixing iterations not set.
  Defaulting to    0 iterations.
  Work space size for distributed Hartree potential not set.
  Defaulting to   0.200000E+03 MB.
  Algorithm-dependent basis array size parameters:
  | n_max_pulay                         :       10
  Geometry relaxation not requested: no relaxation will be performed.
  Handling of forces: Unphysical translation and rotation will be removed from forces.
  No accuracy limit for integral partition fn. given. Defaulting to  0.1000E-14.
  No threshold value for u(r) in integrations given. Defaulting to  0.1000E-05.
  No accuracy for occupation numbers given. Defaulting to  0.1000E-07.
  No threshold value for occupation numbers given. Defaulting to  0.0000E+00.
  No accuracy for fermi level given. Defaulting to  0.1000E-19.
  Maximum # of iterations to find E_F not set. Defaulting to  200.
  Preferred method for the eigenvalue solver ('KS_method') not specified in 'control.in'.
  Calling blacs routine to test compilation state
  Since scalapack support is enabled, defaulting to 'elpa'.
  Preferred method for the MBD eigenvalue solver ('mbd_eigensolver') not specified in 'control.in'.
  Calling blacs routine to test compilation state
  Since scalapack support is enabled, defaulting to 'scaLAPACK'.
  Will not use alltoall communication since running on < 1024 CPUs.
  Threshold for basis singularities not set.
  Default threshold for basis singularities:  0.1000E-04
  partition_type (choice of integration weights) for integrals was not specified.
  | Using a version of the partition function of Stratmann and coworkers ('stratmann_smoother').
  | At each grid point, the set of atoms used to build the partition table is smoothly restricted to
  | only those atoms whose free-atom density would be non-zero at that grid point.
  Partitioning for Hartree potential was not defined. Using partition_type for integrals.
  | Adjusted default value of keyword multip_moments_threshold to:       0.10000000E-11
  | This value may affect high angular momentum components of the Hartree potential in periodic systems.
  No q(lm)/r^(l+1) cutoff set for long-range Hartree potential.
  | Using default value of  0.100000E-09 .
  | Verify using the multipole_threshold keyword.
  Defaulting to new monopole extrapolation.
  Density update method: automatic selection selected.
------------------------------------------------------------


------------------------------------------------------------
          Reading geometry description geometry.in.
------------------------------------------------------------
 * Warning! You did not set the 'relativistic' flag in input file 'control.in'.
 * Since you are not attempting to treat any elements beyond Ca(Z=20), FHI-aims
 * will default to 'relativistic none'.
 * You must ensure that this is really what you want!!
 * For example, DO NOT compute total-energy differences between results from
 * different settings of the 'relativistic' flag.
  Input structure read successfully.
  The structure contains       32 atoms,  and a total of        116.000 electrons.

  Input geometry:
  | No unit cell requested.
  | Atomic structure:
  |       Atom                x [A]            y [A]            z [A]
  |    1: Species C              0.231738        -1.078775         0.758131
  |    2: Species C             -0.184417         0.183077         1.491788
  |    3: Species O              0.601653         1.103860         1.715436
  |    4: Species H              1.050450        -1.553713         1.313208
  |    5: Species H              0.623324        -0.800756        -0.228280
  |    6: Species H             -0.582353        -1.802752         0.629605
  |    7: Species N             -1.491736         0.228530         1.882267
  |    8: Species C             -2.029755         1.328043         2.655328
  |    9: Species C             -3.226533         0.776320         3.446937
  |   10: Species O             -3.813920        -0.248083         3.087142
  |   11: Species H             -2.117818        -0.565098         1.766655
  |   12: Species H             -1.242256         1.671917         3.345475
  |   13: Species C             -2.459595         2.510825         1.766541
  |   14: Species H             -2.830048         3.349486         2.370874
  |   15: Species H             -3.254353         2.199934         1.075755
  |   16: Species H             -1.596383         2.856019         1.185754
  |   17: Species N             -3.599615         1.532107         4.511374
  |   18: Species C             -4.703835         1.221301         5.430556
  |   19: Species C             -4.267553         0.072148         6.386802
  |   20: Species O             -3.454272         0.361985         7.267205
  |   21: Species H             -2.945923         2.242009         4.821400
  |   22: Species H             -4.719814         2.068792         6.128496
  |   23: Species C             -6.064509         1.185499         4.731235
  |   24: Species H             -6.285997         2.185107         4.334709
  |   25: Species H             -6.852421         0.928408         5.451168
  |   26: Species H             -6.098484         0.477285         3.899832
  |   27: Species N             -4.765431        -1.191729         6.291815
  |   28: Species C             -5.580744        -1.838538         5.270230
  |   29: Species H             -4.379770        -1.788010         7.018662
  |   30: Species H             -5.252574        -1.545082         4.267256
  |   31: Species H             -6.652330        -1.622569         5.392055
  |   32: Species H             -5.443503        -2.921126         5.369943
  |

  | The smallest distance between any two atoms is         1.01360248 AA.
  |
  | The first atom of this pair is atom number                     17 .
  | The second atom of this pair is atom number                    21 .

  Number of empty states per atom not set in control.in - providing a guess from actual geometry.
  | Total number of empty states used during s.c.f. cycle:       71
  If you use a very high smearing, use empty_states (per atom!) in control.in to increase this value.

  Structure-dependent array size parameters: 
  | Maximum number of distinct radial functions  :       40
  | Maximum number of basis functions            :      840
  | Number of Kohn-Sham states (occupied + empty):      129
------------------------------------------------------------

------------------------------------------------------------
          Preparing all fixed parts of the calculation.
------------------------------------------------------------
  Determining machine precision:
    2.225073858507201E-308
  Setting up grids for atomic and cluster calculations.

  Creating wave function, potential, and density for free atoms.

  Species: H

  List of occupied orbitals and eigenvalues:
    n    l              occ      energy [Ha]    energy [eV]
    1    0           1.0000        -0.238382        -6.4867


  Species: C

  List of occupied orbitals and eigenvalues:
    n    l              occ      energy [Ha]    energy [eV]
    1    0           2.0000       -10.041232      -273.2358
    2    0           2.0000        -0.504327       -13.7234
    2    1           2.0000        -0.193750        -5.2722


  Species: N

  List of occupied orbitals and eigenvalues:
    n    l              occ      energy [Ha]    energy [eV]
    1    0           2.0000       -14.129007      -384.4699
    2    0           2.0000        -0.681802       -18.5528
    2    1           3.0000        -0.260543        -7.0897


  Species: O

  List of occupied orbitals and eigenvalues:
    n    l              occ      energy [Ha]    energy [eV]
    1    0           2.0000       -18.898576      -514.2564
    2    0           2.0000        -0.878795       -23.9132
    2    1           4.0000        -0.332075        -9.0362

  Creating fixed part of basis set: Ionic, confined, hydrogenic.
 
  H                    hydrogenic:
 
  List of hydrogenic basis orbitals: 
    n    l      effective z      eigenvalue [eV]  inner max. [A]     outer max. [A]     outer radius [A]   
    2    0         2.100000       -14.9965           0.193243           1.317208           5.373006
    2    1         3.500000       -41.6672           0.602369           0.602369           4.056063
    1    0         0.850000        -9.8292           0.624871           0.624871           5.373006
    2    1         3.700000       -46.5653           0.573622           0.573622           3.910002
    2    0         1.200000        -4.5995           0.334980           2.228188           5.505995
    3    2         7.000000       -74.0753           0.680699           0.680699           3.769201
 
 
  C                    hydrogenic:
 
  List of hydrogenic basis orbitals: 
    n    l      effective z      eigenvalue [eV]  inner max. [A]     outer max. [A]     outer radius [A]   
    2    1         1.700000        -9.8152           1.245706           1.245706           5.401630
    3    2         6.000000       -54.4226           0.792453           0.792453           4.178599
    2    0         4.900000       -81.6681           0.082559           0.562749           3.353238
    4    3         9.800000       -81.6681           0.863254           0.863254           4.028125
    3    1         5.200000       -40.8774           0.305389           1.215618           4.898362
    3    0         4.300000       -27.9508           0.091041           1.610311           5.401630
    5    4        14.400000      -112.8510           0.917666           0.917666           3.883070
    3    2         6.200000       -58.1113           0.763917           0.763917           4.077671
 
 
  N                    hydrogenic:
 
  List of hydrogenic basis orbitals: 
    n    l      effective z      eigenvalue [eV]  inner max. [A]     outer max. [A]     outer radius [A]   
    2    1         1.800000       -11.0118           1.177451           1.177451           5.427479
    3    2         6.800000       -69.9029           0.704619           0.704619           3.854246
    3    0         5.800000       -50.8549           0.067388           1.191934           4.629968
    4    3        10.800000       -99.1854           0.786571           0.786571           3.761152
    3    1         5.800000       -50.8549           0.274880           1.094176           4.518138
    1    0         0.800000        -8.7059           0.662839           0.662839           5.361532
    5    4        16.000000      -139.3222           0.825990           0.825990           3.625711
    3    2         4.900000       -36.2967           0.968267           0.968267           4.862000
 
 
  O                    hydrogenic:
 
  List of hydrogenic basis orbitals: 
    n    l      effective z      eigenvalue [eV]  inner max. [A]     outer max. [A]     outer radius [A]   
    2    1         1.800000       -11.0118           1.178562           1.178562           5.432602
    3    2         7.600000       -87.3182           0.624125           0.624125           3.541477
    3    0         6.400000       -61.9209           0.061167           1.081902           4.306578
    4    3        11.600000      -114.4238           0.731631           0.731631           3.585037
    3    1         6.200000       -58.1113           0.255680           1.030270           4.306578
    3    2         5.600000       -47.4081           0.847233           0.847233           4.413171
    5    4        17.600000      -168.5799           0.749740           0.749740           3.372465
    1    0         0.750000        -7.6499           0.705284           0.705284           5.366593
 

  Adding cutoff potential to free-atom effective potential.
  Creating atomic-like basis functions for current effective potential.

  Species H                   :

  List of atomic basis orbitals and eigenvalues:
    n    l      energy [Ha]    energy [eV]    outer radius [A]
    1    0        -0.238382        -6.4867       5.373006


  Species C                   :

  List of atomic basis orbitals and eigenvalues:
    n    l      energy [Ha]    energy [eV]    outer radius [A]
    1    0       -10.041232      -273.2358       1.934409
    2    0        -0.504327       -13.7234       5.271162
    2    1        -0.193750        -5.2722       5.401630


  Species N                   :

  List of atomic basis orbitals and eigenvalues:
    n    l      energy [Ha]    energy [eV]    outer radius [A]
    1    0       -14.129007      -384.4699       1.637919
    2    0        -0.681802       -18.5528       5.168461
    2    1        -0.260543        -7.0897       5.361532


  Species O                   :

  List of atomic basis orbitals and eigenvalues:
    n    l      energy [Ha]    energy [eV]    outer radius [A]
    1    0       -18.898576      -514.2564       1.415765
    2    0        -0.878795       -23.9132       5.048385
    2    1        -0.332075        -9.0362       5.301386

  Assembling full basis from fixed parts.
  | Species H :   atomic orbital   1 s accepted.
  | Species H :    hydro orbital   2 s accepted.
  | Species H :    hydro orbital   1 s accepted.
  | Species H :    hydro orbital   2 s accepted.
  | Species H :    hydro orbital   2 p accepted.
  | Species H :    hydro orbital   2 p accepted.
  | Species H :    hydro orbital   3 d accepted.
  | Species C :   atomic orbital   1 s accepted.
  | Species C :    hydro orbital   2 s accepted.
  | Species C :   atomic orbital   2 s accepted.
  | Species C :    hydro orbital   3 s accepted.
  | Species C :    hydro orbital   3 p accepted.
  | Species C :   atomic orbital   2 p accepted.
  | Species C :    hydro orbital   2 p accepted.
  | Species C :    hydro orbital   3 d accepted.
  | Species C :    hydro orbital   3 d accepted.
  | Species C :    hydro orbital   4 f accepted.
  | Species C :    hydro orbital   5 g accepted.
  | Species N :   atomic orbital   1 s accepted.
  | Species N :    hydro orbital   3 s accepted.
  | Species N :   atomic orbital   2 s accepted.
  | Species N :    hydro orbital   1 s accepted.
  | Species N :    hydro orbital   3 p accepted.
  | Species N :   atomic orbital   2 p accepted.
  | Species N :    hydro orbital   2 p accepted.
  | Species N :    hydro orbital   3 d accepted.
  | Species N :    hydro orbital   3 d accepted.
  | Species N :    hydro orbital   4 f accepted.
  | Species N :    hydro orbital   5 g accepted.
  | Species O :   atomic orbital   1 s accepted.
  | Species O :    hydro orbital   3 s accepted.
  | Species O :   atomic orbital   2 s accepted.
  | Species O :    hydro orbital   1 s accepted.
  | Species O :    hydro orbital   3 p accepted.
  | Species O :   atomic orbital   2 p accepted.
  | Species O :    hydro orbital   2 p accepted.
  | Species O :    hydro orbital   3 d accepted.
  | Species O :    hydro orbital   3 d accepted.
  | Species O :    hydro orbital   4 f accepted.
  | Species O :    hydro orbital   5 g accepted.
 
  Basis size parameters after reduction:
  | Total number of radial functions:       40
  | Total number of basis functions :      840
 
  Testing on-site integration grid accuracy.
  |  Species  Function  <phi|h_atom|phi> (log., in eV)  <phi|h_atom|phi> (rad., in eV)
           1        1                 -6.4869821809                 -6.4870742227
           1        2                 13.5044133542                 13.5041049177
           1        3                 32.7854418792                 32.7779770519
           1        4                 33.7995553101                 33.7152624900 ***
           1        5                 28.8558651799                 28.8558652046
           1        6                 59.6361831893                 59.6362535845
           1        7                 60.2733718049                 60.2733715484
           2        8               -273.2358277112               -273.2358261765
           2        9                -10.7624923123                -10.7625144012
           2       10                 17.4634079027                 17.4634252127
           2       11                 53.0363661832                 53.0366180446
           2       12                 15.0981351967                 15.0981317714
           2       13                  3.8522181899                  3.8522770949
           2       14                 12.1181835661                 12.1206868578
           2       15                 29.4320778347                 29.4320780959
           2       16                 54.8753777694                 54.8752901936
           2       17                 59.3533975461                 59.3533974833
           2       18                 93.4537491195                 93.4537492066
           3       19               -384.4698526889               -384.4698499465
           3       20                 12.5691022037                 12.5690910168
           3       21                -15.7489097511                -15.7489165588
           3       22                 27.0978334940                 27.0985589490
           3       23                 18.5949116966                 18.5949125562
           3       24                  1.2212828291                  1.2212855301
           3       25                 13.4428926797                 13.4434051125
           3       26                 35.9380614500                 35.9380613666
           3       27                 39.9231532098                 39.9231654735
           3       28                 72.9957335806                 72.9957336833
           3       29                116.4231321147                116.4231321431
           4       30               -514.2564144315               -514.2564099626
           4       31                 15.1726678541                 15.1726530877
           4       32                -21.5447785304                -21.5447874973
           4       33                 14.4944558459                 14.4944698284
           4       34                 20.8882174564                 20.8882178906
           4       35                 -2.4850315908                 -2.4850322289
           4       36                 13.8600193195                 13.8599826966
           4       37                 45.8243383616                 45.8243383675
           4       38                 52.1840606465                 52.1840622440
           4       39                 85.4074185510                 85.4074185819
           4       40                142.0983717302                142.0983717339
 * Note: Onsite integrals marked "***" above are less accurate than
 * onsite_accuracy_threshold =    0.03000 eV. Usually, this is harmless.
 * When in doubt, tighten the "radial" and/or "radial_multiplier" flags to check.

  Preparing densities etc. for the partition functions (integrals / Hartree potential).

  Preparations completed.
  max(cpu_time)          :      0.240 s.
  Wall clock time (cpu1) :      0.236 s.
------------------------------------------------------------

------------------------------------------------------------
          Begin self-consistency loop: Initialization.

          Date     :  20170309, Time     :  190541.525
------------------------------------------------------------

  Initializing index lists of integration centers etc. from given atomic structure:
  | Number of centers in hartree potential         :        32
  | Number of centers in hartree multipole         :        32
  | Number of centers in electron density summation:        32
  | Number of centers in basis integrals           :        32
  | Number of centers in integrals                 :        32
  | Number of centers in hamiltonian               :        32
  Using modified Scalapack Eigenvalue solver (ELPA)
  * Using 32 tasks for Scalapack Eigenvalue solver.
  Detailed listing of tasks and assigned k-points:
  (for non-periodic systems, the "k-point" denotes an internal label only)
   Task     0 k-point     1 on eos366
   Task     1 k-point     1 on eos366
   Task     2 k-point     1 on eos366
   Task     3 k-point     1 on eos366
   Task     4 k-point     1 on eos366
   Task     5 k-point     1 on eos366
   Task     6 k-point     1 on eos366
   Task     7 k-point     1 on eos366
   Task     8 k-point     1 on eos366
   Task     9 k-point     1 on eos366
   Task    10 k-point     1 on eos366
   Task    11 k-point     1 on eos366
   Task    12 k-point     1 on eos366
   Task    13 k-point     1 on eos366
   Task    14 k-point     1 on eos366
   Task    15 k-point     1 on eos366
   Task    16 k-point     1 on eos366
   Task    17 k-point     1 on eos366
   Task    18 k-point     1 on eos366
   Task    19 k-point     1 on eos366
   Task    20 k-point     1 on eos366
   Task    21 k-point     1 on eos366
   Task    22 k-point     1 on eos366
   Task    23 k-point     1 on eos366
   Task    24 k-point     1 on eos366
   Task    25 k-point     1 on eos366
   Task    26 k-point     1 on eos366
   Task    27 k-point     1 on eos366
   Task    28 k-point     1 on eos366
   Task    29 k-point     1 on eos366
   Task    30 k-point     1 on eos366
   Task    31 k-point     1 on eos366
  Tasks:    32 split into      8 X      4 BLACS grid
  Calculating blocksize based on n_basis =          840 max_nprow =            8 max_npcol =            4
  Scalapack blocksize set to:           16
  Required Scalapack workspace - INTEGER:            1 REAL:             1
  Partitioning the integration grid into batches with parallel hashing+maxmin method.
  | Number of batches:     4906
  | Maximal batch size:     200
  | Minimal batch size:       8
  | Average batch size:     107.568
  | Standard deviation of batch sizes:      29.975

  Integration load balanced across    32 MPI tasks.
  Work distribution over tasks is as follows:
  Task     0 has      16529 integration points.
  Task     1 has      16511 integration points.
  Task     2 has      16524 integration points.
  Task     3 has      16412 integration points.
  Task     4 has      16415 integration points.
  Task     5 has      16412 integration points.
  Task     6 has      16463 integration points.
  Task     7 has      16424 integration points.
  Task     8 has      16520 integration points.
  Task     9 has      16522 integration points.
  Task    10 has      16529 integration points.
  Task    11 has      16531 integration points.
  Task    12 has      16527 integration points.
  Task    13 has      16530 integration points.
  Task    14 has      16412 integration points.
  Task    15 has      16530 integration points.
  Task    16 has      16421 integration points.
  Task    17 has      16418 integration points.
  Task    18 has      16518 integration points.
  Task    19 has      16532 integration points.
  Task    20 has      16492 integration points.
  Task    21 has      16475 integration points.
  Task    22 has      16525 integration points.
  Task    23 has      16495 integration points.
  Task    24 has      16526 integration points.
  Task    25 has      16524 integration points.
  Task    26 has      16523 integration points.
  Task    27 has      16418 integration points.
  Task    28 has      16535 integration points.
  Task    29 has      16526 integration points.
  Task    30 has      16479 integration points.
  Task    31 has      16530 integration points.
  Initializing partition tables, free-atom densities, potentials, etc. across the integration grid (initialize_grid_storage).
  | initialize_grid_storage: Actual outermost partition radius vs. multipole_radius_free
  | (-- VB: in principle, multipole_radius_free should be larger, hence this output)
  | Species        1: Confinement radius =              6.000000000000000 AA, multipole_radius_free =              6.071692442739658 AA.
  | Species        1: outer_partition_radius set to              6.071692442739658 AA .
  | Species        2: Confinement radius =              6.000000000000000 AA, multipole_radius_free =              6.029870734432609 AA.
  | Species        2: outer_partition_radius set to              6.029870734432609 AA .
  | Species        3: Confinement radius =              6.000000000000000 AA, multipole_radius_free =              6.058726835495003 AA.
  | Species        3: outer_partition_radius set to              6.058726835495003 AA .
  | Species        4: Confinement radius =              6.000000000000000 AA, multipole_radius_free =              6.064445521808699 AA.
  | Species        4: outer_partition_radius set to              6.064445521808699 AA .
  | Original list of interatomic distances with          32 x         32 entries is created.
  | Net number of integration points:   527728
  | of which are non-zero points    :   417627
  Obtaining max. number of non-zero basis functions in each batch (get_n_compute_maxes).
  | Maximal number of non-zero basis functions:      738 in task     0
  | Maximal number of non-zero basis functions:      742 in task     1
  | Maximal number of non-zero basis functions:      744 in task     2
  | Maximal number of non-zero basis functions:      742 in task     3
  | Maximal number of non-zero basis functions:      716 in task     4
  | Maximal number of non-zero basis functions:      745 in task     5
  | Maximal number of non-zero basis functions:      746 in task     6
  | Maximal number of non-zero basis functions:      742 in task     7
  | Maximal number of non-zero basis functions:      728 in task     8
  | Maximal number of non-zero basis functions:      725 in task     9
  | Maximal number of non-zero basis functions:      748 in task    10
  | Maximal number of non-zero basis functions:      758 in task    11
  | Maximal number of non-zero basis functions:      734 in task    12
  | Maximal number of non-zero basis functions:      742 in task    13
  | Maximal number of non-zero basis functions:      752 in task    14
  | Maximal number of non-zero basis functions:      742 in task    15
  | Maximal number of non-zero basis functions:      737 in task    16
  | Maximal number of non-zero basis functions:      738 in task    17
  | Maximal number of non-zero basis functions:      760 in task    18
  | Maximal number of non-zero basis functions:      744 in task    19
  | Maximal number of non-zero basis functions:      750 in task    20
  | Maximal number of non-zero basis functions:      730 in task    21
  | Maximal number of non-zero basis functions:      755 in task    22
  | Maximal number of non-zero basis functions:      741 in task    23
  | Maximal number of non-zero basis functions:      741 in task    24
  | Maximal number of non-zero basis functions:      727 in task    25
  | Maximal number of non-zero basis functions:      718 in task    26
  | Maximal number of non-zero basis functions:      733 in task    27
  | Maximal number of non-zero basis functions:      730 in task    28
  | Maximal number of non-zero basis functions:      737 in task    29
  | Maximal number of non-zero basis functions:      742 in task    30
  | Maximal number of non-zero basis functions:      758 in task    31
  Selecting the method for density update.
  Loop over occupied states selected for charge density update.
  Integrating Hamiltonian matrix: batch-based integration.
  Time summed over all CPUs for integration: real work       19.478 s, elapsed       20.433 s
  Integrating overlap matrix.
  Time summed over all CPUs for integration: real work       11.595 s, elapsed       12.061 s
  Deallocating overlap matrix.

  Updating Kohn-Sham eigenvalues, eigenvectors, occupation numbers, and Fermi level.
  Solving generalized eigenproblem
  Solving real symmetric generalised eigenvalue problem by standard ScaLAPACK.
  Transforming overlap matrix with ScaLAPACK and checking for singularities.
  : Overlap matrix is nonsingular, using Cholesky decomposition
  | Lowest eigenvalue:  0.887182E-04
  Factoring overlap matrix with Cholesky decomposition
  Using Cholesky factor for transformation
  Using 1-stage real ELPA solver
  Determining occupation numbers for Kohn-Sham eigenstates.
  | Chemical potential (Fermi level) in eV                 : -.95242917E+01
  | Error in electron count due to remaining E_F inaccuracy: 0.00000000E+00
  | Maximum occupation number of highest empty state:  0.00E+00

  Writing Kohn-Sham eigenvalues.

  State    Occupation    Eigenvalue [Ha]    Eigenvalue [eV]
      1       2.00000         -18.973998         -516.30876
      2       2.00000         -18.973457         -516.29403
      3       2.00000         -18.973085         -516.28390
      4       2.00000         -14.256028         -387.92626
      5       2.00000         -14.255162         -387.90271
      6       2.00000         -14.254628         -387.88815
      7       2.00000         -10.171395         -276.77773
      8       2.00000         -10.170812         -276.76188
      9       2.00000         -10.170028         -276.74054
     10       2.00000         -10.166519         -276.64505
     11       2.00000         -10.149315         -276.17692
     12       2.00000         -10.146776         -276.10783
     13       2.00000         -10.136337         -275.82377
     14       2.00000         -10.135185         -275.79242
     15       2.00000         -10.132842         -275.72865
     16       2.00000          -1.133619          -30.84734
     17       2.00000          -1.130404          -30.75985
     18       2.00000          -1.126801          -30.66181
     19       2.00000          -1.016582          -27.66260
     20       2.00000          -1.014800          -27.61412
     21       2.00000          -1.008482          -27.44219
     22       2.00000          -0.891707          -24.26457
     23       2.00000          -0.871637          -23.71845
     24       2.00000          -0.841006          -22.88494
     25       2.00000          -0.818485          -22.27210
     26       2.00000          -0.784023          -21.33435
     27       2.00000          -0.757600          -20.61535
     28       2.00000          -0.704835          -19.17953
     29       2.00000          -0.687802          -18.71606
     30       2.00000          -0.665890          -18.11979
     31       2.00000          -0.653109          -17.77201
     32       2.00000          -0.618663          -16.83468
     33       2.00000          -0.609113          -16.57480
     34       2.00000          -0.599572          -16.31519
     35       2.00000          -0.593135          -16.14003
     36       2.00000          -0.582914          -15.86191
     37       2.00000          -0.573785          -15.61348
     38       2.00000          -0.563282          -15.32768
     39       2.00000          -0.558128          -15.18744
     40       2.00000          -0.553670          -15.06612
     41       2.00000          -0.549045          -14.94028
     42       2.00000          -0.537821          -14.63485
     43       2.00000          -0.534155          -14.53510
     44       2.00000          -0.530819          -14.44432
     45       2.00000          -0.522953          -14.23028
     46       2.00000          -0.519794          -14.14432
     47       2.00000          -0.512566          -13.94764
     48       2.00000          -0.499085          -13.58080
     49       2.00000          -0.495859          -13.49300
     50       2.00000          -0.485229          -13.20375
     51       2.00000          -0.474364          -12.90811
     52       2.00000          -0.469408          -12.77323
     53       2.00000          -0.412340          -11.22034
     54       2.00000          -0.405599          -11.03692
     55       2.00000          -0.400360          -10.89435
     56       2.00000          -0.390682          -10.63099
     57       2.00000          -0.383273          -10.42938
     58       2.00000          -0.381193          -10.37278
     59       0.00000          -0.170558           -4.64113
     60       0.00000          -0.158716           -4.31887
     61       0.00000          -0.152135           -4.13980
     62       0.00000          -0.080391           -2.18754
     63       0.00000          -0.064849           -1.76463
     64       0.00000          -0.061490           -1.67324
     65       0.00000          -0.052357           -1.42470
     66       0.00000          -0.044709           -1.21659
     67       0.00000          -0.040317           -1.09708
     68       0.00000          -0.038007           -1.03422
     69       0.00000          -0.031918           -0.86852
     70       0.00000          -0.029698           -0.80813
     71       0.00000          -0.020596           -0.56044
     72       0.00000          -0.013768           -0.37463
     73       0.00000          -0.009692           -0.26373
     74       0.00000          -0.006930           -0.18857
     75       0.00000          -0.000246           -0.00669
     76       0.00000           0.000953            0.02593
     77       0.00000           0.003828            0.10417
     78       0.00000           0.006005            0.16340
     79       0.00000           0.018603            0.50620
     80       0.00000           0.021574            0.58706
     81       0.00000           0.024710            0.67240
     82       0.00000           0.025665            0.69837
     83       0.00000           0.031674            0.86190
     84       0.00000           0.038738            1.05411
     85       0.00000           0.046242            1.25831
     86       0.00000           0.049114            1.33645
     87       0.00000           0.053231            1.44849
     88       0.00000           0.056519            1.53797
     89       0.00000           0.061190            1.66505
     90       0.00000           0.064732            1.76144
     91       0.00000           0.069084            1.87987
     92       0.00000           0.075832            2.06351
     93       0.00000           0.085214            2.31878
     94       0.00000           0.089920            2.44684
     95       0.00000           0.097588            2.65550
     96       0.00000           0.100377            2.73139
     97       0.00000           0.106922            2.90950
     98       0.00000           0.111901            3.04497
     99       0.00000           0.117607            3.20026
    100       0.00000           0.119385            3.24864
    101       0.00000           0.124584            3.39009
    102       0.00000           0.128742            3.50325
    103       0.00000           0.132362            3.60176
    104       0.00000           0.138002            3.75523
    105       0.00000           0.147411            4.01125
    106       0.00000           0.151390            4.11953
    107       0.00000           0.156613            4.26167
    108       0.00000           0.161339            4.39026
    109       0.00000           0.166599            4.53338
    110       0.00000           0.170303            4.63417
    111       0.00000           0.173902            4.73211
    112       0.00000           0.177707            4.83566
    113       0.00000           0.183296            4.98775
    114       0.00000           0.187541            5.10326
    115       0.00000           0.189600            5.15929
    116       0.00000           0.195388            5.31678
    117       0.00000           0.199615            5.43180
    118       0.00000           0.204137            5.55486
    119       0.00000           0.210841            5.73728
    120       0.00000           0.213040            5.79712
    121       0.00000           0.217017            5.90532
    122       0.00000           0.224309            6.10375
    123       0.00000           0.228848            6.22726
    124       0.00000           0.230988            6.28551
    125       0.00000           0.236656            6.43974
    126       0.00000           0.244718            6.65912
    127       0.00000           0.247590            6.73728
    128       0.00000           0.258610            7.03714
    129       0.00000           0.265411            7.22220

  Highest occupied state (VBM) at    -10.37278015 eV
  | Occupation number:      2.00000000

  Lowest unoccupied state (CBM) at    -4.64112562 eV
  | Occupation number:      0.00000000

  Overall HOMO-LUMO gap:      5.73165453 eV.
  Calculating total energy contributions from superposition of free atom densities.

  Total energy components:
  | Sum of eigenvalues            :        -437.85830991 Ha      -11914.73082739 eV
  | XC energy correction          :         -98.80999526 Ha       -2688.75677357 eV
  | XC potential correction       :         127.00684905 Ha        3456.03220370 eV
  | Free-atom electrostatic energy:        -333.62831507 Ha       -9078.48836140 eV
  | Hartree energy correction     :           0.00000000 Ha           0.00000000 eV
  | vdW energy correction         :           0.00000000 Ha           0.00000000 eV
  | Entropy correction            :          -0.00000000 Ha          -0.00000000 eV
  | ---------------------------
  | Total energy                  :        -743.28977119 Ha      -20225.94375865 eV
  | Total energy, T -> 0          :        -743.28977119 Ha      -20225.94375865 eV  <-- do not rely on this value for anything but (periodic) metals
  | Electronic free energy        :        -743.28977119 Ha      -20225.94375865 eV

  Derived energy quantities:
  | Kinetic energy                :         735.13653105 Ha       20004.08280634 eV
  | Electrostatic energy          :       -1379.61630697 Ha      -37541.26979142 eV
  | Energy correction for multipole
  | error in Hartree potential    :           0.00000000 Ha           0.00000000 eV
  | Sum of eigenvalues per atom                           :        -372.33533836 eV
  | Total energy (T->0) per atom                          :        -632.06074246 eV  <-- do not rely on this value for anything but (periodic) metals
  | Electronic free energy per atom                       :        -632.06074246 eV
  Initialize hartree_potential_storage
  Max. number of atoms included in rho_multipole:           32

  End scf initialization - timings             :  max(cpu_time)    wall_clock(cpu1)
  | Time for scf. initialization               :        1.764 s           1.761 s
  | Boundary condition initialization          :        0.000 s           0.000 s
  | Integration                                :        1.044 s           1.037 s
  | Solution of K.-S. eqns.                    :        0.076 s           0.075 s
  | Grid partitioning                          :        0.332 s           0.326 s
  | Preloading free-atom quantities on grid    :        0.032 s           0.027 s
  | Free-atom superposition energy             :        0.040 s           0.038 s
  | Total energy evaluation                    :        0.000 s           0.001 s
------------------------------------------------------------

------------------------------------------------------------
          Begin self-consistency iteration #    1

  Date     :  20170309, Time     :  190543.286
------------------------------------------------------------
  Evaluating new KS density.
  Integration grid: deviation in total charge (<rho> - N_e) =   4.263256E-14
  Pulay mixing of updated and previous charge densities.

  Evaluating partitioned Hartree potential by multipole expansion.
  | Analytical far-field extrapolation by fixed multipoles:
  | Hartree multipole sum: apparent total charge =  -0.178969E-04
  Summing up the Hartree potential.
  Time summed over all CPUs for potential: real work        9.477 s, elapsed        9.797 s
  | RMS charge density error from multipole expansion :   0.106161E-01

  Integrating Hamiltonian matrix: batch-based integration.
  Time summed over all CPUs for integration: real work       19.347 s, elapsed       20.293 s

  Updating Kohn-Sham eigenvalues, eigenvectors, occupation numbers, and Fermi level.
  Solving generalized eigenproblem
  Solving real symmetric generalised eigenvalue problem by standard ScaLAPACK.
  Using Cholesky factor for transformation
  Using 2-stage real ELPA solver
  K-Point:    1, Trafo times: 1-stage=     0.021 s, 2-stage=     0.019 s ==> Using 2-stage solver
  Determining occupation numbers for Kohn-Sham eigenstates.
  | Chemical potential (Fermi level) in eV                 : -.21801059E+01
  | Error in electron count due to remaining E_F inaccuracy: 0.00000000E+00
  | Maximum occupation number of highest empty state:  0.00E+00

  Writing Kohn-Sham eigenvalues.

  State    Occupation    Eigenvalue [Ha]    Eigenvalue [eV]
      1       2.00000         -18.644897         -507.35347
      2       2.00000         -18.608551         -506.36444
      3       2.00000         -18.600777         -506.15290
      4       2.00000         -14.002914         -381.03869
      5       2.00000         -13.980501         -380.42879
      6       2.00000         -13.975802         -380.30092
      7       2.00000         -10.065936         -273.90805
      8       2.00000         -10.052091         -273.53131
      9       2.00000         -10.040055         -273.20380
     10       2.00000          -9.964973         -271.16072
     11       2.00000          -9.956669         -270.93474
     12       2.00000          -9.885616         -269.00130
     13       2.00000          -9.841501         -267.80087
     14       2.00000          -9.835692         -267.64279
     15       2.00000          -9.830810         -267.50996
     16       2.00000          -0.977761          -26.60623
     17       2.00000          -0.956719          -26.03365
     18       2.00000          -0.944823          -25.70994
     19       2.00000          -0.877522          -23.87858
     20       2.00000          -0.854344          -23.24787
     21       2.00000          -0.850303          -23.13793
     22       2.00000          -0.747511          -20.34081
     23       2.00000          -0.717308          -19.51893
     24       2.00000          -0.679033          -18.47743
     25       2.00000          -0.668533          -18.19171
     26       2.00000          -0.636437          -17.31834
     27       2.00000          -0.614537          -16.72239
     28       2.00000          -0.580167          -15.78713
     29       2.00000          -0.550639          -14.98364
     30       2.00000          -0.539626          -14.68396
     31       2.00000          -0.522230          -14.21060
     32       2.00000          -0.473228          -12.87720
     33       2.00000          -0.461477          -12.55742
     34       2.00000          -0.457864          -12.45911
     35       2.00000          -0.447060          -12.16511
     36       2.00000          -0.431474          -11.74101
     37       2.00000          -0.429299          -11.68183
     38       2.00000          -0.424355          -11.54730
     39       2.00000          -0.415188          -11.29783
     40       2.00000          -0.402157          -10.94324
     41       2.00000          -0.394175          -10.72606
     42       2.00000          -0.389366          -10.59518
     43       2.00000          -0.382781          -10.41599
     44       2.00000          -0.378670          -10.30413
     45       2.00000          -0.368170          -10.01841
     46       2.00000          -0.360435           -9.80795
     47       2.00000          -0.357738           -9.73454
     48       2.00000          -0.352422           -9.58990
     49       2.00000          -0.346276           -9.42265
     50       2.00000          -0.344802           -9.38253
     51       2.00000          -0.337414           -9.18150
     52       2.00000          -0.319931           -8.70578
     53       2.00000          -0.254216           -6.91756
     54       2.00000          -0.235488           -6.40797
     55       2.00000          -0.223423           -6.07964
     56       2.00000          -0.221074           -6.01573
     57       2.00000          -0.207373           -5.64290
     58       2.00000          -0.198566           -5.40325
     59       0.00000          -0.060366           -1.64264
     60       0.00000          -0.046002           -1.25178
     61       0.00000          -0.035025           -0.95309
     62       0.00000          -0.029553           -0.80418
     63       0.00000          -0.019838           -0.53981
     64       0.00000          -0.016057           -0.43694
     65       0.00000          -0.006840           -0.18611
     66       0.00000           0.004456            0.12124
     67       0.00000           0.005613            0.15273
     68       0.00000           0.016201            0.44085
     69       0.00000           0.022813            0.62076
     70       0.00000           0.027394            0.74544
     71       0.00000           0.036159            0.98394
     72       0.00000           0.041697            1.13463
     73       0.00000           0.045381            1.23488
     74       0.00000           0.051601            1.40414
     75       0.00000           0.052080            1.41718
     76       0.00000           0.060512            1.64661
     77       0.00000           0.063847            1.73737
     78       0.00000           0.076784            2.08939
     79       0.00000           0.087045            2.36861
     80       0.00000           0.089562            2.43711
     81       0.00000           0.096204            2.61784
     82       0.00000           0.097313            2.64803
     83       0.00000           0.102916            2.80049
     84       0.00000           0.108319            2.94752
     85       0.00000           0.109448            2.97822
     86       0.00000           0.113085            3.07720
     87       0.00000           0.119937            3.26366
     88       0.00000           0.124379            3.38453
     89       0.00000           0.129731            3.53015
     90       0.00000           0.133639            3.63649
     91       0.00000           0.141187            3.84189
     92       0.00000           0.148280            4.03490
     93       0.00000           0.157156            4.27643
     94       0.00000           0.160549            4.36876
     95       0.00000           0.162575            4.42389
     96       0.00000           0.169281            4.60637
     97       0.00000           0.171364            4.66305
     98       0.00000           0.174864            4.75829
     99       0.00000           0.181023            4.92588
    100       0.00000           0.186925            5.08648
    101       0.00000           0.193423            5.26330
    102       0.00000           0.199412            5.42629
    103       0.00000           0.202562            5.51200
    104       0.00000           0.207007            5.63295
    105       0.00000           0.211728            5.76141
    106       0.00000           0.215966            5.87673
    107       0.00000           0.217542            5.91961
    108       0.00000           0.223795            6.08978
    109       0.00000           0.225141            6.12641
    110       0.00000           0.230319            6.26730
    111       0.00000           0.236045            6.42312
    112       0.00000           0.242265            6.59235
    113       0.00000           0.244543            6.65436
    114       0.00000           0.246202            6.69949
    115       0.00000           0.253992            6.91149
    116       0.00000           0.256327            6.97501
    117       0.00000           0.263080            7.15878
    118       0.00000           0.269082            7.32210
    119       0.00000           0.272282            7.40917
    120       0.00000           0.275865            7.50667
    121       0.00000           0.283543            7.71560
    122       0.00000           0.289730            7.88394
    123       0.00000           0.294943            8.02582
    124       0.00000           0.302478            8.23085
    125       0.00000           0.310379            8.44583
    126       0.00000           0.317870            8.64969
    127       0.00000           0.324680            8.83499
    128       0.00000           0.335474            9.12870
    129       0.00000           0.341501            9.29273

  Highest occupied state (VBM) at     -5.40324591 eV
  | Occupation number:      2.00000000

  Lowest unoccupied state (CBM) at    -1.64264455 eV
  | Occupation number:      0.00000000

  Overall HOMO-LUMO gap:      3.76060136 eV.

  Total energy components:
  | Sum of eigenvalues            :        -417.23739560 Ha      -11353.60719953 eV
  | XC energy correction          :        -100.75114486 Ha       -2741.57814165 eV
  | XC potential correction       :         129.52488379 Ha        3524.55141525 eV
  | Free-atom electrostatic energy:        -333.62831507 Ha       -9078.48836140 eV
  | Hartree energy correction     :         -20.62323600 Ha        -561.18680450 eV
  | vdW energy correction         :           0.00000000 Ha           0.00000000 eV
  | Entropy correction            :          -0.00000000 Ha          -0.00000000 eV
  | ---------------------------
  | Total energy                  :        -742.71520774 Ha      -20210.30909182 eV
  | Total energy, T -> 0          :        -742.71520774 Ha      -20210.30909182 eV  <-- do not rely on this value for anything but (periodic) metals
  | Electronic free energy        :        -742.71520774 Ha      -20210.30909182 eV

  Derived energy quantities:
  | Kinetic energy                :         744.03959105 Ha       20246.34739517 eV
  | Electrostatic energy          :       -1386.00365392 Ha      -37715.07834534 eV
  | Energy correction for multipole
  | error in Hartree potential    :          -0.04183841 Ha          -1.13848099 eV
  | Sum of eigenvalues per atom                           :        -354.80022499 eV
  | Total energy (T->0) per atom                          :        -631.57215912 eV  <-- do not rely on this value for anything but (periodic) metals
  | Electronic free energy per atom                       :        -631.57215912 eV

  Self-consistency convergence accuracy:
  | Change of charge density      :  0.9034E+00
  | Change of sum of eigenvalues  :  0.5611E+03 eV
  | Change of total energy        :  0.1563E+02 eV

  End self-consistency iteration #     1       :  max(cpu_time)    wall_clock(cpu1)
  | Time for this iteration                    :        1.460 s           1.458 s
  | Charge density update                      :        0.464 s           0.462 s
[...]
   ----------------------------------------------------------------
   Total forces(  20)            :  0.910015E-03  0.677647E-05  0.138111E-02
  atom #   21
   Hellmann-Feynman              : -0.169239E-01 -0.416747E-01 -0.148270E-02
   Ionic forces                  :  0.000000E+00  0.000000E+00  0.000000E+00
   Multipole                     : -0.178288E-01 -0.876196E-02  0.344860E-02
   Pulay + GGA                   :  0.409168E-01  0.536956E-01  0.223175E-02
   Van der Waals                 : -0.624766E-02 -0.301693E-02 -0.188171E-02
   ----------------------------------------------------------------
   Total forces(  21)            : -0.835249E-04  0.241973E-03  0.231594E-02
  atom #   22
   Hellmann-Feynman              :  0.228956E-01 -0.443837E-01 -0.263772E-01
   Ionic forces                  :  0.000000E+00  0.000000E+00  0.000000E+00
   Multipole                     : -0.214947E-01 -0.112967E-01  0.406071E-02
   Pulay + GGA                   : -0.670253E-02  0.610634E-01  0.248195E-01
   Van der Waals                 :  0.585173E-02 -0.658290E-02 -0.310240E-02
   ----------------------------------------------------------------
   Total forces(  22)            :  0.550136E-03 -0.119990E-02 -0.599398E-03
  atom #   23
   Hellmann-Feynman              : -0.101310E+01 -0.658842E-01 -0.818211E+00
   Ionic forces                  :  0.000000E+00  0.000000E+00  0.000000E+00
   Multipole                     :  0.361105E+00  0.856583E-02  0.264342E+00
   Pulay + GGA                   :  0.670280E+00  0.205068E-01  0.553512E+00
   Van der Waals                 : -0.149127E-01  0.371749E-01  0.963805E-03
   ----------------------------------------------------------------
   Total forces(  23)            :  0.336976E-02  0.363276E-03  0.607206E-03
  atom #   24
   Hellmann-Feynman              :  0.420689E-01 -0.324051E-01  0.358043E-01
   Ionic forces                  :  0.000000E+00  0.000000E+00  0.000000E+00
   Multipole                     : -0.272438E-01 -0.190421E-01 -0.145524E-01
   Pulay + GGA                   : -0.172712E-01  0.572911E-01 -0.177536E-01
   Van der Waals                 :  0.223441E-02 -0.639362E-02 -0.326048E-02
   ----------------------------------------------------------------
   Total forces(  24)            : -0.211729E-03 -0.549792E-03  0.237794E-03
  atom #   25
   Hellmann-Feynman              :  0.490237E-01  0.169257E-01  0.288952E-02
   Ionic forces                  :  0.000000E+00  0.000000E+00  0.000000E+00
   Multipole                     : -0.571119E-02 -0.821879E-03 -0.339368E-01
   Pulay + GGA                   : -0.418391E-01 -0.170412E-01  0.365819E-01
   Van der Waals                 : -0.162853E-02  0.950005E-03 -0.538734E-02
   ----------------------------------------------------------------
   Total forces(  25)            : -0.155193E-03  0.125829E-04  0.147290E-03
  atom #   26
   Hellmann-Feynman              :  0.368714E-01  0.132098E-01  0.175591E-01
   Ionic forces                  :  0.000000E+00  0.000000E+00  0.000000E+00
   Multipole                     : -0.115293E-01  0.137486E-01  0.169869E-01
   Pulay + GGA                   : -0.134878E-01 -0.354298E-01 -0.309966E-01
   Van der Waals                 : -0.129149E-01  0.811920E-02 -0.310315E-02
   ----------------------------------------------------------------
   Total forces(  26)            : -0.106064E-02 -0.352246E-03  0.446322E-03
  atom #   27
   Hellmann-Feynman              :  0.800028E-01  0.780418E+00  0.136195E+01
   Ionic forces                  :  0.000000E+00  0.000000E+00  0.000000E+00
   Multipole                     :  0.120562E+00  0.104663E+00  0.546853E-01
   Pulay + GGA                   : -0.210237E+00 -0.891933E+00 -0.140687E+01
   Van der Waals                 :  0.909225E-02  0.882033E-02 -0.110691E-01
   ----------------------------------------------------------------
   Total forces(  27)            : -0.580015E-03  0.196767E-02 -0.130592E-02
  atom #   28
   Hellmann-Feynman              : -0.112203E+01 -0.109813E+01 -0.191940E+01
   Ionic forces                  :  0.000000E+00  0.000000E+00  0.000000E+00
   Multipole                     :  0.102449E+00  0.880411E-01  0.100860E+00
   Pulay + GGA                   :  0.101504E+01  0.103049E+01  0.181830E+01
   Van der Waals                 :  0.769912E-02 -0.186243E-01  0.441263E-02
   ----------------------------------------------------------------
   Total forces(  28)            :  0.316392E-02  0.178310E-02  0.417783E-02
  atom #   29
   Hellmann-Feynman              :  0.128643E-01  0.769445E-01 -0.198305E-01
   Ionic forces                  :  0.000000E+00  0.000000E+00  0.000000E+00
   Multipole                     : -0.275545E-01 -0.354745E-01 -0.190615E-01
   Pulay + GGA                   :  0.149466E-01 -0.495232E-01  0.436844E-01
   Van der Waals                 : -0.127491E-02  0.783894E-02 -0.548776E-02
   ----------------------------------------------------------------
   Total forces(  29)            : -0.101847E-02 -0.214236E-03 -0.695400E-03
  atom #   30
   Hellmann-Feynman              :  0.396813E-01  0.993566E-02  0.404699E-01
   Ionic forces                  :  0.000000E+00  0.000000E+00  0.000000E+00
   Multipole                     : -0.337726E-01 -0.911254E-02  0.124235E-01
   Pulay + GGA                   : -0.908698E-02  0.685414E-02 -0.473357E-01
   Van der Waals                 :  0.217528E-02 -0.909397E-02 -0.520523E-02
   ----------------------------------------------------------------
   Total forces(  30)            : -0.100303E-02 -0.141670E-02  0.352350E-03
  atom #   31
   Hellmann-Feynman              :  0.456269E-01  0.105187E-01  0.194882E-01
   Ionic forces                  :  0.000000E+00  0.000000E+00  0.000000E+00
   Multipole                     :  0.195567E-01 -0.799930E-02 -0.181095E-01
   Pulay + GGA                   : -0.678121E-01  0.511801E-02 -0.432553E-02
   Van der Waals                 :  0.242229E-02 -0.760018E-02  0.226541E-02
   ----------------------------------------------------------------
   Total forces(  31)            : -0.206219E-03  0.372516E-04 -0.681436E-03
  atom #   32
   Hellmann-Feynman              :  0.169156E-01  0.537336E-01  0.218201E-01
   Ionic forces                  :  0.000000E+00  0.000000E+00  0.000000E+00
   Multipole                     : -0.264574E-01  0.417640E-02 -0.312161E-01
   Pulay + GGA                   :  0.691922E-02 -0.648834E-01  0.130071E-01
   Van der Waals                 :  0.124736E-02  0.732237E-02 -0.271025E-02
   ----------------------------------------------------------------
   Total forces(  32)            : -0.137521E-02  0.348966E-03  0.900937E-03

  Timings for VdW correction (Tkatchenko-Scheffler 2009 or later):
  | CPU time:        0.120 s, Wall clock time:        0.118 s.
  Removing unitary transformations (pure translations, rotations) from forces on atoms.
  Atomic forces before filtering:
  | Net force on center of mass :  -0.620641E-03  0.178930E-05 -0.266980E-03 eV/A
  | Net torque on center of mass:  -0.300257E-02 -0.147989E-02 -0.252399E-02 eV
  Atomic forces after filtering:
  | Net force on center of mass :   0.174225E-18  0.784011E-18 -0.174225E-17 eV/A
  | Net torque on center of mass:  -0.626931E-17  0.663809E-17 -0.737566E-18 eV

  Energy and forces in a compact form:
  | Total energy uncorrected      :         -0.202086135217239E+05 eV
  | Total energy corrected        :         -0.202086135217239E+05 eV  <-- do not rely on this value for anything but (periodic) metals
  | Electronic free energy        :         -0.202086135217239E+05 eV
  Total atomic forces (unitary forces cleaned) [eV/Ang]:
  |   1          0.241222894719289E-03         -0.211462643464983E-03          0.995531964117930E-04
  |   2         -0.204981442027943E-02          0.120178649281749E-03          0.214458695570692E-02
  |   3          0.101041481344207E-02         -0.305785230100127E-03          0.226134278245176E-03
  |   4         -0.198085892112456E-03          0.706278509078159E-03         -0.332360936274754E-03
  |   5         -0.178328414735405E-03          0.310342258397134E-03         -0.124368212695327E-03
  |   6          0.284086934094706E-03         -0.150605993785132E-03         -0.818179106637912E-03
  |   7         -0.680088983425706E-04          0.707863905500036E-03         -0.240556131520956E-02
  |   8          0.344111557569532E-02          0.288093336021005E-02         -0.296903488116256E-02
  |   9         -0.313280198966319E-02         -0.137598674625080E-02         -0.200069406497234E-03
  |  10          0.191900053371801E-02          0.153455634549901E-02          0.261363005050711E-02
  |  11          0.585655499837525E-03          0.797753540707793E-03          0.478892849877186E-03
  |  12          0.136709345636791E-03          0.734424675616445E-03         -0.115477766738480E-02
  |  13         -0.659094471692501E-03         -0.167940115538399E-02          0.211960679838382E-02
  |  14          0.567479224073965E-03          0.517185883459130E-03         -0.143526572011983E-02
  |  15          0.856096624276920E-03          0.512023416316773E-03         -0.108191998585154E-02
  |  16          0.643919717545761E-03         -0.189319750997630E-03         -0.823926876969356E-03
  |  17         -0.901712612123456E-03         -0.253879806024228E-02         -0.195082572064139E-02
  |  18         -0.210698094703332E-03         -0.248871101154516E-03         -0.364353470223544E-04
  |  19         -0.498207999932697E-02         -0.275773437732436E-02         -0.180142172646603E-02
  |  20          0.947163150631997E-03         -0.358289157588229E-04          0.139054817595414E-02
  |  21         -0.670888851162581E-04          0.229361589457572E-03          0.234413237661965E-02
  |  22          0.573703828309278E-03         -0.123565110950188E-02         -0.564593772607830E-03
  |  23          0.339076701613435E-02          0.336913634746434E-03          0.638539652954721E-03
  |  24         -0.197373184312200E-03         -0.572731418680604E-03          0.281471605041636E-03
  |  25         -0.129495994293390E-03         -0.256311990349581E-04          0.179528415702443E-03
  |  26         -0.104029996143146E-02         -0.369392220353840E-03          0.469831982177060E-03
  |  27         -0.540218346930244E-03          0.192985312763132E-02         -0.130767046065900E-02
  |  28          0.320185113499632E-02          0.175295009261035E-02          0.417271436528447E-02
  |  29         -0.972342742077291E-03         -0.258421268022514E-03         -0.705739829530417E-03
  |  30         -0.971338934142695E-03         -0.143398924014534E-02          0.348964164765369E-03
  |  31         -0.168726462400888E-03          0.651838242030176E-06         -0.678936785182067E-03
  |  32         -0.133167698942856E-02          0.318339603447785E-03          0.882952883280465E-03

  ------------------------------------ 
  Start decomposition of the XC Energy 
  ------------------------------------ 
  Hartree-Fock part   :          0.000000000 Ha              0.000000000 eV
  ------------------------------------ 
  X Energy            :        -96.987633000 Ha          -2639.167773321 eV
  C Energy GGA        :         -3.867460598 Ha           -105.238957373 eV
  Total XC Energy     :       -100.855093599 Ha          -2744.406730694 eV
  LDA X and C from self-consistent density 
  X Energy LDA        :        -88.002173754 Ha          -2394.660986850 eV
  C Energy LDA        :         -7.531804829 Ha           -204.950837185 eV
  ------------------------------------ 
  End decomposition of the XC Energy 
  ------------------------------------ 
   
  ESP charge fitting starts.
  | Calculation :  00000001  of  00000001
  | Full density
  Computing multipole expansion for total density.
  Generating points for esp charges.
  Partitioning the integration grid into batches with parallel hashing+maxmin method.
  | Number of batches:     3856
  | Maximal batch size:     192
  | Minimal batch size:      55
  | Average batch size:     126.456
  | Standard deviation of batch sizes:      16.951

  Integration load balanced across    32 MPI tasks.
  Work distribution over tasks is as follows:
  Initializing partition tables, free-atom densities, potentials, etc. across the integration grid (initialize_grid_storage).
  | Original list of interatomic distances with          32 x         32 entries is created.
  | Net number of integration points:   487613
  | of which are non-zero points    :   487613
  Summing up potential from multipole expanded  density.
  Summing up the Hartree potential.
  Time summed over all CPUs for potential: real work        6.379 s, elapsed        6.814 s
  Fitting esp charges to potential.
  |
  | ESP charges fitted to the electrostatic potential :
  |
  | Atom         1: C, ESP charge:      0.88072165
  |
  | Atom         2: C, ESP charge:     -0.69830622
  |
  | Atom         3: O, ESP charge:      0.55090583
  |
  | Atom         4: H, ESP charge:     -0.24481811
  |
  | Atom         5: H, ESP charge:     -0.24915390
  |
  | Atom         6: H, ESP charge:     -0.22882315
  |
  | Atom         7: N, ESP charge:      0.48354330
  |
  | Atom         8: C, ESP charge:     -0.31263529
  |
  | Atom         9: C, ESP charge:     -0.64929186
  |
  | Atom        10: O, ESP charge:      0.56777816
  |
  | Atom        11: H, ESP charge:     -0.25436140
  |
  | Atom        12: H, ESP charge:     -0.01306282
  |
  | Atom        13: C, ESP charge:      0.47186204
  |
  | Atom        14: H, ESP charge:     -0.10157104
  |
  | Atom        15: H, ESP charge:     -0.11896345
  |
  | Atom        16: H, ESP charge:     -0.15805061
  |
  | Atom        17: N, ESP charge:      0.69292166
  |
  | Atom        18: C, ESP charge:     -0.57011872
  |
  | Atom        19: C, ESP charge:     -0.12437614
  |
  | Atom        20: O, ESP charge:      0.49406256
  |
  | Atom        21: H, ESP charge:     -0.32298333
  |
  | Atom        22: H, ESP charge:     -0.03961944
  |
  | Atom        23: C, ESP charge:      0.66662116
  |
  | Atom        24: H, ESP charge:     -0.15394477
  |
  | Atom        25: H, ESP charge:     -0.17044098
  |
  | Atom        26: H, ESP charge:     -0.21023757
  |
  | Atom        27: N, ESP charge:      0.09800575
  |
  | Atom        28: C, ESP charge:      0.56489326
  |
  | Atom        29: H, ESP charge:     -0.27249014
  |
  | Atom        30: H, ESP charge:     -0.22763234
  |
  | Atom        31: H, ESP charge:     -0.15655677
  |
  | Atom        32: H, ESP charge:     -0.19387731

  RRMS:       0.00392055

  Done.

------------------------------------------------------------------------------
  Final output of selected total energy values:

  The following output summarizes some interesting total energy values
  at the end of a run (AFTER all relaxation, molecular dynamics, etc.).

  | Total energy of the DFT / Hartree-Fock s.c.f. calculation      :         -20208.613521724 eV
  | Final zero-broadening corrected energy (caution - metals only) :         -20208.613521724 eV
  | For reference only, the value of 1 Hartree used in FHI-aims is :             27.211384500 eV

  Before relying on these values, please be sure to understand exactly which
  total energy value is referred to by a given number. Different objects may
  all carry the same name 'total energy'. Definitions:

  Total energy of the DFT / Hartree-Fock s.c.f. calculation:
  | Note that this energy does not include ANY quantities calculated after the
  | s.c.f. cycle, in particular not ANY RPA, MP2, etc. many-body perturbation terms.

  Final zero-broadening corrected energy:
  | For metallic systems only, a broadening of the occupation numbers at the Fermi
  | level can be extrapolated back to zero broadening by an electron-gas inspired
  | formula. For all systems that are not real metals, this value can be
  | meaningless and should be avoided.

------------------------------------------------------------------------------
  Methods described in the following list of references were used in this FHI-aims run.
  If you publish the results, please make sure to cite these reference if they apply.
  FHI-aims is an academic code, and for our developers (often, Ph.D. students
  and postdocs), scientific credit in the community is essential.
  Thank you for helping us!

  For any use of FHI-aims, please cite:

    Volker Blum, Ralf Gehrke, Felix Hanke, Paula Havu, Ville Havu,
    Xinguo Ren, Karsten Reuter, and Matthias Scheffler
    'Ab initio molecular simulations with numeric atom-centered orbitals'
    Computer Physics Communications 180, 2175-2196 (2009)
    http://dx.doi.org/10.1016/j.cpc.2009.06.022


  The scalable eigensolver library ELPA was used in your run.
  ELPA is essential especially for large systems on hundreds or thousands of CPUs.
  For ELPA, please cite:

    Andreas Marek, Volker Blum, Rainer Johanni, Ville Havu, Bruno Lang,
    Thomas Auckenthaler, Alexander Heinecke, Hans-Joachim Bungartz, and Hermann Lederer,
    'The ELPA Library - Scalable Parallel Eigenvalue Solutions
    for Electronic Structure Theory and Computational Science'
    The Journal of Physics: Condensed Matter 26, 213201 (2014).
    http://dx.doi.org/10.1088/0953-8984/26/21/213201


  For ELPA's efficient two-stage tridiagonalization used in your run, please cite:

    T. Auckenthaler, V. Blum, H.-J. Bungartz, T. Huckle, R. Johanni, L. Kraemer,
    B. Lang, H. Lederer, and P. R. Willems,
    'Parallel solution of partial symmetric eigenvalue problems'
    'from  electronic structure calculations'
    Parallel Computing 37, 783-794 (2011).
    http://dx.doi.org/10.1016/j.parco.2011.05.002


  For the real-space grid partitioning and parallelization used in this calculation, please cite:

    Ville Havu, Volker Blum, Paula Havu, and Matthias Scheffler,
    'Efficient O(N) integration for all-electron electronic structure calculation'
    'using numerically tabulated basis functions'
    Journal of Computational Physics 228, 8367-8379 (2009).
    http://dx.doi.org/10.1016/j.jcp.2009.08.008

  Of course, there are many other important community references, e.g., those cited in the
  above references. Our list is limited to references that describe implementations in the
  FHI-aims code. The reason is purely practical (length of this list) - please credit others as well.

------------------------------------------------------------
          Leaving FHI-aims.
          Date     :  20170309, Time     :  190609.833

          Computational steps:
          | Number of self-consistency cycles          :           14

          Detailed time accounting                     :  max(cpu_time)    wall_clock(cpu1)
          | Total time                                 :       29.178 s          29.334 s
          | Preparation time                           :        0.240 s           0.236 s
          | Grid partitioning                          :        0.332 s           0.326 s
          | Preloading free-atom quantities on grid    :        0.032 s           0.027 s
          | Free-atom superposition energy             :        0.040 s           0.038 s
          | Total time for integrations                :       10.077 s          10.059 s
          | Total time for solution of K.-S. equations :        0.532 s           0.498 s
          | Total time for density & force components  :        9.209 s           9.191 s
          | Total time for mixing                      :        0.124 s           0.104 s
          | Total time for Hartree multipole update    :        0.076 s           0.059 s
          | Total time for Hartree multipole sum       :        6.476 s           6.456 s
          | Total time for total energy evaluation     :        0.028 s           0.024 s
          | Total time for vdW correction              :        0.120 s           0.118 s

          Have a nice day.
------------------------------------------------------------
