  MPI-parallelism will be employed.
------------------------------------------------------------
          Invoking FHI-aims ...
          Version 150427
          Git rev.: 9dd23e0 BL: Update Version stamp
          Compiled on 2015/11/03 at 22:05:20 on host eos03.

          When using FHI-aims, please cite the following reference:

          Volker Blum, Ralf Gehrke, Felix Hanke, Paula Havu,
          Ville Havu, Xinguo Ren, Karsten Reuter, and Matthias Scheffler,
          'Ab Initio Molecular Simulations with Numeric Atom-Centered Orbitals: FHI-aims',
          Computer Physics Communications 180, 2175-2196 (2009)

          For any questions about FHI-aims, please visit the aimsclub website
          with its forums and wiki. Contributions to both the forums and the
          wiki are warmly encouraged - they are for you, and everyone is welcome there.

------------------------------------------------------------

  Date     :  20170309, Time     :  180455.633
  Time zero on CPU 1             :   0.388024000000000E+00  s.
  Internal wall clock time zero  :           258314695.633  s.

  Using       32 parallel tasks.
  Task        0 on host eos060 reporting.
  Task        1 on host eos060 reporting.
  Task        2 on host eos060 reporting.
  Task        3 on host eos060 reporting.
  Task        4 on host eos060 reporting.
  Task        5 on host eos060 reporting.
  Task        6 on host eos060 reporting.
  Task        7 on host eos060 reporting.
  Task        8 on host eos060 reporting.
  Task        9 on host eos060 reporting.
  Task       10 on host eos060 reporting.
  Task       11 on host eos060 reporting.
  Task       12 on host eos060 reporting.
  Task       13 on host eos060 reporting.
  Task       14 on host eos060 reporting.
  Task       15 on host eos060 reporting.
  Task       16 on host eos060 reporting.
  Task       17 on host eos060 reporting.
  Task       18 on host eos060 reporting.
  Task       19 on host eos060 reporting.
  Task       20 on host eos060 reporting.
  Task       21 on host eos060 reporting.
  Task       22 on host eos060 reporting.
  Task       23 on host eos060 reporting.
  Task       24 on host eos060 reporting.
  Task       25 on host eos060 reporting.
  Task       26 on host eos060 reporting.
  Task       27 on host eos060 reporting.
  Task       28 on host eos060 reporting.
  Task       29 on host eos060 reporting.
  Task       30 on host eos060 reporting.
  Task       31 on host eos060 reporting.

  Performing system and environment tests:
  | Environment variable OMP_NUM_THREADS correctly set to 1.
  | Stacksize not measured: no C compiler
  | Checking for scalapack...
  | Testing pdtran()...
  | All pdtran() tests passed.

  Obtaining array dimensions for all initial allocations:
  
  -----------------------------------------------------------------------
  Parsing control.in (first pass over file, find array dimensions only).
  The contents of control.in will be repeated verbatim below
  unless switched off by setting 'verbatim_writeout .false.' .
  in the first line of control.in .
  -----------------------------------------------------------------------
  
  #########################################################################################
  #
  # Input for System
  #
  #########################################################################################
  #
  #
  #  Physical model
  #
    xc                 pbe
    vdw_correction_hirshfeld
    spin               none
    charge             0.
  #
  #  SCF convergence
  #
    occupation_type    gaussian 0.05
    mixer              pulay
      n_max_pulay        10
      charge_mix_param   0.5
    sc_accuracy_rho    1E-4
    sc_accuracy_eev    1E-2
    sc_accuracy_etot   1E-5
    sc_accuracy_forces 1E-4
    sc_iter_limit      1000
  #
  #  ESP charge
  #
    output esp
    esp equal_grid_n 80 80 80
  #
  #
  ################################################################################
  #
  #  FHI-aims code project
  # Volker Blum, Fritz Haber Institute Berlin, 2009
  #
  #  Suggested "tight" defaults for H atom (to be pasted into control.in file)
  #
  ################################################################################
    species        H
  #     global species definitions
      nucleus             1
      mass                1.00794
  #
      l_hartree           6
  #
      cut_pot             4.0  2.0  1.0
      basis_dep_cutoff    1e-4
  #
      radial_base         24 7.0
      radial_multiplier   2
      angular_grids       specified
        division   0.1930   50
        division   0.3175  110
        division   0.4293  194
        division   0.5066  302
        division   0.5626  434
  #      division   0.5922  590
  #      division   0.6227  974
  #      division   0.6868 1202
  #      outer_grid  770
        outer_grid  434
  ################################################################################
  #
  #  Definition of "minimal" basis
  #
  ################################################################################
  #     valence basis states
      valence      1  s   1.
  #     ion occupancy
      ion_occ      1  s   0.5
  ################################################################################
  #
  #  Suggested additional basis functions. For production calculations,
  #  uncomment them one after another (the most important basis functions are
  #  listed first).
  #
  #  Basis constructed for dimers: 0.5 A, 0.7 A, 1.0 A, 1.5 A, 2.5 A
  #
  ################################################################################
  #  "First tier" - improvements: -1014.90 meV to -62.69 meV
       hydro 2 s 2.1
       hydro 2 p 3.5
  #  "Second tier" - improvements: -12.89 meV to -1.83 meV
       hydro 1 s 0.85
       hydro 2 p 3.7
       hydro 2 s 1.2
       hydro 3 d 7
  #  "Third tier" - improvements: -0.25 meV to -0.12 meV
  #     hydro 4 f 11.2
  #     hydro 3 p 4.8
  #     hydro 4 d 9
  #     hydro 3 s 3.2
  ################################################################################
  #
  # For methods that use the localized form of the "resolution of identity" for
  # the two-electron Coulomb operator (RI_method LVL), particularly Hartree-Fock and
  # hybrid density functional calculations, the highest accuracy can be obtained by
  # uncommenting the line beginning with "for_aux"  below, thus adding an extra g radial
  # function to the construction of the product basis set for the expansion.
  # See Ref. New J. Phys. 17, 093020 (2015) for more information, particularly Figs. 1 and 6.
  #
  ################################################################################
  #
  # for_aux hydro 5 g 6.0
  ################################################################################
  #
  #  FHI-aims code project
  # Volker Blum, Fritz Haber Institute Berlin, 2009
  #
  #  Suggested "tight" defaults for C atom (to be pasted into control.in file)
  #
  ################################################################################
    species        C
  #     global species definitions
      nucleus             6
      mass                12.0107
  #
      l_hartree           6
  #
      cut_pot             4.0  2.0  1.0
      basis_dep_cutoff    1e-4
  #
      radial_base         34 7.0
      radial_multiplier   2
      angular_grids specified
        division   0.2187   50
        division   0.4416  110
        division   0.6335  194
        division   0.7727  302
        division   0.8772  434
  #      division   0.9334  590
  #      division   0.9924  770
  #      division   1.0230  974
  #      division   1.5020 1202
  #     outer_grid  974
        outer_grid  434
  ################################################################################
  #
  #  Definition of "minimal" basis
  #
  ################################################################################
  #     valence basis states
      valence      2  s   2.
      valence      2  p   2.
  #     ion occupancy
      ion_occ      2  s   1.
      ion_occ      2  p   1.
  ################################################################################
  #
  #  Suggested additional basis functions. For production calculations,
  #  uncomment them one after another (the most important basis functions are
  #  listed first).
  #
  #  Constructed for dimers: 1.0 A, 1.25 A, 1.5 A, 2.0 A, 3.0 A
  #
  ################################################################################
  #  "First tier" - improvements: -1214.57 meV to -155.61 meV
       hydro 2 p 1.7
       hydro 3 d 6
       hydro 2 s 4.9
  #  "Second tier" - improvements: -67.75 meV to -5.23 meV
       hydro 4 f 9.8
       hydro 3 p 5.2
       hydro 3 s 4.3
       hydro 5 g 14.4
       hydro 3 d 6.2
  #  "Third tier" - improvements: -2.43 meV to -0.60 meV
  #     hydro 2 p 5.6
  #     hydro 2 s 1.4
  #     hydro 3 d 4.9
  #     hydro 4 f 11.2
  #  "Fourth tier" - improvements: -0.39 meV to -0.18 meV
  #     hydro 2 p 2.1
  #     hydro 5 g 16.4
  #     hydro 4 d 13.2
  #     hydro 3 s 13.6
  #     hydro 4 f 17.6
  #  Further basis functions - improvements: -0.08 meV and below
  #     hydro 3 s 2
  #     hydro 3 p 6
  #     hydro 4 d 20
  ################################################################################
  #
  # For methods that use the localized form of the "resolution of identity" for
  # the two-electron Coulomb operator (RI_method LVL), particularly Hartree-Fock and
  # hybrid density functional calculations, the highest accuracy can be obtained by
  # uncommenting the line beginning with "for_aux"  below, thus adding an extra g radial
  # function to the construction of the product basis set for the expansion.
  # See Ref. New J. Phys. 17, 093020 (2015) for more information, particularly Figs. 1 and 6.
  #
  ################################################################################
  #
  # for_aux hydro 5 g 6.0
  ################################################################################
  #
  #  FHI-aims code project
  # Volker Blum, Fritz Haber Institute Berlin, 2009
  #
  #  Suggested "tight" defaults for N atom (to be pasted into control.in file)
  #
  ################################################################################
    species        N
  #     global species definitions
      nucleus             7
      mass                14.0067
  #
      l_hartree           6
  #
      cut_pot             4.0  2.0  1.0
      basis_dep_cutoff    1e-4
  #
      radial_base         35 7.0
      radial_multiplier   2
      angular_grids       specified
        division   0.1841   50
        division   0.3514  110
        division   0.5126  194
        division   0.6292  302
        division   0.6939  434
  #      division   0.7396  590
  #      division   0.7632  770
  #      division   0.8122  974
  #      division   1.1604 1202
  #      outer_grid  974
        outer_grid  434
  ################################################################################
  #
  #  Definition of "minimal" basis
  #
  ################################################################################
  #     valence basis states
      valence      2  s   2.
      valence      2  p   3.
  #     ion occupancy
      ion_occ      2  s   1.
      ion_occ      2  p   2.
  ################################################################################
  #
  #  Suggested additional basis functions. For production calculations,
  #  uncomment them one after another (the most important basis functions are
  #  listed first).
  #
  #  Constructed for dimers: 1.0 A, 1.1 A, 1.5 A, 2.0 A, 3.0 A
  #
  ################################################################################
  #  "First tier" - improvements: -1193.42 meV to -220.60 meV
       hydro 2 p 1.8
       hydro 3 d 6.8
       hydro 3 s 5.8
  #  "Second tier" - improvements: -80.21 meV to -6.86 meV
       hydro 4 f 10.8
       hydro 3 p 5.8
       hydro 1 s 0.8
       hydro 5 g 16
       hydro 3 d 4.9
  #  "Third tier" - improvements: -4.29 meV to -0.53 meV
  #     hydro 3 s 16
  #     ionic 2 p auto
  #     hydro 3 d 6.6
  #     hydro 4 f 11.6
  #  "Fourth tier" - improvements: -0.75 meV to -0.25 meV
  #     hydro 2 p 4.5
  #     hydro 2 s 2.4
  #     hydro 5 g 14.4
  #     hydro 4 d 14.4
  #     hydro 4 f 16.8
  # Further basis functions - -0.21 meV and below
  #     hydro 3 p 14.8
  #     hydro 3 s 4.4
  #     hydro 3 d 19.6
  #     hydro 5 g 12.8
  ################################################################################
  #
  # For methods that use the localized form of the "resolution of identity" for
  # the two-electron Coulomb operator (RI_method LVL), particularly Hartree-Fock and
  # hybrid density functional calculations, the highest accuracy can be obtained by
  # uncommenting the line beginning with "for_aux"  below, thus adding an extra g radial
  # function to the construction of the product basis set for the expansion.
  # See Ref. New J. Phys. 17, 093020 (2015) for more information, particularly Figs. 1 and 6.
  #
  ################################################################################
  #
  # for_aux hydro 5 g 6.0
  ################################################################################
  #
  #  FHI-aims code project
  # Volker Blum, Fritz Haber Institute Berlin, 2009
  #
  #  Suggested "tight" defaults for O atom (to be pasted into control.in file)
  #
  ################################################################################
    species        O
  #     global species definitions
      nucleus             8
      mass                15.9994
  #
      l_hartree           6
  #
      cut_pot             4.0  2.0  1.0
      basis_dep_cutoff    1e-4
  #
      radial_base         36 7.0
      radial_multiplier   2
       angular_grids specified
        division   0.1817   50
        division   0.3417  110
        division   0.4949  194
        division   0.6251  302
        division   0.8014  434
  #      division   0.8507  590
  #      division   0.8762  770
  #      division   0.9023  974
  #      division   1.2339 1202
  #      outer_grid 974
        outer_grid  434
  ################################################################################
  #
  #  Definition of "minimal" basis
  #
  ################################################################################
  #     valence basis states
      valence      2  s   2.
      valence      2  p   4.
  #     ion occupancy
      ion_occ      2  s   1.
      ion_occ      2  p   3.
  ################################################################################
  #
  #  Suggested additional basis functions. For production calculations,
  #  uncomment them one after another (the most important basis functions are
  #  listed first).
  #
  #  Constructed for dimers: 1.0 A, 1.208 A, 1.5 A, 2.0 A, 3.0 A
  #
  ################################################################################
  #  "First tier" - improvements: -699.05 meV to -159.38 meV
       hydro 2 p 1.8
       hydro 3 d 7.6
       hydro 3 s 6.4
  #  "Second tier" - improvements: -49.91 meV to -5.39 meV
       hydro 4 f 11.6
       hydro 3 p 6.2
       hydro 3 d 5.6
       hydro 5 g 17.6
       hydro 1 s 0.75
  #  "Third tier" - improvements: -2.83 meV to -0.50 meV
  #     ionic 2 p auto
  #     hydro 4 f 10.8
  #     hydro 4 d 4.7
  #     hydro 2 s 6.8
  #  "Fourth tier" - improvements: -0.40 meV to -0.12 meV
  #     hydro 3 p 5
  #     hydro 3 s 3.3
  #     hydro 5 g 15.6
  #     hydro 4 f 17.6
  #     hydro 4 d 14
  # Further basis functions - -0.08 meV and below
  #     hydro 3 s 2.1
  #     hydro 4 d 11.6
  #     hydro 3 p 16
  #     hydro 2 s 17.2
  ################################################################################
  #
  # For methods that use the localized form of the "resolution of identity" for
  # the two-electron Coulomb operator (RI_method LVL), particularly Hartree-Fock and
  # hybrid density functional calculations, the highest accuracy can be obtained by
  # uncommenting the line beginning with "for_aux"  below, thus adding an extra g radial
  # function to the construction of the product basis set for the expansion.
  # See Ref. New J. Phys. 17, 093020 (2015) for more information, particularly Figs. 1 and 6.
  #
  ################################################################################
  #
  # for_aux hydro 5 g 6.0
  
  -----------------------------------------------------------------------
  Completed first pass over input file control.in .
  -----------------------------------------------------------------------
  
  
  -----------------------------------------------------------------------
  Parsing geometry.in (first pass over file, find array dimensions only).
  The contents of geometry.in will be repeated verbatim below
  unless switched off by setting 'verbatim_writeout .false.' .
  in the first line of geometry.in .
  -----------------------------------------------------------------------
  
  #
  # This is the geometry file that corresponds to the current relaxation step.
  # If you do not want this file to be written, set the "write_restart_geometry" flag to .false.
  #
  atom       0.31062896      1.02302065      0.57309546 C
  atom      -0.10622138      0.87491342      2.02426263 C
  atom       0.18730356      1.70374047      2.88292718 O
  atom       1.34060191      1.39375700      0.53492466 H
  atom      -0.33495079      1.77790608      0.10322562 H
  atom       0.23651945      0.09203832     -0.00286775 H
  atom      -0.84048543     -0.24639951      2.31374503 N
  atom      -1.49582353     -0.41404453      3.61058280 C
  atom      -2.40684448      0.81409116      3.87918398 C
  atom      -3.18730251      1.20600642      3.01133217 O
  atom      -1.21445368     -0.77293168      1.53425004 H
  atom      -2.20299177     -1.24694012      3.47751731 H
  atom      -0.50382432     -0.79380450      4.71387340 C
  atom       0.21705026      0.01205126      4.89760128 H
  atom       0.05738274     -1.68682721      4.41154066 H
  atom      -1.02764445     -1.03214231      5.64946301 H
  atom      -2.33183028      1.36514166      5.11550617 N
  atom      -3.03463127      2.59131490      5.43862597 C
  atom      -2.18134602      3.32396318      6.48695011 C
  atom      -1.38558868      2.71739511      7.20480761 O
  atom      -1.56354953      1.14622023      5.74772951 H
  atom      -3.10652573      3.19071421      4.51642228 H
  atom      -4.45331226      2.32247086      5.97049496 C
  atom      -4.98465332      3.26046437      6.18149556 H
  atom      -4.40922209      1.73085037      6.89407039 H
  atom      -5.02261543      1.76540353      5.21694864 H
  atom      -2.40530915      4.66238578      6.57264418 N
  atom      -1.73091378      5.51781330      7.53119700 C
  atom      -3.03562248      5.08303459      5.90028887 H
  atom      -2.45017284      6.01232608      8.19902899 H
  atom      -1.12936074      6.28441687      7.02348558 H
  atom      -1.06637596      4.88456002      8.12798471 H
  
  -----------------------------------------------------------------------
  Completed first pass over input file geometry.in .
  -----------------------------------------------------------------------
  

  Basic array size parameters:
  | Number of species                 :        4
  | Number of atoms                   :       32
  | Max. basis fn. angular momentum   :        4
  | Max. atomic/ionic basis occupied n:        2
  | Max. number of basis fn. types    :        2
  | Max. radial fns per species/type  :        8
  | Max. logarithmic grid size        :     1301
  | Max. radial integration grid size :       73
  | Max. angular integration grid size:      434
  | Max. angular grid division number :        8
  | Radial grid for Hartree potential :     1301
  | Number of spin channels           :        1

------------------------------------------------------------
          Reading file control.in.
------------------------------------------------------------
  XC: Using PBE gradient-corrected functionals.
  Spin treatment: No spin polarisation.
  Charge =   0.000000E+00: Neutral system requested explicitly.
  Occupation type: Gaussian broadening, width =   0.500000E-01 eV.
  Using pulay charge density mixing.
  Pulay mixing - number of memorized iterations:   10
  Charge density mixing - mixing parameter:     0.5000
  Convergence accuracy of self-consistent charge density:  0.1000E-03
  Convergence accuracy of sum of eigenvalues:  0.1000E-01
  Convergence accuracy of total energy:  0.1000E-04
  Convergence accuracy of forces:  0.1000E-03
  Maximum number of s.-c. iterations  :  1000
  Fitting ESP-charges to Potential. 
  | Esp charge output options: 
  | ESP Grid method: 3, cubic grid
  | Number of points in x, ,y, z:  0080 0080 0080
  |
 
  Reading configuration options for species H                   .
  | Found nuclear charge :   1.0000
  | Found atomic mass :    1.00794000000000      amu
  | Found l_max for Hartree potential  :   6
  | Found cutoff potl. onset [A], width [A], scale factor :    4.00000    2.00000    1.00000
  | Threshold for basis-dependent cutoff potential is   0.100000E-03
  | Found data for basic radial integration grid :    24 points, outermost radius =    7.000 A
  | Found multiplier for basic radial grid :   2
  | Found angular grid specification: user-specified.
  | Specified grid contains     6 separate shells.
  | Check grid settings after all constraints further below.
  | Found free-atom valence shell :  1 s   1.000
  | No ionic wave fns used. Skipping ion_occ.
  | Found hydrogenic basis function :  2 s   2.100
  | Found hydrogenic basis function :  2 p   3.500
  | Found hydrogenic basis function :  1 s   0.850
  | Found hydrogenic basis function :  2 p   3.700
  | Found hydrogenic basis function :  2 s   1.200
  | Found hydrogenic basis function :  3 d   7.000
  Species H                   : Missing cutoff potential type.
  Defaulting to exp(1/x)/(1-x)^2 type cutoff potential.
  Species H : No 'logarithmic' tag. Using default grid for free atom:
  | Default logarithmic grid data [bohr] : 0.1000E-03 0.1000E+03 0.1012E+01
  Species H : On-site basis accuracy parameter (for Gram-Schmidt orthonormalisation) not specified.
  Using default value basis_acc =  0.1000000E-03.
  Species H                   : Using default innermost maximum threshold i_radial=  2 for radial functions.
  Species H                   : Default cutoff onset for free atom density etc. : 0.40000000E+01 AA.
  Species H                   : Basic radial grid will be enhanced according to radial_multiplier =   2, to contain    49 grid points.
 
  Reading configuration options for species C                   .
  | Found nuclear charge :   6.0000
  | Found atomic mass :    12.0107000000000      amu
  | Found l_max for Hartree potential  :   6
  | Found cutoff potl. onset [A], width [A], scale factor :    4.00000    2.00000    1.00000
  | Threshold for basis-dependent cutoff potential is   0.100000E-03
  | Found data for basic radial integration grid :    34 points, outermost radius =    7.000 A
  | Found multiplier for basic radial grid :   2
  | Found angular grid specification: user-specified.
  | Specified grid contains     6 separate shells.
  | Check grid settings after all constraints further below.
  | Found free-atom valence shell :  2 s   2.000
  | Found free-atom valence shell :  2 p   2.000
  | No ionic wave fns used. Skipping ion_occ.
  | No ionic wave fns used. Skipping ion_occ.
  | Found hydrogenic basis function :  2 p   1.700
  | Found hydrogenic basis function :  3 d   6.000
  | Found hydrogenic basis function :  2 s   4.900
  | Found hydrogenic basis function :  4 f   9.800
  | Found hydrogenic basis function :  3 p   5.200
  | Found hydrogenic basis function :  3 s   4.300
  | Found hydrogenic basis function :  5 g  14.400
  | Found hydrogenic basis function :  3 d   6.200
  Species C                   : Missing cutoff potential type.
  Defaulting to exp(1/x)/(1-x)^2 type cutoff potential.
  Species C : No 'logarithmic' tag. Using default grid for free atom:
  | Default logarithmic grid data [bohr] : 0.1000E-03 0.1000E+03 0.1012E+01
  Species C : On-site basis accuracy parameter (for Gram-Schmidt orthonormalisation) not specified.
  Using default value basis_acc =  0.1000000E-03.
  Species C                   : Using default innermost maximum threshold i_radial=  2 for radial functions.
  Species C                   : Default cutoff onset for free atom density etc. : 0.40000000E+01 AA.
  Species C                   : Basic radial grid will be enhanced according to radial_multiplier =   2, to contain    69 grid points.
 
  Reading configuration options for species N                   .
  | Found nuclear charge :   7.0000
  | Found atomic mass :    14.0067000000000      amu
  | Found l_max for Hartree potential  :   6
  | Found cutoff potl. onset [A], width [A], scale factor :    4.00000    2.00000    1.00000
  | Threshold for basis-dependent cutoff potential is   0.100000E-03
  | Found data for basic radial integration grid :    35 points, outermost radius =    7.000 A
  | Found multiplier for basic radial grid :   2
  | Found angular grid specification: user-specified.
  | Specified grid contains     6 separate shells.
  | Check grid settings after all constraints further below.
  | Found free-atom valence shell :  2 s   2.000
  | Found free-atom valence shell :  2 p   3.000
  | No ionic wave fns used. Skipping ion_occ.
  | No ionic wave fns used. Skipping ion_occ.
  | Found hydrogenic basis function :  2 p   1.800
  | Found hydrogenic basis function :  3 d   6.800
  | Found hydrogenic basis function :  3 s   5.800
  | Found hydrogenic basis function :  4 f  10.800
  | Found hydrogenic basis function :  3 p   5.800
  | Found hydrogenic basis function :  1 s   0.800
  | Found hydrogenic basis function :  5 g  16.000
  | Found hydrogenic basis function :  3 d   4.900
  Species N                   : Missing cutoff potential type.
  Defaulting to exp(1/x)/(1-x)^2 type cutoff potential.
  Species N : No 'logarithmic' tag. Using default grid for free atom:
  | Default logarithmic grid data [bohr] : 0.1000E-03 0.1000E+03 0.1012E+01
  Species N : On-site basis accuracy parameter (for Gram-Schmidt orthonormalisation) not specified.
  Using default value basis_acc =  0.1000000E-03.
  Species N                   : Using default innermost maximum threshold i_radial=  2 for radial functions.
  Species N                   : Default cutoff onset for free atom density etc. : 0.40000000E+01 AA.
  Species N                   : Basic radial grid will be enhanced according to radial_multiplier =   2, to contain    71 grid points.
 
  Reading configuration options for species O                   .
  | Found nuclear charge :   8.0000
  | Found atomic mass :    15.9994000000000      amu
  | Found l_max for Hartree potential  :   6
  | Found cutoff potl. onset [A], width [A], scale factor :    4.00000    2.00000    1.00000
  | Threshold for basis-dependent cutoff potential is   0.100000E-03
  | Found data for basic radial integration grid :    36 points, outermost radius =    7.000 A
  | Found multiplier for basic radial grid :   2
  | Found angular grid specification: user-specified.
  | Specified grid contains     6 separate shells.
  | Check grid settings after all constraints further below.
  | Found free-atom valence shell :  2 s   2.000
  | Found free-atom valence shell :  2 p   4.000
  | No ionic wave fns used. Skipping ion_occ.
  | No ionic wave fns used. Skipping ion_occ.
  | Found hydrogenic basis function :  2 p   1.800
  | Found hydrogenic basis function :  3 d   7.600
  | Found hydrogenic basis function :  3 s   6.400
  | Found hydrogenic basis function :  4 f  11.600
  | Found hydrogenic basis function :  3 p   6.200
  | Found hydrogenic basis function :  3 d   5.600
  | Found hydrogenic basis function :  5 g  17.600
  | Found hydrogenic basis function :  1 s   0.750
  Species O                   : Missing cutoff potential type.
  Defaulting to exp(1/x)/(1-x)^2 type cutoff potential.
  Species O : No 'logarithmic' tag. Using default grid for free atom:
  | Default logarithmic grid data [bohr] : 0.1000E-03 0.1000E+03 0.1012E+01
  Species O : On-site basis accuracy parameter (for Gram-Schmidt orthonormalisation) not specified.
  Using default value basis_acc =  0.1000000E-03.
  Species O                   : Using default innermost maximum threshold i_radial=  2 for radial functions.
  Species O                   : Default cutoff onset for free atom density etc. : 0.40000000E+01 AA.
  Species O                   : Basic radial grid will be enhanced according to radial_multiplier =   2, to contain    73 grid points.
 
  Finished reading input file 'control.in'. Consistency checks are next.
 
  Target number of points in a grid batch is not set. Defaulting to  100
  Method for grid partitioning is not set. Defaulting to parallel hash+maxmin partitioning.
  Batch size limit is not set. Defaulting to    200
  By default, will store active basis functions for each batch.
  If in need of memory, prune_basis_once .false. can be used to disable this option.
  communication_type for Hartree potential was not specified.
  Defaulting to calc_hartree .
  Pulay mixer: Number of initial linear mixing iterations not set.
  Defaulting to    0 iterations.
  Work space size for distributed Hartree potential not set.
  Defaulting to   0.200000E+03 MB.
  Algorithm-dependent basis array size parameters:
  | n_max_pulay                         :       10
  Geometry relaxation not requested: no relaxation will be performed.
  Handling of forces: Unphysical translation and rotation will be removed from forces.
  No accuracy limit for integral partition fn. given. Defaulting to  0.1000E-14.
  No threshold value for u(r) in integrations given. Defaulting to  0.1000E-05.
  No accuracy for occupation numbers given. Defaulting to  0.1000E-07.
  No threshold value for occupation numbers given. Defaulting to  0.0000E+00.
  No accuracy for fermi level given. Defaulting to  0.1000E-19.
  Maximum # of iterations to find E_F not set. Defaulting to  200.
  Preferred method for the eigenvalue solver ('KS_method') not specified in 'control.in'.
  Calling blacs routine to test compilation state
  Since scalapack support is enabled, defaulting to 'elpa'.
  Preferred method for the MBD eigenvalue solver ('mbd_eigensolver') not specified in 'control.in'.
  Calling blacs routine to test compilation state
  Since scalapack support is enabled, defaulting to 'scaLAPACK'.
  Will not use alltoall communication since running on < 1024 CPUs.
  Threshold for basis singularities not set.
  Default threshold for basis singularities:  0.1000E-04
  partition_type (choice of integration weights) for integrals was not specified.
  | Using a version of the partition function of Stratmann and coworkers ('stratmann_smoother').
  | At each grid point, the set of atoms used to build the partition table is smoothly restricted to
  | only those atoms whose free-atom density would be non-zero at that grid point.
  Partitioning for Hartree potential was not defined. Using partition_type for integrals.
  | Adjusted default value of keyword multip_moments_threshold to:       0.10000000E-11
  | This value may affect high angular momentum components of the Hartree potential in periodic systems.
  No q(lm)/r^(l+1) cutoff set for long-range Hartree potential.
  | Using default value of  0.100000E-09 .
  | Verify using the multipole_threshold keyword.
  Defaulting to new monopole extrapolation.
  Density update method: automatic selection selected.
------------------------------------------------------------


------------------------------------------------------------
          Reading geometry description geometry.in.
------------------------------------------------------------
 * Warning! You did not set the 'relativistic' flag in input file 'control.in'.
 * Since you are not attempting to treat any elements beyond Ca(Z=20), FHI-aims
 * will default to 'relativistic none'.
 * You must ensure that this is really what you want!!
 * For example, DO NOT compute total-energy differences between results from
 * different settings of the 'relativistic' flag.
  Input structure read successfully.
  The structure contains       32 atoms,  and a total of        116.000 electrons.

  Input geometry:
  | No unit cell requested.
  | Atomic structure:
  |       Atom                x [A]            y [A]            z [A]
  |    1: Species C              0.310629         1.023021         0.573095
  |    2: Species C             -0.106221         0.874913         2.024263
  |    3: Species O              0.187304         1.703740         2.882927
  |    4: Species H              1.340602         1.393757         0.534925
  |    5: Species H             -0.334951         1.777906         0.103226
  |    6: Species H              0.236519         0.092038        -0.002868
  |    7: Species N             -0.840485        -0.246400         2.313745
  |    8: Species C             -1.495824        -0.414045         3.610583
  |    9: Species C             -2.406844         0.814091         3.879184
  |   10: Species O             -3.187303         1.206006         3.011332
  |   11: Species H             -1.214454        -0.772932         1.534250
  |   12: Species H             -2.202992        -1.246940         3.477517
  |   13: Species C             -0.503824        -0.793805         4.713873
  |   14: Species H              0.217050         0.012051         4.897601
  |   15: Species H              0.057383        -1.686827         4.411541
  |   16: Species H             -1.027644        -1.032142         5.649463
  |   17: Species N             -2.331830         1.365142         5.115506
  |   18: Species C             -3.034631         2.591315         5.438626
  |   19: Species C             -2.181346         3.323963         6.486950
  |   20: Species O             -1.385589         2.717395         7.204808
  |   21: Species H             -1.563550         1.146220         5.747730
  |   22: Species H             -3.106526         3.190714         4.516422
  |   23: Species C             -4.453312         2.322471         5.970495
  |   24: Species H             -4.984653         3.260464         6.181496
  |   25: Species H             -4.409222         1.730850         6.894070
  |   26: Species H             -5.022615         1.765404         5.216949
  |   27: Species N             -2.405309         4.662386         6.572644
  |   28: Species C             -1.730914         5.517813         7.531197
  |   29: Species H             -3.035622         5.083035         5.900289
  |   30: Species H             -2.450173         6.012326         8.199029
  |   31: Species H             -1.129361         6.284417         7.023486
  |   32: Species H             -1.066376         4.884560         8.127985
  |

  | The smallest distance between any two atoms is         1.01227507 AA.
  |
  | The first atom of this pair is atom number                      7 .
  | The second atom of this pair is atom number                    11 .

  Number of empty states per atom not set in control.in - providing a guess from actual geometry.
  | Total number of empty states used during s.c.f. cycle:       71
  If you use a very high smearing, use empty_states (per atom!) in control.in to increase this value.

  Structure-dependent array size parameters: 
  | Maximum number of distinct radial functions  :       40
  | Maximum number of basis functions            :      840
  | Number of Kohn-Sham states (occupied + empty):      129
------------------------------------------------------------

------------------------------------------------------------
          Preparing all fixed parts of the calculation.
------------------------------------------------------------
  Determining machine precision:
    2.225073858507201E-308
  Setting up grids for atomic and cluster calculations.

  Creating wave function, potential, and density for free atoms.

  Species: H

  List of occupied orbitals and eigenvalues:
    n    l              occ      energy [Ha]    energy [eV]
    1    0           1.0000        -0.238382        -6.4867


  Species: C

  List of occupied orbitals and eigenvalues:
    n    l              occ      energy [Ha]    energy [eV]
    1    0           2.0000       -10.041232      -273.2358
    2    0           2.0000        -0.504327       -13.7234
    2    1           2.0000        -0.193750        -5.2722


  Species: N

  List of occupied orbitals and eigenvalues:
    n    l              occ      energy [Ha]    energy [eV]
    1    0           2.0000       -14.129007      -384.4699
    2    0           2.0000        -0.681802       -18.5528
    2    1           3.0000        -0.260543        -7.0897


  Species: O

  List of occupied orbitals and eigenvalues:
    n    l              occ      energy [Ha]    energy [eV]
    1    0           2.0000       -18.898576      -514.2564
    2    0           2.0000        -0.878795       -23.9132
    2    1           4.0000        -0.332075        -9.0362

  Creating fixed part of basis set: Ionic, confined, hydrogenic.
 
  H                    hydrogenic:
 
  List of hydrogenic basis orbitals: 
    n    l      effective z      eigenvalue [eV]  inner max. [A]     outer max. [A]     outer radius [A]   
    2    0         2.100000       -14.9965           0.193243           1.317208           5.373006
    2    1         3.500000       -41.6672           0.602369           0.602369           4.056063
    1    0         0.850000        -9.8292           0.624871           0.624871           5.373006
    2    1         3.700000       -46.5653           0.573622           0.573622           3.910002
    2    0         1.200000        -4.5995           0.334980           2.228188           5.505995
    3    2         7.000000       -74.0753           0.680699           0.680699           3.769201
 
 
  C                    hydrogenic:
 
  List of hydrogenic basis orbitals: 
    n    l      effective z      eigenvalue [eV]  inner max. [A]     outer max. [A]     outer radius [A]   
    2    1         1.700000        -9.8152           1.245706           1.245706           5.401630
    3    2         6.000000       -54.4226           0.792453           0.792453           4.178599
    2    0         4.900000       -81.6681           0.082559           0.562749           3.353238
    4    3         9.800000       -81.6681           0.863254           0.863254           4.028125
    3    1         5.200000       -40.8774           0.305389           1.215618           4.898362
    3    0         4.300000       -27.9508           0.091041           1.610311           5.401630
    5    4        14.400000      -112.8510           0.917666           0.917666           3.883070
    3    2         6.200000       -58.1113           0.763917           0.763917           4.077671
 
 
  N                    hydrogenic:
 
  List of hydrogenic basis orbitals: 
    n    l      effective z      eigenvalue [eV]  inner max. [A]     outer max. [A]     outer radius [A]   
    2    1         1.800000       -11.0118           1.177451           1.177451           5.427479
    3    2         6.800000       -69.9029           0.704619           0.704619           3.854246
    3    0         5.800000       -50.8549           0.067388           1.191934           4.629968
    4    3        10.800000       -99.1854           0.786571           0.786571           3.761152
    3    1         5.800000       -50.8549           0.274880           1.094176           4.518138
    1    0         0.800000        -8.7059           0.662839           0.662839           5.361532
    5    4        16.000000      -139.3222           0.825990           0.825990           3.625711
    3    2         4.900000       -36.2967           0.968267           0.968267           4.862000
 
 
  O                    hydrogenic:
 
  List of hydrogenic basis orbitals: 
    n    l      effective z      eigenvalue [eV]  inner max. [A]     outer max. [A]     outer radius [A]   
    2    1         1.800000       -11.0118           1.178562           1.178562           5.432602
    3    2         7.600000       -87.3182           0.624125           0.624125           3.541477
    3    0         6.400000       -61.9209           0.061167           1.081902           4.306578
    4    3        11.600000      -114.4238           0.731631           0.731631           3.585037
    3    1         6.200000       -58.1113           0.255680           1.030270           4.306578
    3    2         5.600000       -47.4081           0.847233           0.847233           4.413171
    5    4        17.600000      -168.5799           0.749740           0.749740           3.372465
    1    0         0.750000        -7.6499           0.705284           0.705284           5.366593
 

  Adding cutoff potential to free-atom effective potential.
  Creating atomic-like basis functions for current effective potential.

  Species H                   :

  List of atomic basis orbitals and eigenvalues:
    n    l      energy [Ha]    energy [eV]    outer radius [A]
    1    0        -0.238382        -6.4867       5.373006


  Species C                   :

  List of atomic basis orbitals and eigenvalues:
    n    l      energy [Ha]    energy [eV]    outer radius [A]
    1    0       -10.041232      -273.2358       1.934409
    2    0        -0.504327       -13.7234       5.271162
    2    1        -0.193750        -5.2722       5.401630


  Species N                   :

  List of atomic basis orbitals and eigenvalues:
    n    l      energy [Ha]    energy [eV]    outer radius [A]
    1    0       -14.129007      -384.4699       1.637919
    2    0        -0.681802       -18.5528       5.168461
    2    1        -0.260543        -7.0897       5.361532


  Species O                   :

  List of atomic basis orbitals and eigenvalues:
    n    l      energy [Ha]    energy [eV]    outer radius [A]
    1    0       -18.898576      -514.2564       1.415765
    2    0        -0.878795       -23.9132       5.048385
    2    1        -0.332075        -9.0362       5.301386

  Assembling full basis from fixed parts.
  | Species H :   atomic orbital   1 s accepted.
  | Species H :    hydro orbital   2 s accepted.
  | Species H :    hydro orbital   1 s accepted.
  | Species H :    hydro orbital   2 s accepted.
  | Species H :    hydro orbital   2 p accepted.
  | Species H :    hydro orbital   2 p accepted.
  | Species H :    hydro orbital   3 d accepted.
  | Species C :   atomic orbital   1 s accepted.
  | Species C :    hydro orbital   2 s accepted.
  | Species C :   atomic orbital   2 s accepted.
  | Species C :    hydro orbital   3 s accepted.
  | Species C :    hydro orbital   3 p accepted.
  | Species C :   atomic orbital   2 p accepted.
  | Species C :    hydro orbital   2 p accepted.
  | Species C :    hydro orbital   3 d accepted.
  | Species C :    hydro orbital   3 d accepted.
  | Species C :    hydro orbital   4 f accepted.
  | Species C :    hydro orbital   5 g accepted.
  | Species N :   atomic orbital   1 s accepted.
  | Species N :    hydro orbital   3 s accepted.
  | Species N :   atomic orbital   2 s accepted.
  | Species N :    hydro orbital   1 s accepted.
  | Species N :    hydro orbital   3 p accepted.
  | Species N :   atomic orbital   2 p accepted.
  | Species N :    hydro orbital   2 p accepted.
  | Species N :    hydro orbital   3 d accepted.
  | Species N :    hydro orbital   3 d accepted.
  | Species N :    hydro orbital   4 f accepted.
  | Species N :    hydro orbital   5 g accepted.
  | Species O :   atomic orbital   1 s accepted.
  | Species O :    hydro orbital   3 s accepted.
  | Species O :   atomic orbital   2 s accepted.
  | Species O :    hydro orbital   1 s accepted.
  | Species O :    hydro orbital   3 p accepted.
  | Species O :   atomic orbital   2 p accepted.
  | Species O :    hydro orbital   2 p accepted.
  | Species O :    hydro orbital   3 d accepted.
  | Species O :    hydro orbital   3 d accepted.
  | Species O :    hydro orbital   4 f accepted.
  | Species O :    hydro orbital   5 g accepted.
 
  Basis size parameters after reduction:
  | Total number of radial functions:       40
  | Total number of basis functions :      840
 
  Testing on-site integration grid accuracy.
  |  Species  Function  <phi|h_atom|phi> (log., in eV)  <phi|h_atom|phi> (rad., in eV)
           1        1                 -6.4869821809                 -6.4870742227
           1        2                 13.5044133542                 13.5041049177
           1        3                 32.7854418792                 32.7779770519
           1        4                 33.7995553101                 33.7152624900 ***
           1        5                 28.8558651799                 28.8558652046
           1        6                 59.6361831893                 59.6362535845
           1        7                 60.2733718049                 60.2733715484
           2        8               -273.2358277112               -273.2358261765
           2        9                -10.7624923123                -10.7625144012
           2       10                 17.4634079027                 17.4634252127
           2       11                 53.0363661832                 53.0366180446
           2       12                 15.0981351967                 15.0981317714
           2       13                  3.8522181899                  3.8522770949
           2       14                 12.1181835661                 12.1206868578
           2       15                 29.4320778347                 29.4320780959
           2       16                 54.8753777694                 54.8752901936
           2       17                 59.3533975461                 59.3533974833
           2       18                 93.4537491195                 93.4537492066
           3       19               -384.4698526889               -384.4698499465
           3       20                 12.5691022037                 12.5690910168
           3       21                -15.7489097511                -15.7489165588
           3       22                 27.0978334940                 27.0985589490
           3       23                 18.5949116966                 18.5949125562
           3       24                  1.2212828291                  1.2212855301
           3       25                 13.4428926797                 13.4434051125
           3       26                 35.9380614500                 35.9380613666
           3       27                 39.9231532098                 39.9231654735
           3       28                 72.9957335806                 72.9957336833
           3       29                116.4231321147                116.4231321431
           4       30               -514.2564144315               -514.2564099626
           4       31                 15.1726678541                 15.1726530877
           4       32                -21.5447785304                -21.5447874973
           4       33                 14.4944558459                 14.4944698284
           4       34                 20.8882174564                 20.8882178906
           4       35                 -2.4850315908                 -2.4850322289
           4       36                 13.8600193195                 13.8599826966
           4       37                 45.8243383616                 45.8243383675
           4       38                 52.1840606465                 52.1840622440
           4       39                 85.4074185510                 85.4074185819
           4       40                142.0983717302                142.0983717339
 * Note: Onsite integrals marked "***" above are less accurate than
 * onsite_accuracy_threshold =    0.03000 eV. Usually, this is harmless.
 * When in doubt, tighten the "radial" and/or "radial_multiplier" flags to check.

  Preparing densities etc. for the partition functions (integrals / Hartree potential).

  Preparations completed.
  max(cpu_time)          :      0.240 s.
  Wall clock time (cpu1) :      0.237 s.
------------------------------------------------------------

------------------------------------------------------------
          Begin self-consistency loop: Initialization.

          Date     :  20170309, Time     :  180456.672
------------------------------------------------------------

  Initializing index lists of integration centers etc. from given atomic structure:
  | Number of centers in hartree potential         :        32
  | Number of centers in hartree multipole         :        32
  | Number of centers in electron density summation:        32
  | Number of centers in basis integrals           :        32
  | Number of centers in integrals                 :        32
  | Number of centers in hamiltonian               :        32
  Using modified Scalapack Eigenvalue solver (ELPA)
  * Using 32 tasks for Scalapack Eigenvalue solver.
  Detailed listing of tasks and assigned k-points:
  (for non-periodic systems, the "k-point" denotes an internal label only)
   Task     0 k-point     1 on eos060
   Task     1 k-point     1 on eos060
   Task     2 k-point     1 on eos060
   Task     3 k-point     1 on eos060
   Task     4 k-point     1 on eos060
   Task     5 k-point     1 on eos060
   Task     6 k-point     1 on eos060
   Task     7 k-point     1 on eos060
   Task     8 k-point     1 on eos060
   Task     9 k-point     1 on eos060
   Task    10 k-point     1 on eos060
   Task    11 k-point     1 on eos060
   Task    12 k-point     1 on eos060
   Task    13 k-point     1 on eos060
   Task    14 k-point     1 on eos060
   Task    15 k-point     1 on eos060
   Task    16 k-point     1 on eos060
   Task    17 k-point     1 on eos060
   Task    18 k-point     1 on eos060
   Task    19 k-point     1 on eos060
   Task    20 k-point     1 on eos060
   Task    21 k-point     1 on eos060
   Task    22 k-point     1 on eos060
   Task    23 k-point     1 on eos060
   Task    24 k-point     1 on eos060
   Task    25 k-point     1 on eos060
   Task    26 k-point     1 on eos060
   Task    27 k-point     1 on eos060
   Task    28 k-point     1 on eos060
   Task    29 k-point     1 on eos060
   Task    30 k-point     1 on eos060
   Task    31 k-point     1 on eos060
  Tasks:    32 split into      8 X      4 BLACS grid
  Calculating blocksize based on n_basis =          840 max_nprow =            8 max_npcol =            4
  Scalapack blocksize set to:           16
  Required Scalapack workspace - INTEGER:            1 REAL:             1
  Partitioning the integration grid into batches with parallel hashing+maxmin method.
  | Number of batches:     4976
  | Maximal batch size:     200
  | Minimal batch size:       4
  | Average batch size:     106.055
  | Standard deviation of batch sizes:      28.166

  Integration load balanced across    32 MPI tasks.
  Work distribution over tasks is as follows:
  Task     0 has      16502 integration points.
  Task     1 has      16492 integration points.
  Task     2 has      16497 integration points.
  Task     3 has      16491 integration points.
  Task     4 has      16484 integration points.
  Task     5 has      16485 integration points.
  Task     6 has      16499 integration points.
  Task     7 has      16490 integration points.
  Task     8 has      16497 integration points.
  Task     9 has      16512 integration points.
  Task    10 has      16531 integration points.
  Task    11 has      16526 integration points.
  Task    12 has      16430 integration points.
  Task    13 has      16483 integration points.
  Task    14 has      16499 integration points.
  Task    15 has      16508 integration points.
  Task    16 has      16418 integration points.
  Task    17 has      16428 integration points.
  Task    18 has      16499 integration points.
  Task    19 has      16528 integration points.
  Task    20 has      16507 integration points.
  Task    21 has      16498 integration points.
  Task    22 has      16483 integration points.
  Task    23 has      16501 integration points.
  Task    24 has      16504 integration points.
  Task    25 has      16486 integration points.
  Task    26 has      16435 integration points.
  Task    27 has      16501 integration points.
  Task    28 has      16535 integration points.
  Task    29 has      16506 integration points.
  Task    30 has      16494 integration points.
  Task    31 has      16479 integration points.
  Initializing partition tables, free-atom densities, potentials, etc. across the integration grid (initialize_grid_storage).
  | initialize_grid_storage: Actual outermost partition radius vs. multipole_radius_free
  | (-- VB: in principle, multipole_radius_free should be larger, hence this output)
  | Species        1: Confinement radius =              6.000000000000000 AA, multipole_radius_free =              6.071692442739658 AA.
  | Species        1: outer_partition_radius set to              6.071692442739658 AA .
  | Species        2: Confinement radius =              6.000000000000000 AA, multipole_radius_free =              6.029870734432609 AA.
  | Species        2: outer_partition_radius set to              6.029870734432609 AA .
  | Species        3: Confinement radius =              6.000000000000000 AA, multipole_radius_free =              6.058726835495003 AA.
  | Species        3: outer_partition_radius set to              6.058726835495003 AA .
  | Species        4: Confinement radius =              6.000000000000000 AA, multipole_radius_free =              6.064445521808699 AA.
  | Species        4: outer_partition_radius set to              6.064445521808699 AA .
  | Original list of interatomic distances with          32 x         32 entries is created.
  | Net number of integration points:   527728
  | of which are non-zero points    :   418107
  Obtaining max. number of non-zero basis functions in each batch (get_n_compute_maxes).
  | Maximal number of non-zero basis functions:      716 in task     0
  | Maximal number of non-zero basis functions:      715 in task     1
  | Maximal number of non-zero basis functions:      711 in task     2
  | Maximal number of non-zero basis functions:      732 in task     3
  | Maximal number of non-zero basis functions:      741 in task     4
  | Maximal number of non-zero basis functions:      727 in task     5
  | Maximal number of non-zero basis functions:      733 in task     6
  | Maximal number of non-zero basis functions:      731 in task     7
  | Maximal number of non-zero basis functions:      733 in task     8
  | Maximal number of non-zero basis functions:      709 in task     9
  | Maximal number of non-zero basis functions:      713 in task    10
  | Maximal number of non-zero basis functions:      741 in task    11
  | Maximal number of non-zero basis functions:      703 in task    12
  | Maximal number of non-zero basis functions:      731 in task    13
  | Maximal number of non-zero basis functions:      744 in task    14
  | Maximal number of non-zero basis functions:      712 in task    15
  | Maximal number of non-zero basis functions:      733 in task    16
  | Maximal number of non-zero basis functions:      727 in task    17
  | Maximal number of non-zero basis functions:      740 in task    18
  | Maximal number of non-zero basis functions:      738 in task    19
  | Maximal number of non-zero basis functions:      731 in task    20
  | Maximal number of non-zero basis functions:      734 in task    21
  | Maximal number of non-zero basis functions:      733 in task    22
  | Maximal number of non-zero basis functions:      736 in task    23
  | Maximal number of non-zero basis functions:      735 in task    24
  | Maximal number of non-zero basis functions:      728 in task    25
  | Maximal number of non-zero basis functions:      715 in task    26
  | Maximal number of non-zero basis functions:      739 in task    27
  | Maximal number of non-zero basis functions:      735 in task    28
  | Maximal number of non-zero basis functions:      738 in task    29
  | Maximal number of non-zero basis functions:      737 in task    30
  | Maximal number of non-zero basis functions:      722 in task    31
  Selecting the method for density update.
  Loop over occupied states selected for charge density update.
  Integrating Hamiltonian matrix: batch-based integration.
  Time summed over all CPUs for integration: real work       19.307 s, elapsed       20.148 s
  Integrating overlap matrix.
  Time summed over all CPUs for integration: real work       11.392 s, elapsed       11.841 s
  Deallocating overlap matrix.

  Updating Kohn-Sham eigenvalues, eigenvectors, occupation numbers, and Fermi level.
  Solving generalized eigenproblem
  Solving real symmetric generalised eigenvalue problem by standard ScaLAPACK.
  Transforming overlap matrix with ScaLAPACK and checking for singularities.
  : Overlap matrix is nonsingular, using Cholesky decomposition
  | Lowest eigenvalue:  0.834585E-04
  Factoring overlap matrix with Cholesky decomposition
  Using Cholesky factor for transformation
  Using 1-stage real ELPA solver
  Determining occupation numbers for Kohn-Sham eigenstates.
  | Chemical potential (Fermi level) in eV                 : -.96372521E+01
  | Error in electron count due to remaining E_F inaccuracy: 0.00000000E+00
  | Maximum occupation number of highest empty state:  0.00E+00

  Writing Kohn-Sham eigenvalues.

  State    Occupation    Eigenvalue [Ha]    Eigenvalue [eV]
      1       2.00000         -18.974288         -516.31664
      2       2.00000         -18.974197         -516.31418
      3       2.00000         -18.973520         -516.29574
      4       2.00000         -14.257244         -387.95935
      5       2.00000         -14.256869         -387.94914
      6       2.00000         -14.253973         -387.87034
      7       2.00000         -10.171022         -276.76759
      8       2.00000         -10.170914         -276.76465
      9       2.00000         -10.170114         -276.74287
     10       2.00000         -10.166829         -276.65349
     11       2.00000         -10.149365         -276.17828
     12       2.00000         -10.147523         -276.12815
     13       2.00000         -10.136235         -275.82099
     14       2.00000         -10.135531         -275.80184
     15       2.00000         -10.134429         -275.77184
     16       2.00000          -1.135902          -30.90948
     17       2.00000          -1.131950          -30.80194
     18       2.00000          -1.126813          -30.66215
     19       2.00000          -1.019571          -27.74393
     20       2.00000          -1.015157          -27.62383
     21       2.00000          -1.013022          -27.56574
     22       2.00000          -0.892875          -24.29637
     23       2.00000          -0.872244          -23.73495
     24       2.00000          -0.841057          -22.88632
     25       2.00000          -0.819770          -22.30709
     26       2.00000          -0.777716          -21.16273
     27       2.00000          -0.754701          -20.53646
     28       2.00000          -0.700111          -19.05099
     29       2.00000          -0.684825          -18.63502
     30       2.00000          -0.681537          -18.54557
     31       2.00000          -0.649415          -17.67148
     32       2.00000          -0.631178          -17.17523
     33       2.00000          -0.607628          -16.53439
     34       2.00000          -0.598214          -16.27824
     35       2.00000          -0.588544          -16.01508
     36       2.00000          -0.583665          -15.88233
     37       2.00000          -0.573674          -15.61046
     38       2.00000          -0.559963          -15.23737
     39       2.00000          -0.557448          -15.16894
     40       2.00000          -0.554743          -15.09533
     41       2.00000          -0.552713          -15.04010
     42       2.00000          -0.542145          -14.75253
     43       2.00000          -0.532337          -14.48562
     44       2.00000          -0.529880          -14.41877
     45       2.00000          -0.519806          -14.14464
     46       2.00000          -0.514837          -14.00942
     47       2.00000          -0.512166          -13.93675
     48       2.00000          -0.507569          -13.81164
     49       2.00000          -0.496739          -13.51696
     50       2.00000          -0.483970          -13.16950
     51       2.00000          -0.478043          -13.00821
     52       2.00000          -0.470388          -12.79990
     53       2.00000          -0.408362          -11.11208
     54       2.00000          -0.404488          -11.00667
     55       2.00000          -0.401511          -10.92566
     56       2.00000          -0.394481          -10.73438
     57       2.00000          -0.387417          -10.54216
     58       2.00000          -0.383667          -10.44012
     59       0.00000          -0.167588           -4.56029
     60       0.00000          -0.157798           -4.29390
     61       0.00000          -0.151781           -4.13016
     62       0.00000          -0.076146           -2.07203
     63       0.00000          -0.069400           -1.88847
     64       0.00000          -0.058866           -1.60182
     65       0.00000          -0.047721           -1.29855
     66       0.00000          -0.042532           -1.15735
     67       0.00000          -0.039425           -1.07280
     68       0.00000          -0.037908           -1.03154
     69       0.00000          -0.027130           -0.73824
     70       0.00000          -0.022887           -0.62279
     71       0.00000          -0.019712           -0.53639
     72       0.00000          -0.015536           -0.42275
     73       0.00000          -0.007312           -0.19897
     74       0.00000          -0.005884           -0.16011
     75       0.00000          -0.002723           -0.07408
     76       0.00000          -0.001533           -0.04171
     77       0.00000           0.001014            0.02760
     78       0.00000           0.004231            0.11513
     79       0.00000           0.007712            0.20984
     80       0.00000           0.011774            0.32039
     81       0.00000           0.017937            0.48808
     82       0.00000           0.021779            0.59264
     83       0.00000           0.027325            0.74355
     84       0.00000           0.037589            1.02285
     85       0.00000           0.044085            1.19963
     86       0.00000           0.045533            1.23902
     87       0.00000           0.053319            1.45088
     88       0.00000           0.053765            1.46302
     89       0.00000           0.058953            1.60418
     90       0.00000           0.063271            1.72168
     91       0.00000           0.069837            1.90036
     92       0.00000           0.078586            2.13843
     93       0.00000           0.081893            2.22843
     94       0.00000           0.088717            2.41411
     95       0.00000           0.095591            2.60116
     96       0.00000           0.098809            2.68872
     97       0.00000           0.102052            2.77699
     98       0.00000           0.112444            3.05977
     99       0.00000           0.116403            3.16748
    100       0.00000           0.120229            3.27159
    101       0.00000           0.132938            3.61742
    102       0.00000           0.135572            3.68910
    103       0.00000           0.137735            3.74795
    104       0.00000           0.141360            3.84659
    105       0.00000           0.147488            4.01335
    106       0.00000           0.149151            4.05860
    107       0.00000           0.151454            4.12127
    108       0.00000           0.161614            4.39774
    109       0.00000           0.164529            4.47706
    110       0.00000           0.169855            4.62199
    111       0.00000           0.172338            4.68955
    112       0.00000           0.175046            4.76324
    113       0.00000           0.181324            4.93406
    114       0.00000           0.183526            4.99401
    115       0.00000           0.190046            5.17140
    116       0.00000           0.198022            5.38844
    117       0.00000           0.203058            5.52548
    118       0.00000           0.205483            5.59148
    119       0.00000           0.205539            5.59300
    120       0.00000           0.209636            5.70449
    121       0.00000           0.216588            5.89366
    122       0.00000           0.224248            6.10209
    123       0.00000           0.230509            6.27246
    124       0.00000           0.234916            6.39238
    125       0.00000           0.237191            6.45428
    126       0.00000           0.242076            6.58722
    127       0.00000           0.255775            6.95998
    128       0.00000           0.259351            7.05730
    129       0.00000           0.266607            7.25476

  Highest occupied state (VBM) at    -10.44011574 eV
  | Occupation number:      2.00000000

  Lowest unoccupied state (CBM) at    -4.56028898 eV
  | Occupation number:      0.00000000

  Overall HOMO-LUMO gap:      5.87982676 eV.
  Calculating total energy contributions from superposition of free atom densities.

  Total energy components:
  | Sum of eigenvalues            :        -437.92859132 Ha      -11916.64328185 eV
  | XC energy correction          :         -98.81642177 Ha       -2688.93164767 eV
  | XC potential correction       :         127.01512392 Ha        3456.25737426 eV
  | Free-atom electrostatic energy:        -333.57187061 Ha       -9076.95242962 eV
  | Hartree energy correction     :           0.00000000 Ha           0.00000000 eV
  | vdW energy correction         :           0.00000000 Ha           0.00000000 eV
  | Entropy correction            :          -0.00000000 Ha          -0.00000000 eV
  | ---------------------------
  | Total energy                  :        -743.30175978 Ha      -20226.26998489 eV
  | Total energy, T -> 0          :        -743.30175978 Ha      -20226.26998489 eV  <-- do not rely on this value for anything but (periodic) metals
  | Electronic free energy        :        -743.30175978 Ha      -20226.26998489 eV

  Derived energy quantities:
  | Kinetic energy                :         735.15040630 Ha       20004.46037118 eV
  | Electrostatic energy          :       -1379.63574431 Ha      -37541.79870840 eV
  | Energy correction for multipole
  | error in Hartree potential    :           0.00000000 Ha           0.00000000 eV
  | Sum of eigenvalues per atom                           :        -372.39510256 eV
  | Total energy (T->0) per atom                          :        -632.07093703 eV  <-- do not rely on this value for anything but (periodic) metals
  | Electronic free energy per atom                       :        -632.07093703 eV
  Initialize hartree_potential_storage
  Max. number of atoms included in rho_multipole:           32

  End scf initialization - timings             :  max(cpu_time)    wall_clock(cpu1)
  | Time for scf. initialization               :        1.760 s           1.759 s
  | Boundary condition initialization          :        0.000 s           0.000 s
  | Integration                                :        1.024 s           1.020 s
  | Solution of K.-S. eqns.                    :        0.076 s           0.074 s
  | Grid partitioning                          :        0.352 s           0.343 s
  | Preloading free-atom quantities on grid    :        0.028 s           0.027 s
  | Free-atom superposition energy             :        0.040 s           0.037 s
  | Total energy evaluation                    :        0.000 s           0.000 s
------------------------------------------------------------

------------------------------------------------------------
          Begin self-consistency iteration #    1

  Date     :  20170309, Time     :  180458.432
------------------------------------------------------------
  Evaluating new KS density.
  Integration grid: deviation in total charge (<rho> - N_e) =   0.000000E+00
  Pulay mixing of updated and previous charge densities.

  Evaluating partitioned Hartree potential by multipole expansion.
  | Analytical far-field extrapolation by fixed multipoles:
  | Hartree multipole sum: apparent total charge =  -0.138378E-04
  Summing up the Hartree potential.
  Time summed over all CPUs for potential: real work        9.445 s, elapsed        9.679 s
  | RMS charge density error from multipole expansion :   0.106009E-01

  Integrating Hamiltonian matrix: batch-based integration.
  Time summed over all CPUs for integration: real work       19.086 s, elapsed       19.943 s

  Updating Kohn-Sham eigenvalues, eigenvectors, occupation numbers, and Fermi level.
  Solving generalized eigenproblem
  Solving real symmetric generalised eigenvalue problem by standard ScaLAPACK.
  Using Cholesky factor for transformation
  Using 2-stage real ELPA solver
  K-Point:    1, Trafo times: 1-stage=     0.021 s, 2-stage=     0.019 s ==> Using 2-stage solver
  Determining occupation numbers for Kohn-Sham eigenstates.
  | Chemical potential (Fermi level) in eV                 : -.18382174E+01
  | Error in electron count due to remaining E_F inaccuracy: 0.00000000E+00
  | Maximum occupation number of highest empty state:  0.00E+00

  Writing Kohn-Sham eigenvalues.

  State    Occupation    Eigenvalue [Ha]    Eigenvalue [eV]
      1       2.00000         -18.620716         -506.69546
      2       2.00000         -18.607854         -506.34546
      3       2.00000         -18.602882         -506.21019
      4       2.00000         -13.986640         -380.59583
      5       2.00000         -13.978487         -380.37397
      6       2.00000         -13.969896         -380.14020
      7       2.00000         -10.047939         -273.41832
      8       2.00000         -10.039741         -273.19525
      9       2.00000         -10.038352         -273.15745
     10       2.00000          -9.953149         -270.83897
     11       2.00000          -9.949009         -270.72632
     12       2.00000          -9.880895         -268.87283
     13       2.00000          -9.841764         -267.80802
     14       2.00000          -9.827822         -267.42863
     15       2.00000          -9.827629         -267.42340
     16       2.00000          -0.961876          -26.17397
     17       2.00000          -0.952751          -25.92567
     18       2.00000          -0.939965          -25.57774
     19       2.00000          -0.860192          -23.40702
     20       2.00000          -0.854139          -23.24231
     21       2.00000          -0.850726          -23.14942
     22       2.00000          -0.739126          -20.11265
     23       2.00000          -0.713676          -19.42012
     24       2.00000          -0.678310          -18.45774
     25       2.00000          -0.665566          -18.11099
     26       2.00000          -0.622500          -16.93909
     27       2.00000          -0.605659          -16.48082
     28       2.00000          -0.563879          -15.34393
     29       2.00000          -0.547946          -14.91036
     30       2.00000          -0.540226          -14.70031
     31       2.00000          -0.509465          -13.86326
     32       2.00000          -0.489440          -13.31833
     33       2.00000          -0.458163          -12.46725
     34       2.00000          -0.450119          -12.24837
     35       2.00000          -0.431883          -11.75213
     36       2.00000          -0.430326          -11.70978
     37       2.00000          -0.423370          -11.52049
     38       2.00000          -0.414085          -11.26783
     39       2.00000          -0.405167          -11.02516
     40       2.00000          -0.395137          -10.75223
     41       2.00000          -0.391607          -10.65616
     42       2.00000          -0.382821          -10.41710
     43       2.00000          -0.371971          -10.12185
     44       2.00000          -0.366440           -9.97134
     45       2.00000          -0.365873           -9.95591
     46       2.00000          -0.359295           -9.77692
     47       2.00000          -0.355488           -9.67332
     48       2.00000          -0.346200           -9.42059
     49       2.00000          -0.343899           -9.35798
     50       2.00000          -0.340900           -9.27635
     51       2.00000          -0.326586           -8.88685
     52       2.00000          -0.315199           -8.57700
     53       2.00000          -0.233031           -6.34109
     54       2.00000          -0.230055           -6.26011
     55       2.00000          -0.222060           -6.04257
     56       2.00000          -0.216517           -5.89172
     57       2.00000          -0.201748           -5.48984
     58       2.00000          -0.197539           -5.37532
     59       0.00000          -0.045429           -1.23619
     60       0.00000          -0.036593           -0.99574
     61       0.00000          -0.033586           -0.91391
     62       0.00000          -0.028387           -0.77245
     63       0.00000          -0.018752           -0.51027
     64       0.00000          -0.004443           -0.12090
     65       0.00000          -0.000377           -0.01026
     66       0.00000           0.005738            0.15613
     67       0.00000           0.009071            0.24684
     68       0.00000           0.020011            0.54452
     69       0.00000           0.029207            0.79477
     70       0.00000           0.034144            0.92910
     71       0.00000           0.037059            1.00843
     72       0.00000           0.045235            1.23090
     73       0.00000           0.048194            1.31144
     74       0.00000           0.051413            1.39902
     75       0.00000           0.054569            1.48489
     76       0.00000           0.058282            1.58594
     77       0.00000           0.065718            1.78827
     78       0.00000           0.072616            1.97598
     79       0.00000           0.080733            2.19686
     80       0.00000           0.085824            2.33538
     81       0.00000           0.096837            2.63506
     82       0.00000           0.099245            2.70061
     83       0.00000           0.106260            2.89147
     84       0.00000           0.107214            2.91745
     85       0.00000           0.112542            3.06243
     86       0.00000           0.116066            3.15832
     87       0.00000           0.119044            3.23936
     88       0.00000           0.122898            3.34423
     89       0.00000           0.125873            3.42517
     90       0.00000           0.134255            3.65327
     91       0.00000           0.146671            3.99112
     92       0.00000           0.147524            4.01433
     93       0.00000           0.151446            4.12107
     94       0.00000           0.160615            4.37056
     95       0.00000           0.166180            4.52199
     96       0.00000           0.173679            4.72605
     97       0.00000           0.177304            4.82469
     98       0.00000           0.182279            4.96005
     99       0.00000           0.194545            5.29384
    100       0.00000           0.196031            5.33428
    101       0.00000           0.199660            5.43302
    102       0.00000           0.201119            5.47272
    103       0.00000           0.212822            5.79117
    104       0.00000           0.213604            5.81246
    105       0.00000           0.216420            5.88909
    106       0.00000           0.222130            6.04446
    107       0.00000           0.229068            6.23327
    108       0.00000           0.231231            6.29212
    109       0.00000           0.232097            6.31567
    110       0.00000           0.236679            6.44035
    111       0.00000           0.237279            6.45669
    112       0.00000           0.240152            6.53487
    113       0.00000           0.245439            6.67873
    114       0.00000           0.251324            6.83888
    115       0.00000           0.255193            6.94415
    116       0.00000           0.261575            7.11783
    117       0.00000           0.266158            7.24252
    118       0.00000           0.269112            7.32291
    119       0.00000           0.275382            7.49352
    120       0.00000           0.280894            7.64352
    121       0.00000           0.290562            7.90659
    122       0.00000           0.294711            8.01950
    123       0.00000           0.304240            8.27879
    124       0.00000           0.313221            8.52317
    125       0.00000           0.315675            8.58995
    126       0.00000           0.325848            8.86679
    127       0.00000           0.328490            8.93866
    128       0.00000           0.335370            9.12589
    129       0.00000           0.340131            9.25544

  Highest occupied state (VBM) at     -5.37531912 eV
  | Occupation number:      2.00000000

  Lowest unoccupied state (CBM) at    -1.23618533 eV
  | Occupation number:      0.00000000

  Overall HOMO-LUMO gap:      4.13913378 eV.

  Total energy components:
  | Sum of eigenvalues            :        -416.48739309 Ha      -11333.19859279 eV
  | XC energy correction          :        -100.76277439 Ha       -2741.89459733 eV
  | XC potential correction       :         129.54045466 Ha        3524.97512012 eV
  | Free-atom electrostatic energy:        -333.57187061 Ha       -9076.95242962 eV
  | Hartree energy correction     :         -21.44314953 Ha        -583.49778666 eV
  | vdW energy correction         :           0.00000000 Ha           0.00000000 eV
  | Entropy correction            :          -0.00000000 Ha          -0.00000000 eV
  | ---------------------------
  | Total energy                  :        -742.72473296 Ha      -20210.56828627 eV
  | Total energy, T -> 0          :        -742.72473296 Ha      -20210.56828627 eV  <-- do not rely on this value for anything but (periodic) metals
  | Electronic free energy        :        -742.72473296 Ha      -20210.56828627 eV

  Derived energy quantities:
  | Kinetic energy                :         744.08821345 Ha       20247.67047811 eV
  | Electrostatic energy          :       -1386.05017202 Ha      -37716.34416706 eV
  | Energy correction for multipole
  | error in Hartree potential    :          -0.04098896 Ha          -1.11536648 eV
  | Sum of eigenvalues per atom                           :        -354.16245602 eV
  | Total energy (T->0) per atom                          :        -631.58025895 eV  <-- do not rely on this value for anything but (periodic) metals
  | Electronic free energy per atom                       :        -631.58025895 eV

  Self-consistency convergence accuracy:
  | Change of charge density      :  0.9026E+00
  | Change of sum of eigenvalues  :  0.5834E+03 eV
  | Change of total energy        :  0.1570E+02 eV

  End self-consistency iteration #     1       :  max(cpu_time)    wall_clock(cpu1)
  | Time for this iteration                    :        1.432 s           1.430 s
  | Charge density update                      :        0.452 s           0.450 s
[...]
   ----------------------------------------------------------------
   Total forces(  20)            :  0.273702E-02 -0.278036E-02  0.149696E-02
  atom #   21
   Hellmann-Feynman              : -0.337106E-01  0.515190E-01 -0.106258E-01
   Ionic forces                  :  0.000000E+00  0.000000E+00  0.000000E+00
   Multipole                     : -0.769878E-02 -0.337131E-01 -0.161209E-01
   Pulay + GGA                   :  0.419196E-01 -0.232246E-01  0.327126E-01
   Van der Waals                 : -0.202377E-02  0.468727E-02 -0.475432E-02
   ----------------------------------------------------------------
   Total forces(  21)            : -0.151354E-02 -0.731389E-03  0.121162E-02
  atom #   22
   Hellmann-Feynman              :  0.131588E-01 -0.863806E-01  0.138892E-01
   Ionic forces                  :  0.000000E+00  0.000000E+00  0.000000E+00
   Multipole                     : -0.180511E-01  0.171166E-01  0.145840E-01
   Pulay + GGA                   : -0.417456E-02  0.707090E-01 -0.238473E-01
   Van der Waals                 :  0.940833E-02 -0.116905E-02 -0.557776E-02
   ----------------------------------------------------------------
   Total forces(  22)            :  0.341496E-03  0.276018E-03 -0.951851E-03
  atom #   23
   Hellmann-Feynman              : -0.915255E+00 -0.348153E+00  0.227673E+00
   Ionic forces                  :  0.000000E+00  0.000000E+00  0.000000E+00
   Multipole                     :  0.275388E+00  0.424914E-01 -0.146647E+00
   Pulay + GGA                   :  0.649144E+00  0.307066E+00 -0.831477E-01
   Van der Waals                 : -0.114119E-01 -0.155079E-02  0.280827E-02
   ----------------------------------------------------------------
   Total forces(  23)            : -0.213432E-02 -0.146772E-03  0.687214E-03
  atom #   24
   Hellmann-Feynman              :  0.353772E-01 -0.290049E-01 -0.127345E-01
   Ionic forces                  :  0.000000E+00  0.000000E+00  0.000000E+00
   Multipole                     : -0.666951E-02 -0.278747E-01  0.725329E-02
   Pulay + GGA                   : -0.226194E-01  0.616193E-01  0.485576E-02
   Van der Waals                 : -0.614337E-02 -0.394305E-02  0.105830E-02
   ----------------------------------------------------------------
   Total forces(  24)            : -0.550422E-04  0.796660E-03  0.432826E-03
  atom #   25
   Hellmann-Feynman              :  0.321066E-01  0.176960E-01 -0.378766E-01
   Ionic forces                  :  0.000000E+00  0.000000E+00  0.000000E+00
   Multipole                     : -0.227937E-01  0.120059E-01 -0.148446E-01
   Pulay + GGA                   : -0.104024E-01 -0.304111E-01  0.547563E-01
   Van der Waals                 :  0.155183E-02  0.616992E-03 -0.131335E-02
   ----------------------------------------------------------------
   Total forces(  25)            :  0.462389E-03 -0.921817E-04  0.721702E-03
  atom #   26
   Hellmann-Feynman              :  0.723542E-01  0.194800E-01 -0.187573E-01
   Ionic forces                  :  0.000000E+00  0.000000E+00  0.000000E+00
   Multipole                     : -0.164813E-01  0.842333E-02  0.333594E-01
   Pulay + GGA                   : -0.489433E-01 -0.295338E-01 -0.222317E-01
   Van der Waals                 : -0.716866E-02  0.175109E-02  0.717547E-02
   ----------------------------------------------------------------
   Total forces(  26)            : -0.239095E-03  0.120610E-03 -0.454154E-03
  atom #   27
   Hellmann-Feynman              : -0.422712E+00 -0.871076E+00 -0.537233E+00
   Ionic forces                  :  0.000000E+00  0.000000E+00  0.000000E+00
   Multipole                     :  0.456641E-01 -0.242595E+00  0.644882E-01
   Pulay + GGA                   :  0.370500E+00  0.111796E+01  0.472684E+00
   Van der Waals                 :  0.621140E-02 -0.317342E-02 -0.312854E-03
   ----------------------------------------------------------------
   Total forces(  27)            : -0.336303E-03  0.111095E-02 -0.373956E-03
  atom #   28
   Hellmann-Feynman              :  0.127698E+01  0.114482E+01  0.169780E+01
   Ionic forces                  :  0.000000E+00  0.000000E+00  0.000000E+00
   Multipole                     : -0.812655E-01 -0.101459E+00 -0.126909E+00
   Pulay + GGA                   : -0.118844E+01 -0.103825E+01 -0.156259E+01
   Van der Waals                 : -0.625409E-02 -0.283909E-02 -0.602152E-02
   ----------------------------------------------------------------
   Total forces(  28)            :  0.102905E-02  0.227043E-02  0.227330E-02
  atom #   29
   Hellmann-Feynman              :  0.225294E-01 -0.294097E-01  0.120654E-01
   Ionic forces                  :  0.000000E+00  0.000000E+00  0.000000E+00
   Multipole                     :  0.205120E-01  0.140072E-01  0.321514E-01
   Pulay + GGA                   : -0.449127E-01  0.197501E-01 -0.436673E-01
   Van der Waals                 : -0.831321E-03 -0.436560E-02 -0.131137E-02
   ----------------------------------------------------------------
   Total forces(  29)            : -0.270255E-02 -0.179003E-04 -0.761868E-03
  atom #   30
   Hellmann-Feynman              :  0.258087E-02 -0.395121E-01 -0.329736E-01
   Ionic forces                  :  0.000000E+00  0.000000E+00  0.000000E+00
   Multipole                     :  0.335239E-01  0.377130E-02 -0.935391E-02
   Pulay + GGA                   : -0.376275E-01  0.400171E-01  0.410834E-01
   Van der Waals                 :  0.712372E-03 -0.405836E-02  0.131285E-02
   ----------------------------------------------------------------
   Total forces(  30)            : -0.810426E-03  0.217946E-03  0.688158E-04
  atom #   31
   Hellmann-Feynman              : -0.210454E-01 -0.479273E-01 -0.101156E-01
   Ionic forces                  :  0.000000E+00  0.000000E+00  0.000000E+00
   Multipole                     : -0.130680E-01 -0.569061E-02  0.315480E-01
   Pulay + GGA                   :  0.322542E-01  0.565973E-01 -0.221781E-01
   Van der Waals                 :  0.260654E-02 -0.319824E-02  0.756084E-03
   ----------------------------------------------------------------
   Total forces(  31)            :  0.747314E-03 -0.218758E-03  0.103898E-04
  atom #   32
   Hellmann-Feynman              : -0.343081E-01 -0.375453E-01 -0.517119E-01
   Ionic forces                  :  0.000000E+00  0.000000E+00  0.000000E+00
   Multipole                     : -0.461521E-02  0.502537E-01  0.883287E-02
   Pulay + GGA                   :  0.401939E-01 -0.151508E-01  0.448895E-01
   Van der Waals                 : -0.147364E-02  0.133118E-02 -0.119065E-02
   ----------------------------------------------------------------
   Total forces(  32)            : -0.203092E-03 -0.111121E-02  0.819814E-03

  Timings for VdW correction (Tkatchenko-Scheffler 2009 or later):
  | CPU time:        0.116 s, Wall clock time:        0.115 s.
  Removing unitary transformations (pure translations, rotations) from forces on atoms.
  Atomic forces before filtering:
  | Net force on center of mass :  -0.121374E-03  0.357517E-04 -0.628515E-03 eV/A
  | Net torque on center of mass:   0.100077E-02 -0.290929E-02 -0.156999E-02 eV
  Atomic forces after filtering:
  | Net force on center of mass :  -0.130669E-18 -0.348449E-18  0.522674E-18 eV/A
  | Net torque on center of mass:   0.737566E-18  0.396442E-17 -0.350344E-17 eV

  Energy and forces in a compact form:
  | Total energy uncorrected      :         -0.202088377441289E+05 eV
  | Total energy corrected        :         -0.202088377441289E+05 eV  <-- do not rely on this value for anything but (periodic) metals
  | Electronic free energy        :         -0.202088377441289E+05 eV
  Total atomic forces (unitary forces cleaned) [eV/Ang]:
  |   1          0.247092155614944E-03         -0.734796078768594E-04         -0.722276193580105E-03
  |   2         -0.197789585974505E-03         -0.123066061725847E-03         -0.294438359614970E-02
  |   3          0.197988723026341E-02          0.284777473336559E-02          0.266010401812402E-02
  |   4          0.867676235250583E-03         -0.423148287499346E-03         -0.258805687460988E-04
  |   5          0.351759933660415E-03         -0.181637664093315E-04          0.551747059764297E-04
  |   6         -0.232727547970029E-03         -0.845772034283795E-03          0.217919937521312E-03
  |   7          0.267412396330143E-03         -0.214364596725773E-02          0.158554534636738E-03
  |   8         -0.127427738570643E-02          0.704574908464250E-03         -0.586881073884009E-03
  |   9          0.912218057076446E-03          0.614066345352796E-03          0.261669414059967E-02
  |  10         -0.312099062308506E-02          0.100339534885109E-02         -0.324823262002168E-02
  |  11         -0.988791203455315E-03         -0.111711374490951E-02         -0.137360302609113E-02
  |  12         -0.510778578819623E-03         -0.124773064178061E-02          0.312647227678634E-03
  |  13          0.132740678276304E-02          0.529501536777676E-03          0.190221988039517E-02
  |  14          0.676066818309240E-03          0.132552513684614E-02         -0.123837484142947E-02
  |  15         -0.787843249680799E-04         -0.418566291691121E-03         -0.107114763310471E-03
  |  16          0.243523681612770E-03          0.647936672760502E-03          0.621854673152430E-03
  |  17          0.126270202794018E-02         -0.802269796727775E-04         -0.183076950219136E-02
  |  18          0.155908779518310E-02         -0.796451088895538E-03          0.256512476118010E-03
  |  19         -0.734531256507062E-03         -0.434857908672070E-04         -0.222041734657468E-02
  |  20          0.277645834293789E-02         -0.275272646050872E-02          0.150238844085611E-02
  |  21         -0.147512766432132E-02         -0.719396614812855E-03          0.123403484576396E-02
  |  22          0.321234788587799E-03          0.250922783372775E-03         -0.917494382801853E-03
  |  23         -0.211180084878450E-02         -0.182392424501063E-03          0.754912150695997E-03
  |  24         -0.445513184004703E-04          0.753754383251359E-03          0.502615533743507E-03
  |  25          0.512773573836622E-03         -0.119067522061711E-03          0.793664666340239E-03
  |  26         -0.221482333301816E-03          0.687204198482740E-04         -0.370720300791478E-03
  |  27         -0.342339188947400E-03          0.111563951653942E-02         -0.365767046751088E-03
  |  28          0.102674338697672E-02          0.229496253134460E-02          0.226115745458604E-02
  |  29         -0.272869923912809E-02         -0.298246493203221E-04         -0.745219362131832E-03
  |  30         -0.808398878842585E-03          0.235916670229672E-03          0.662028140225531E-04
  |  31          0.722121969116625E-03         -0.188300783403337E-03         -0.199161313291987E-04
  |  32         -0.183095197247647E-03         -0.107013226952646E-02          0.800393255573326E-03

  ------------------------------------ 
  Start decomposition of the XC Energy 
  ------------------------------------ 
  Hartree-Fock part   :          0.000000000 Ha              0.000000000 eV
  ------------------------------------ 
  X Energy            :        -96.991609964 Ha          -2639.275992017 eV
  C Energy GGA        :         -3.868187111 Ha           -105.258726783 eV
  Total XC Energy     :       -100.859797075 Ha          -2744.534718800 eV
  LDA X and C from self-consistent density 
  X Energy LDA        :        -88.007013496 Ha          -2394.792682923 eV
  C Energy LDA        :         -7.531846269 Ha           -204.951964822 eV
  ------------------------------------ 
  End decomposition of the XC Energy 
  ------------------------------------ 
   
  ESP charge fitting starts.
  | Calculation :  00000001  of  00000001
  | Full density
  Computing multipole expansion for total density.
  Generating points for esp charges.
  Partitioning the integration grid into batches with parallel hashing+maxmin method.
  | Number of batches:     3864
  | Maximal batch size:     198
  | Minimal batch size:      53
  | Average batch size:     126.413
  | Standard deviation of batch sizes:      17.151

  Integration load balanced across    32 MPI tasks.
  Work distribution over tasks is as follows:
  Initializing partition tables, free-atom densities, potentials, etc. across the integration grid (initialize_grid_storage).
  | Original list of interatomic distances with          32 x         32 entries is created.
  | Net number of integration points:   488458
  | of which are non-zero points    :   488458
  Summing up potential from multipole expanded  density.
  Summing up the Hartree potential.
  Time summed over all CPUs for potential: real work        6.246 s, elapsed        6.481 s
  Fitting esp charges to potential.
  |
  | ESP charges fitted to the electrostatic potential :
  |
  | Atom         1: C, ESP charge:      0.85858340
  |
  | Atom         2: C, ESP charge:     -0.85806052
  |
  | Atom         3: O, ESP charge:      0.58124548
  |
  | Atom         4: H, ESP charge:     -0.23575502
  |
  | Atom         5: H, ESP charge:     -0.23959800
  |
  | Atom         6: H, ESP charge:     -0.21008077
  |
  | Atom         7: N, ESP charge:      0.62460353
  |
  | Atom         8: C, ESP charge:     -0.27778384
  |
  | Atom         9: C, ESP charge:     -0.08508441
  |
  | Atom        10: O, ESP charge:      0.44108506
  |
  | Atom        11: H, ESP charge:     -0.31945572
  |
  | Atom        12: H, ESP charge:     -0.13391907
  |
  | Atom        13: C, ESP charge:      0.72715012
  |
  | Atom        14: H, ESP charge:     -0.26796310
  |
  | Atom        15: H, ESP charge:     -0.18895282
  |
  | Atom        16: H, ESP charge:     -0.18296940
  |
  | Atom        17: N, ESP charge:      0.07487377
  |
  | Atom        18: C, ESP charge:     -0.09198402
  |
  | Atom        19: C, ESP charge:     -0.49050644
  |
  | Atom        20: O, ESP charge:      0.48351559
  |
  | Atom        21: H, ESP charge:     -0.12945237
  |
  | Atom        22: H, ESP charge:     -0.08068987
  |
  | Atom        23: C, ESP charge:      0.49217855
  |
  | Atom        24: H, ESP charge:     -0.10804975
  |
  | Atom        25: H, ESP charge:     -0.13116180
  |
  | Atom        26: H, ESP charge:     -0.17561452
  |
  | Atom        27: N, ESP charge:      0.27852262
  |
  | Atom        28: C, ESP charge:      0.25855206
  |
  | Atom        29: H, ESP charge:     -0.26161750
  |
  | Atom        30: H, ESP charge:     -0.10633167
  |
  | Atom        31: H, ESP charge:     -0.10873820
  |
  | Atom        32: H, ESP charge:     -0.13654137

  RRMS:       0.01080825

  Done.

------------------------------------------------------------------------------
  Final output of selected total energy values:

  The following output summarizes some interesting total energy values
  at the end of a run (AFTER all relaxation, molecular dynamics, etc.).

  | Total energy of the DFT / Hartree-Fock s.c.f. calculation      :         -20208.837744129 eV
  | Final zero-broadening corrected energy (caution - metals only) :         -20208.837744129 eV
  | For reference only, the value of 1 Hartree used in FHI-aims is :             27.211384500 eV

  Before relying on these values, please be sure to understand exactly which
  total energy value is referred to by a given number. Different objects may
  all carry the same name 'total energy'. Definitions:

  Total energy of the DFT / Hartree-Fock s.c.f. calculation:
  | Note that this energy does not include ANY quantities calculated after the
  | s.c.f. cycle, in particular not ANY RPA, MP2, etc. many-body perturbation terms.

  Final zero-broadening corrected energy:
  | For metallic systems only, a broadening of the occupation numbers at the Fermi
  | level can be extrapolated back to zero broadening by an electron-gas inspired
  | formula. For all systems that are not real metals, this value can be
  | meaningless and should be avoided.

------------------------------------------------------------------------------
  Methods described in the following list of references were used in this FHI-aims run.
  If you publish the results, please make sure to cite these reference if they apply.
  FHI-aims is an academic code, and for our developers (often, Ph.D. students
  and postdocs), scientific credit in the community is essential.
  Thank you for helping us!

  For any use of FHI-aims, please cite:

    Volker Blum, Ralf Gehrke, Felix Hanke, Paula Havu, Ville Havu,
    Xinguo Ren, Karsten Reuter, and Matthias Scheffler
    'Ab initio molecular simulations with numeric atom-centered orbitals'
    Computer Physics Communications 180, 2175-2196 (2009)
    http://dx.doi.org/10.1016/j.cpc.2009.06.022


  The scalable eigensolver library ELPA was used in your run.
  ELPA is essential especially for large systems on hundreds or thousands of CPUs.
  For ELPA, please cite:

    Andreas Marek, Volker Blum, Rainer Johanni, Ville Havu, Bruno Lang,
    Thomas Auckenthaler, Alexander Heinecke, Hans-Joachim Bungartz, and Hermann Lederer,
    'The ELPA Library - Scalable Parallel Eigenvalue Solutions
    for Electronic Structure Theory and Computational Science'
    The Journal of Physics: Condensed Matter 26, 213201 (2014).
    http://dx.doi.org/10.1088/0953-8984/26/21/213201


  For ELPA's efficient two-stage tridiagonalization used in your run, please cite:

    T. Auckenthaler, V. Blum, H.-J. Bungartz, T. Huckle, R. Johanni, L. Kraemer,
    B. Lang, H. Lederer, and P. R. Willems,
    'Parallel solution of partial symmetric eigenvalue problems'
    'from  electronic structure calculations'
    Parallel Computing 37, 783-794 (2011).
    http://dx.doi.org/10.1016/j.parco.2011.05.002


  For the real-space grid partitioning and parallelization used in this calculation, please cite:

    Ville Havu, Volker Blum, Paula Havu, and Matthias Scheffler,
    'Efficient O(N) integration for all-electron electronic structure calculation'
    'using numerically tabulated basis functions'
    Journal of Computational Physics 228, 8367-8379 (2009).
    http://dx.doi.org/10.1016/j.jcp.2009.08.008

  Of course, there are many other important community references, e.g., those cited in the
  above references. Our list is limited to references that describe implementations in the
  FHI-aims code. The reason is purely practical (length of this list) - please credit others as well.

------------------------------------------------------------
          Leaving FHI-aims.
          Date     :  20170309, Time     :  180521.256

          Computational steps:
          | Number of self-consistency cycles          :           13

          Detailed time accounting                     :  max(cpu_time)    wall_clock(cpu1)
          | Total time                                 :       25.494 s          25.623 s
          | Preparation time                           :        0.240 s           0.237 s
          | Grid partitioning                          :        0.352 s           0.343 s
          | Preloading free-atom quantities on grid    :        0.028 s           0.027 s
          | Free-atom superposition energy             :        0.040 s           0.037 s
          | Total time for integrations                :        9.381 s           9.363 s
          | Total time for solution of K.-S. equations :        0.496 s           0.465 s
          | Total time for density & force components  :        7.308 s           7.287 s
          | Total time for mixing                      :        0.112 s           0.098 s
          | Total time for Hartree multipole update    :        0.060 s           0.054 s
          | Total time for Hartree multipole sum       :        5.400 s           5.400 s
          | Total time for total energy evaluation     :        0.016 s           0.016 s
          | Total time for vdW correction              :        0.116 s           0.115 s

          Have a nice day.
------------------------------------------------------------
