  MPI-parallelism will be employed.
------------------------------------------------------------
          Invoking FHI-aims ...
          Version 150427
          Git rev.: 9dd23e0 BL: Update Version stamp
          Compiled on 2015/11/03 at 22:05:20 on host eos03.

          When using FHI-aims, please cite the following reference:

          Volker Blum, Ralf Gehrke, Felix Hanke, Paula Havu,
          Ville Havu, Xinguo Ren, Karsten Reuter, and Matthias Scheffler,
          'Ab Initio Molecular Simulations with Numeric Atom-Centered Orbitals: FHI-aims',
          Computer Physics Communications 180, 2175-2196 (2009)

          For any questions about FHI-aims, please visit the aimsclub website
          with its forums and wiki. Contributions to both the forums and the
          wiki are warmly encouraged - they are for you, and everyone is welcome there.

------------------------------------------------------------

  Date     :  20170309, Time     :  181725.306
  Time zero on CPU 1             :   0.328020000000000E+00  s.
  Internal wall clock time zero  :           258315445.306  s.

  Using       32 parallel tasks.
  Task        0 on host eos399 reporting.
  Task        1 on host eos399 reporting.
  Task        2 on host eos399 reporting.
  Task        3 on host eos399 reporting.
  Task        4 on host eos399 reporting.
  Task        5 on host eos399 reporting.
  Task        6 on host eos399 reporting.
  Task        7 on host eos399 reporting.
  Task        8 on host eos399 reporting.
  Task        9 on host eos399 reporting.
  Task       10 on host eos399 reporting.
  Task       11 on host eos399 reporting.
  Task       12 on host eos399 reporting.
  Task       13 on host eos399 reporting.
  Task       14 on host eos399 reporting.
  Task       15 on host eos399 reporting.
  Task       16 on host eos399 reporting.
  Task       17 on host eos399 reporting.
  Task       18 on host eos399 reporting.
  Task       19 on host eos399 reporting.
  Task       20 on host eos399 reporting.
  Task       21 on host eos399 reporting.
  Task       22 on host eos399 reporting.
  Task       23 on host eos399 reporting.
  Task       24 on host eos399 reporting.
  Task       25 on host eos399 reporting.
  Task       26 on host eos399 reporting.
  Task       27 on host eos399 reporting.
  Task       28 on host eos399 reporting.
  Task       29 on host eos399 reporting.
  Task       30 on host eos399 reporting.
  Task       31 on host eos399 reporting.

  Performing system and environment tests:
  | Environment variable OMP_NUM_THREADS correctly set to 1.
  | Stacksize not measured: no C compiler
  | Checking for scalapack...
  | Testing pdtran()...
  | All pdtran() tests passed.

  Obtaining array dimensions for all initial allocations:
  
  -----------------------------------------------------------------------
  Parsing control.in (first pass over file, find array dimensions only).
  The contents of control.in will be repeated verbatim below
  unless switched off by setting 'verbatim_writeout .false.' .
  in the first line of control.in .
  -----------------------------------------------------------------------
  
  #########################################################################################
  #
  # Input for System
  #
  #########################################################################################
  #
  #
  #  Physical model
  #
    xc                 pbe
    vdw_correction_hirshfeld
    spin               none
    charge             0.
  #
  #  SCF convergence
  #
    occupation_type    gaussian 0.05
    mixer              pulay
      n_max_pulay        10
      charge_mix_param   0.5
    sc_accuracy_rho    1E-4
    sc_accuracy_eev    1E-2
    sc_accuracy_etot   1E-5
    sc_accuracy_forces 1E-4
    sc_iter_limit      1000
  #
  #  ESP charge
  #
    output esp
    esp equal_grid_n 80 80 80
  #
  #
  ################################################################################
  #
  #  FHI-aims code project
  # Volker Blum, Fritz Haber Institute Berlin, 2009
  #
  #  Suggested "tight" defaults for H atom (to be pasted into control.in file)
  #
  ################################################################################
    species        H
  #     global species definitions
      nucleus             1
      mass                1.00794
  #
      l_hartree           6
  #
      cut_pot             4.0  2.0  1.0
      basis_dep_cutoff    1e-4
  #
      radial_base         24 7.0
      radial_multiplier   2
      angular_grids       specified
        division   0.1930   50
        division   0.3175  110
        division   0.4293  194
        division   0.5066  302
        division   0.5626  434
  #      division   0.5922  590
  #      division   0.6227  974
  #      division   0.6868 1202
  #      outer_grid  770
        outer_grid  434
  ################################################################################
  #
  #  Definition of "minimal" basis
  #
  ################################################################################
  #     valence basis states
      valence      1  s   1.
  #     ion occupancy
      ion_occ      1  s   0.5
  ################################################################################
  #
  #  Suggested additional basis functions. For production calculations,
  #  uncomment them one after another (the most important basis functions are
  #  listed first).
  #
  #  Basis constructed for dimers: 0.5 A, 0.7 A, 1.0 A, 1.5 A, 2.5 A
  #
  ################################################################################
  #  "First tier" - improvements: -1014.90 meV to -62.69 meV
       hydro 2 s 2.1
       hydro 2 p 3.5
  #  "Second tier" - improvements: -12.89 meV to -1.83 meV
       hydro 1 s 0.85
       hydro 2 p 3.7
       hydro 2 s 1.2
       hydro 3 d 7
  #  "Third tier" - improvements: -0.25 meV to -0.12 meV
  #     hydro 4 f 11.2
  #     hydro 3 p 4.8
  #     hydro 4 d 9
  #     hydro 3 s 3.2
  ################################################################################
  #
  # For methods that use the localized form of the "resolution of identity" for
  # the two-electron Coulomb operator (RI_method LVL), particularly Hartree-Fock and
  # hybrid density functional calculations, the highest accuracy can be obtained by
  # uncommenting the line beginning with "for_aux"  below, thus adding an extra g radial
  # function to the construction of the product basis set for the expansion.
  # See Ref. New J. Phys. 17, 093020 (2015) for more information, particularly Figs. 1 and 6.
  #
  ################################################################################
  #
  # for_aux hydro 5 g 6.0
  ################################################################################
  #
  #  FHI-aims code project
  # Volker Blum, Fritz Haber Institute Berlin, 2009
  #
  #  Suggested "tight" defaults for C atom (to be pasted into control.in file)
  #
  ################################################################################
    species        C
  #     global species definitions
      nucleus             6
      mass                12.0107
  #
      l_hartree           6
  #
      cut_pot             4.0  2.0  1.0
      basis_dep_cutoff    1e-4
  #
      radial_base         34 7.0
      radial_multiplier   2
      angular_grids specified
        division   0.2187   50
        division   0.4416  110
        division   0.6335  194
        division   0.7727  302
        division   0.8772  434
  #      division   0.9334  590
  #      division   0.9924  770
  #      division   1.0230  974
  #      division   1.5020 1202
  #     outer_grid  974
        outer_grid  434
  ################################################################################
  #
  #  Definition of "minimal" basis
  #
  ################################################################################
  #     valence basis states
      valence      2  s   2.
      valence      2  p   2.
  #     ion occupancy
      ion_occ      2  s   1.
      ion_occ      2  p   1.
  ################################################################################
  #
  #  Suggested additional basis functions. For production calculations,
  #  uncomment them one after another (the most important basis functions are
  #  listed first).
  #
  #  Constructed for dimers: 1.0 A, 1.25 A, 1.5 A, 2.0 A, 3.0 A
  #
  ################################################################################
  #  "First tier" - improvements: -1214.57 meV to -155.61 meV
       hydro 2 p 1.7
       hydro 3 d 6
       hydro 2 s 4.9
  #  "Second tier" - improvements: -67.75 meV to -5.23 meV
       hydro 4 f 9.8
       hydro 3 p 5.2
       hydro 3 s 4.3
       hydro 5 g 14.4
       hydro 3 d 6.2
  #  "Third tier" - improvements: -2.43 meV to -0.60 meV
  #     hydro 2 p 5.6
  #     hydro 2 s 1.4
  #     hydro 3 d 4.9
  #     hydro 4 f 11.2
  #  "Fourth tier" - improvements: -0.39 meV to -0.18 meV
  #     hydro 2 p 2.1
  #     hydro 5 g 16.4
  #     hydro 4 d 13.2
  #     hydro 3 s 13.6
  #     hydro 4 f 17.6
  #  Further basis functions - improvements: -0.08 meV and below
  #     hydro 3 s 2
  #     hydro 3 p 6
  #     hydro 4 d 20
  ################################################################################
  #
  # For methods that use the localized form of the "resolution of identity" for
  # the two-electron Coulomb operator (RI_method LVL), particularly Hartree-Fock and
  # hybrid density functional calculations, the highest accuracy can be obtained by
  # uncommenting the line beginning with "for_aux"  below, thus adding an extra g radial
  # function to the construction of the product basis set for the expansion.
  # See Ref. New J. Phys. 17, 093020 (2015) for more information, particularly Figs. 1 and 6.
  #
  ################################################################################
  #
  # for_aux hydro 5 g 6.0
  ################################################################################
  #
  #  FHI-aims code project
  # Volker Blum, Fritz Haber Institute Berlin, 2009
  #
  #  Suggested "tight" defaults for N atom (to be pasted into control.in file)
  #
  ################################################################################
    species        N
  #     global species definitions
      nucleus             7
      mass                14.0067
  #
      l_hartree           6
  #
      cut_pot             4.0  2.0  1.0
      basis_dep_cutoff    1e-4
  #
      radial_base         35 7.0
      radial_multiplier   2
      angular_grids       specified
        division   0.1841   50
        division   0.3514  110
        division   0.5126  194
        division   0.6292  302
        division   0.6939  434
  #      division   0.7396  590
  #      division   0.7632  770
  #      division   0.8122  974
  #      division   1.1604 1202
  #      outer_grid  974
        outer_grid  434
  ################################################################################
  #
  #  Definition of "minimal" basis
  #
  ################################################################################
  #     valence basis states
      valence      2  s   2.
      valence      2  p   3.
  #     ion occupancy
      ion_occ      2  s   1.
      ion_occ      2  p   2.
  ################################################################################
  #
  #  Suggested additional basis functions. For production calculations,
  #  uncomment them one after another (the most important basis functions are
  #  listed first).
  #
  #  Constructed for dimers: 1.0 A, 1.1 A, 1.5 A, 2.0 A, 3.0 A
  #
  ################################################################################
  #  "First tier" - improvements: -1193.42 meV to -220.60 meV
       hydro 2 p 1.8
       hydro 3 d 6.8
       hydro 3 s 5.8
  #  "Second tier" - improvements: -80.21 meV to -6.86 meV
       hydro 4 f 10.8
       hydro 3 p 5.8
       hydro 1 s 0.8
       hydro 5 g 16
       hydro 3 d 4.9
  #  "Third tier" - improvements: -4.29 meV to -0.53 meV
  #     hydro 3 s 16
  #     ionic 2 p auto
  #     hydro 3 d 6.6
  #     hydro 4 f 11.6
  #  "Fourth tier" - improvements: -0.75 meV to -0.25 meV
  #     hydro 2 p 4.5
  #     hydro 2 s 2.4
  #     hydro 5 g 14.4
  #     hydro 4 d 14.4
  #     hydro 4 f 16.8
  # Further basis functions - -0.21 meV and below
  #     hydro 3 p 14.8
  #     hydro 3 s 4.4
  #     hydro 3 d 19.6
  #     hydro 5 g 12.8
  ################################################################################
  #
  # For methods that use the localized form of the "resolution of identity" for
  # the two-electron Coulomb operator (RI_method LVL), particularly Hartree-Fock and
  # hybrid density functional calculations, the highest accuracy can be obtained by
  # uncommenting the line beginning with "for_aux"  below, thus adding an extra g radial
  # function to the construction of the product basis set for the expansion.
  # See Ref. New J. Phys. 17, 093020 (2015) for more information, particularly Figs. 1 and 6.
  #
  ################################################################################
  #
  # for_aux hydro 5 g 6.0
  ################################################################################
  #
  #  FHI-aims code project
  # Volker Blum, Fritz Haber Institute Berlin, 2009
  #
  #  Suggested "tight" defaults for O atom (to be pasted into control.in file)
  #
  ################################################################################
    species        O
  #     global species definitions
      nucleus             8
      mass                15.9994
  #
      l_hartree           6
  #
      cut_pot             4.0  2.0  1.0
      basis_dep_cutoff    1e-4
  #
      radial_base         36 7.0
      radial_multiplier   2
       angular_grids specified
        division   0.1817   50
        division   0.3417  110
        division   0.4949  194
        division   0.6251  302
        division   0.8014  434
  #      division   0.8507  590
  #      division   0.8762  770
  #      division   0.9023  974
  #      division   1.2339 1202
  #      outer_grid 974
        outer_grid  434
  ################################################################################
  #
  #  Definition of "minimal" basis
  #
  ################################################################################
  #     valence basis states
      valence      2  s   2.
      valence      2  p   4.
  #     ion occupancy
      ion_occ      2  s   1.
      ion_occ      2  p   3.
  ################################################################################
  #
  #  Suggested additional basis functions. For production calculations,
  #  uncomment them one after another (the most important basis functions are
  #  listed first).
  #
  #  Constructed for dimers: 1.0 A, 1.208 A, 1.5 A, 2.0 A, 3.0 A
  #
  ################################################################################
  #  "First tier" - improvements: -699.05 meV to -159.38 meV
       hydro 2 p 1.8
       hydro 3 d 7.6
       hydro 3 s 6.4
  #  "Second tier" - improvements: -49.91 meV to -5.39 meV
       hydro 4 f 11.6
       hydro 3 p 6.2
       hydro 3 d 5.6
       hydro 5 g 17.6
       hydro 1 s 0.75
  #  "Third tier" - improvements: -2.83 meV to -0.50 meV
  #     ionic 2 p auto
  #     hydro 4 f 10.8
  #     hydro 4 d 4.7
  #     hydro 2 s 6.8
  #  "Fourth tier" - improvements: -0.40 meV to -0.12 meV
  #     hydro 3 p 5
  #     hydro 3 s 3.3
  #     hydro 5 g 15.6
  #     hydro 4 f 17.6
  #     hydro 4 d 14
  # Further basis functions - -0.08 meV and below
  #     hydro 3 s 2.1
  #     hydro 4 d 11.6
  #     hydro 3 p 16
  #     hydro 2 s 17.2
  ################################################################################
  #
  # For methods that use the localized form of the "resolution of identity" for
  # the two-electron Coulomb operator (RI_method LVL), particularly Hartree-Fock and
  # hybrid density functional calculations, the highest accuracy can be obtained by
  # uncommenting the line beginning with "for_aux"  below, thus adding an extra g radial
  # function to the construction of the product basis set for the expansion.
  # See Ref. New J. Phys. 17, 093020 (2015) for more information, particularly Figs. 1 and 6.
  #
  ################################################################################
  #
  # for_aux hydro 5 g 6.0
  
  -----------------------------------------------------------------------
  Completed first pass over input file control.in .
  -----------------------------------------------------------------------
  
  
  -----------------------------------------------------------------------
  Parsing geometry.in (first pass over file, find array dimensions only).
  The contents of geometry.in will be repeated verbatim below
  unless switched off by setting 'verbatim_writeout .false.' .
  in the first line of geometry.in .
  -----------------------------------------------------------------------
  
  #
  # This is the geometry file that corresponds to the current relaxation step.
  # If you do not want this file to be written, set the "write_restart_geometry" flag to .false.
  #
  atom      -0.83121099      1.46156103      0.35333787 C
  atom      -0.42770027      0.37854654      1.33609316 C
  atom       0.58446343     -0.30662488      1.18304602 O
  atom      -0.95996570      1.00703782     -0.63700297 H
  atom      -0.01403112      2.18945882      0.27517632 H
  atom      -1.75351031      1.98629603      0.63088151 H
  atom      -1.25868877      0.22027905      2.40779297 N
  atom      -1.06236980     -0.83252115      3.38156705 C
  atom      -2.44850904     -1.15353206      3.96859358 C
  atom      -3.39670224     -0.37650524      3.86258105 O
  atom      -2.15295017      0.70315521      2.47520963 H
  atom      -0.66726505     -1.71434675      2.85032683 H
  atom      -0.05325817     -0.42988378      4.47285813 C
  atom       0.11369547     -1.24483793      5.19067593 H
  atom      -0.41091139      0.45293923      5.01907326 H
  atom       0.90621011     -0.18843140      4.00065575 H
  atom      -2.54271667     -2.33878405      4.63079059 N
  atom      -3.80792958     -2.85530129      5.14578620 C
  atom      -4.49069063     -2.04837696      6.27581079 C
  atom      -5.71792631     -2.01371693      6.29873491 O
  atom      -1.74312914     -2.96276233      4.61943791 H
  atom      -4.55399094     -2.80644475      4.33968292 H
  atom      -3.63106142     -4.31092028      5.58558685 C
  atom      -4.58955653     -4.70517411      5.94117878 H
  atom      -2.90157035     -4.40395185      6.40318189 H
  atom      -3.29592473     -4.93343208      4.74437991 H
  atom      -3.75333112     -1.46395572      7.26674223 N
  atom      -2.31751691     -1.38751363      7.47426525 C
  atom      -4.34368236     -0.96418697      7.92497835 H
  atom      -2.13529264     -1.17507877      8.53469208 H
  atom      -1.84337642     -0.59386285      6.87894070 H
  atom      -1.82283324     -2.33793298      7.24360054 H
  
  -----------------------------------------------------------------------
  Completed first pass over input file geometry.in .
  -----------------------------------------------------------------------
  

  Basic array size parameters:
  | Number of species                 :        4
  | Number of atoms                   :       32
  | Max. basis fn. angular momentum   :        4
  | Max. atomic/ionic basis occupied n:        2
  | Max. number of basis fn. types    :        2
  | Max. radial fns per species/type  :        8
  | Max. logarithmic grid size        :     1301
  | Max. radial integration grid size :       73
  | Max. angular integration grid size:      434
  | Max. angular grid division number :        8
  | Radial grid for Hartree potential :     1301
  | Number of spin channels           :        1

------------------------------------------------------------
          Reading file control.in.
------------------------------------------------------------
  XC: Using PBE gradient-corrected functionals.
  Spin treatment: No spin polarisation.
  Charge =   0.000000E+00: Neutral system requested explicitly.
  Occupation type: Gaussian broadening, width =   0.500000E-01 eV.
  Using pulay charge density mixing.
  Pulay mixing - number of memorized iterations:   10
  Charge density mixing - mixing parameter:     0.5000
  Convergence accuracy of self-consistent charge density:  0.1000E-03
  Convergence accuracy of sum of eigenvalues:  0.1000E-01
  Convergence accuracy of total energy:  0.1000E-04
  Convergence accuracy of forces:  0.1000E-03
  Maximum number of s.-c. iterations  :  1000
  Fitting ESP-charges to Potential. 
  | Esp charge output options: 
  | ESP Grid method: 3, cubic grid
  | Number of points in x, ,y, z:  0080 0080 0080
  |
 
  Reading configuration options for species H                   .
  | Found nuclear charge :   1.0000
  | Found atomic mass :    1.00794000000000      amu
  | Found l_max for Hartree potential  :   6
  | Found cutoff potl. onset [A], width [A], scale factor :    4.00000    2.00000    1.00000
  | Threshold for basis-dependent cutoff potential is   0.100000E-03
  | Found data for basic radial integration grid :    24 points, outermost radius =    7.000 A
  | Found multiplier for basic radial grid :   2
  | Found angular grid specification: user-specified.
  | Specified grid contains     6 separate shells.
  | Check grid settings after all constraints further below.
  | Found free-atom valence shell :  1 s   1.000
  | No ionic wave fns used. Skipping ion_occ.
  | Found hydrogenic basis function :  2 s   2.100
  | Found hydrogenic basis function :  2 p   3.500
  | Found hydrogenic basis function :  1 s   0.850
  | Found hydrogenic basis function :  2 p   3.700
  | Found hydrogenic basis function :  2 s   1.200
  | Found hydrogenic basis function :  3 d   7.000
  Species H                   : Missing cutoff potential type.
  Defaulting to exp(1/x)/(1-x)^2 type cutoff potential.
  Species H : No 'logarithmic' tag. Using default grid for free atom:
  | Default logarithmic grid data [bohr] : 0.1000E-03 0.1000E+03 0.1012E+01
  Species H : On-site basis accuracy parameter (for Gram-Schmidt orthonormalisation) not specified.
  Using default value basis_acc =  0.1000000E-03.
  Species H                   : Using default innermost maximum threshold i_radial=  2 for radial functions.
  Species H                   : Default cutoff onset for free atom density etc. : 0.40000000E+01 AA.
  Species H                   : Basic radial grid will be enhanced according to radial_multiplier =   2, to contain    49 grid points.
 
  Reading configuration options for species C                   .
  | Found nuclear charge :   6.0000
  | Found atomic mass :    12.0107000000000      amu
  | Found l_max for Hartree potential  :   6
  | Found cutoff potl. onset [A], width [A], scale factor :    4.00000    2.00000    1.00000
  | Threshold for basis-dependent cutoff potential is   0.100000E-03
  | Found data for basic radial integration grid :    34 points, outermost radius =    7.000 A
  | Found multiplier for basic radial grid :   2
  | Found angular grid specification: user-specified.
  | Specified grid contains     6 separate shells.
  | Check grid settings after all constraints further below.
  | Found free-atom valence shell :  2 s   2.000
  | Found free-atom valence shell :  2 p   2.000
  | No ionic wave fns used. Skipping ion_occ.
  | No ionic wave fns used. Skipping ion_occ.
  | Found hydrogenic basis function :  2 p   1.700
  | Found hydrogenic basis function :  3 d   6.000
  | Found hydrogenic basis function :  2 s   4.900
  | Found hydrogenic basis function :  4 f   9.800
  | Found hydrogenic basis function :  3 p   5.200
  | Found hydrogenic basis function :  3 s   4.300
  | Found hydrogenic basis function :  5 g  14.400
  | Found hydrogenic basis function :  3 d   6.200
  Species C                   : Missing cutoff potential type.
  Defaulting to exp(1/x)/(1-x)^2 type cutoff potential.
  Species C : No 'logarithmic' tag. Using default grid for free atom:
  | Default logarithmic grid data [bohr] : 0.1000E-03 0.1000E+03 0.1012E+01
  Species C : On-site basis accuracy parameter (for Gram-Schmidt orthonormalisation) not specified.
  Using default value basis_acc =  0.1000000E-03.
  Species C                   : Using default innermost maximum threshold i_radial=  2 for radial functions.
  Species C                   : Default cutoff onset for free atom density etc. : 0.40000000E+01 AA.
  Species C                   : Basic radial grid will be enhanced according to radial_multiplier =   2, to contain    69 grid points.
 
  Reading configuration options for species N                   .
  | Found nuclear charge :   7.0000
  | Found atomic mass :    14.0067000000000      amu
  | Found l_max for Hartree potential  :   6
  | Found cutoff potl. onset [A], width [A], scale factor :    4.00000    2.00000    1.00000
  | Threshold for basis-dependent cutoff potential is   0.100000E-03
  | Found data for basic radial integration grid :    35 points, outermost radius =    7.000 A
  | Found multiplier for basic radial grid :   2
  | Found angular grid specification: user-specified.
  | Specified grid contains     6 separate shells.
  | Check grid settings after all constraints further below.
  | Found free-atom valence shell :  2 s   2.000
  | Found free-atom valence shell :  2 p   3.000
  | No ionic wave fns used. Skipping ion_occ.
  | No ionic wave fns used. Skipping ion_occ.
  | Found hydrogenic basis function :  2 p   1.800
  | Found hydrogenic basis function :  3 d   6.800
  | Found hydrogenic basis function :  3 s   5.800
  | Found hydrogenic basis function :  4 f  10.800
  | Found hydrogenic basis function :  3 p   5.800
  | Found hydrogenic basis function :  1 s   0.800
  | Found hydrogenic basis function :  5 g  16.000
  | Found hydrogenic basis function :  3 d   4.900
  Species N                   : Missing cutoff potential type.
  Defaulting to exp(1/x)/(1-x)^2 type cutoff potential.
  Species N : No 'logarithmic' tag. Using default grid for free atom:
  | Default logarithmic grid data [bohr] : 0.1000E-03 0.1000E+03 0.1012E+01
  Species N : On-site basis accuracy parameter (for Gram-Schmidt orthonormalisation) not specified.
  Using default value basis_acc =  0.1000000E-03.
  Species N                   : Using default innermost maximum threshold i_radial=  2 for radial functions.
  Species N                   : Default cutoff onset for free atom density etc. : 0.40000000E+01 AA.
  Species N                   : Basic radial grid will be enhanced according to radial_multiplier =   2, to contain    71 grid points.
 
  Reading configuration options for species O                   .
  | Found nuclear charge :   8.0000
  | Found atomic mass :    15.9994000000000      amu
  | Found l_max for Hartree potential  :   6
  | Found cutoff potl. onset [A], width [A], scale factor :    4.00000    2.00000    1.00000
  | Threshold for basis-dependent cutoff potential is   0.100000E-03
  | Found data for basic radial integration grid :    36 points, outermost radius =    7.000 A
  | Found multiplier for basic radial grid :   2
  | Found angular grid specification: user-specified.
  | Specified grid contains     6 separate shells.
  | Check grid settings after all constraints further below.
  | Found free-atom valence shell :  2 s   2.000
  | Found free-atom valence shell :  2 p   4.000
  | No ionic wave fns used. Skipping ion_occ.
  | No ionic wave fns used. Skipping ion_occ.
  | Found hydrogenic basis function :  2 p   1.800
  | Found hydrogenic basis function :  3 d   7.600
  | Found hydrogenic basis function :  3 s   6.400
  | Found hydrogenic basis function :  4 f  11.600
  | Found hydrogenic basis function :  3 p   6.200
  | Found hydrogenic basis function :  3 d   5.600
  | Found hydrogenic basis function :  5 g  17.600
  | Found hydrogenic basis function :  1 s   0.750
  Species O                   : Missing cutoff potential type.
  Defaulting to exp(1/x)/(1-x)^2 type cutoff potential.
  Species O : No 'logarithmic' tag. Using default grid for free atom:
  | Default logarithmic grid data [bohr] : 0.1000E-03 0.1000E+03 0.1012E+01
  Species O : On-site basis accuracy parameter (for Gram-Schmidt orthonormalisation) not specified.
  Using default value basis_acc =  0.1000000E-03.
  Species O                   : Using default innermost maximum threshold i_radial=  2 for radial functions.
  Species O                   : Default cutoff onset for free atom density etc. : 0.40000000E+01 AA.
  Species O                   : Basic radial grid will be enhanced according to radial_multiplier =   2, to contain    73 grid points.
 
  Finished reading input file 'control.in'. Consistency checks are next.
 
  Target number of points in a grid batch is not set. Defaulting to  100
  Method for grid partitioning is not set. Defaulting to parallel hash+maxmin partitioning.
  Batch size limit is not set. Defaulting to    200
  By default, will store active basis functions for each batch.
  If in need of memory, prune_basis_once .false. can be used to disable this option.
  communication_type for Hartree potential was not specified.
  Defaulting to calc_hartree .
  Pulay mixer: Number of initial linear mixing iterations not set.
  Defaulting to    0 iterations.
  Work space size for distributed Hartree potential not set.
  Defaulting to   0.200000E+03 MB.
  Algorithm-dependent basis array size parameters:
  | n_max_pulay                         :       10
  Geometry relaxation not requested: no relaxation will be performed.
  Handling of forces: Unphysical translation and rotation will be removed from forces.
  No accuracy limit for integral partition fn. given. Defaulting to  0.1000E-14.
  No threshold value for u(r) in integrations given. Defaulting to  0.1000E-05.
  No accuracy for occupation numbers given. Defaulting to  0.1000E-07.
  No threshold value for occupation numbers given. Defaulting to  0.0000E+00.
  No accuracy for fermi level given. Defaulting to  0.1000E-19.
  Maximum # of iterations to find E_F not set. Defaulting to  200.
  Preferred method for the eigenvalue solver ('KS_method') not specified in 'control.in'.
  Calling blacs routine to test compilation state
  Since scalapack support is enabled, defaulting to 'elpa'.
  Preferred method for the MBD eigenvalue solver ('mbd_eigensolver') not specified in 'control.in'.
  Calling blacs routine to test compilation state
  Since scalapack support is enabled, defaulting to 'scaLAPACK'.
  Will not use alltoall communication since running on < 1024 CPUs.
  Threshold for basis singularities not set.
  Default threshold for basis singularities:  0.1000E-04
  partition_type (choice of integration weights) for integrals was not specified.
  | Using a version of the partition function of Stratmann and coworkers ('stratmann_smoother').
  | At each grid point, the set of atoms used to build the partition table is smoothly restricted to
  | only those atoms whose free-atom density would be non-zero at that grid point.
  Partitioning for Hartree potential was not defined. Using partition_type for integrals.
  | Adjusted default value of keyword multip_moments_threshold to:       0.10000000E-11
  | This value may affect high angular momentum components of the Hartree potential in periodic systems.
  No q(lm)/r^(l+1) cutoff set for long-range Hartree potential.
  | Using default value of  0.100000E-09 .
  | Verify using the multipole_threshold keyword.
  Defaulting to new monopole extrapolation.
  Density update method: automatic selection selected.
------------------------------------------------------------


------------------------------------------------------------
          Reading geometry description geometry.in.
------------------------------------------------------------
 * Warning! You did not set the 'relativistic' flag in input file 'control.in'.
 * Since you are not attempting to treat any elements beyond Ca(Z=20), FHI-aims
 * will default to 'relativistic none'.
 * You must ensure that this is really what you want!!
 * For example, DO NOT compute total-energy differences between results from
 * different settings of the 'relativistic' flag.
  Input structure read successfully.
  The structure contains       32 atoms,  and a total of        116.000 electrons.

  Input geometry:
  | No unit cell requested.
  | Atomic structure:
  |       Atom                x [A]            y [A]            z [A]
  |    1: Species C             -0.831211         1.461561         0.353338
  |    2: Species C             -0.427700         0.378547         1.336093
  |    3: Species O              0.584463        -0.306625         1.183046
  |    4: Species H             -0.959966         1.007038        -0.637003
  |    5: Species H             -0.014031         2.189459         0.275176
  |    6: Species H             -1.753510         1.986296         0.630882
  |    7: Species N             -1.258689         0.220279         2.407793
  |    8: Species C             -1.062370        -0.832521         3.381567
  |    9: Species C             -2.448509        -1.153532         3.968594
  |   10: Species O             -3.396702        -0.376505         3.862581
  |   11: Species H             -2.152950         0.703155         2.475210
  |   12: Species H             -0.667265        -1.714347         2.850327
  |   13: Species C             -0.053258        -0.429884         4.472858
  |   14: Species H              0.113695        -1.244838         5.190676
  |   15: Species H             -0.410911         0.452939         5.019073
  |   16: Species H              0.906210        -0.188431         4.000656
  |   17: Species N             -2.542717        -2.338784         4.630791
  |   18: Species C             -3.807930        -2.855301         5.145786
  |   19: Species C             -4.490691        -2.048377         6.275811
  |   20: Species O             -5.717926        -2.013717         6.298735
  |   21: Species H             -1.743129        -2.962762         4.619438
  |   22: Species H             -4.553991        -2.806445         4.339683
  |   23: Species C             -3.631061        -4.310920         5.585587
  |   24: Species H             -4.589557        -4.705174         5.941179
  |   25: Species H             -2.901570        -4.403952         6.403182
  |   26: Species H             -3.295925        -4.933432         4.744380
  |   27: Species N             -3.753331        -1.463956         7.266742
  |   28: Species C             -2.317517        -1.387514         7.474265
  |   29: Species H             -4.343682        -0.964187         7.924978
  |   30: Species H             -2.135293        -1.175079         8.534692
  |   31: Species H             -1.843376        -0.593863         6.878941
  |   32: Species H             -1.822833        -2.337933         7.243601
  |

  | The smallest distance between any two atoms is         1.01430666 AA.
  |
  | The first atom of this pair is atom number                     17 .
  | The second atom of this pair is atom number                    21 .

  Number of empty states per atom not set in control.in - providing a guess from actual geometry.
  | Total number of empty states used during s.c.f. cycle:       71
  If you use a very high smearing, use empty_states (per atom!) in control.in to increase this value.

  Structure-dependent array size parameters: 
  | Maximum number of distinct radial functions  :       40
  | Maximum number of basis functions            :      840
  | Number of Kohn-Sham states (occupied + empty):      129
------------------------------------------------------------

------------------------------------------------------------
          Preparing all fixed parts of the calculation.
------------------------------------------------------------
  Determining machine precision:
    2.225073858507201E-308
  Setting up grids for atomic and cluster calculations.

  Creating wave function, potential, and density for free atoms.

  Species: H

  List of occupied orbitals and eigenvalues:
    n    l              occ      energy [Ha]    energy [eV]
    1    0           1.0000        -0.238382        -6.4867


  Species: C

  List of occupied orbitals and eigenvalues:
    n    l              occ      energy [Ha]    energy [eV]
    1    0           2.0000       -10.041232      -273.2358
    2    0           2.0000        -0.504327       -13.7234
    2    1           2.0000        -0.193750        -5.2722


  Species: N

  List of occupied orbitals and eigenvalues:
    n    l              occ      energy [Ha]    energy [eV]
    1    0           2.0000       -14.129007      -384.4699
    2    0           2.0000        -0.681802       -18.5528
    2    1           3.0000        -0.260543        -7.0897


  Species: O

  List of occupied orbitals and eigenvalues:
    n    l              occ      energy [Ha]    energy [eV]
    1    0           2.0000       -18.898576      -514.2564
    2    0           2.0000        -0.878795       -23.9132
    2    1           4.0000        -0.332075        -9.0362

  Creating fixed part of basis set: Ionic, confined, hydrogenic.
 
  H                    hydrogenic:
 
  List of hydrogenic basis orbitals: 
    n    l      effective z      eigenvalue [eV]  inner max. [A]     outer max. [A]     outer radius [A]   
    2    0         2.100000       -14.9965           0.193243           1.317208           5.373006
    2    1         3.500000       -41.6672           0.602369           0.602369           4.056063
    1    0         0.850000        -9.8292           0.624871           0.624871           5.373006
    2    1         3.700000       -46.5653           0.573622           0.573622           3.910002
    2    0         1.200000        -4.5995           0.334980           2.228188           5.505995
    3    2         7.000000       -74.0753           0.680699           0.680699           3.769201
 
 
  C                    hydrogenic:
 
  List of hydrogenic basis orbitals: 
    n    l      effective z      eigenvalue [eV]  inner max. [A]     outer max. [A]     outer radius [A]   
    2    1         1.700000        -9.8152           1.245706           1.245706           5.401630
    3    2         6.000000       -54.4226           0.792453           0.792453           4.178599
    2    0         4.900000       -81.6681           0.082559           0.562749           3.353238
    4    3         9.800000       -81.6681           0.863254           0.863254           4.028125
    3    1         5.200000       -40.8774           0.305389           1.215618           4.898362
    3    0         4.300000       -27.9508           0.091041           1.610311           5.401630
    5    4        14.400000      -112.8510           0.917666           0.917666           3.883070
    3    2         6.200000       -58.1113           0.763917           0.763917           4.077671
 
 
  N                    hydrogenic:
 
  List of hydrogenic basis orbitals: 
    n    l      effective z      eigenvalue [eV]  inner max. [A]     outer max. [A]     outer radius [A]   
    2    1         1.800000       -11.0118           1.177451           1.177451           5.427479
    3    2         6.800000       -69.9029           0.704619           0.704619           3.854246
    3    0         5.800000       -50.8549           0.067388           1.191934           4.629968
    4    3        10.800000       -99.1854           0.786571           0.786571           3.761152
    3    1         5.800000       -50.8549           0.274880           1.094176           4.518138
    1    0         0.800000        -8.7059           0.662839           0.662839           5.361532
    5    4        16.000000      -139.3222           0.825990           0.825990           3.625711
    3    2         4.900000       -36.2967           0.968267           0.968267           4.862000
 
 
  O                    hydrogenic:
 
  List of hydrogenic basis orbitals: 
    n    l      effective z      eigenvalue [eV]  inner max. [A]     outer max. [A]     outer radius [A]   
    2    1         1.800000       -11.0118           1.178562           1.178562           5.432602
    3    2         7.600000       -87.3182           0.624125           0.624125           3.541477
    3    0         6.400000       -61.9209           0.061167           1.081902           4.306578
    4    3        11.600000      -114.4238           0.731631           0.731631           3.585037
    3    1         6.200000       -58.1113           0.255680           1.030270           4.306578
    3    2         5.600000       -47.4081           0.847233           0.847233           4.413171
    5    4        17.600000      -168.5799           0.749740           0.749740           3.372465
    1    0         0.750000        -7.6499           0.705284           0.705284           5.366593
 

  Adding cutoff potential to free-atom effective potential.
  Creating atomic-like basis functions for current effective potential.

  Species H                   :

  List of atomic basis orbitals and eigenvalues:
    n    l      energy [Ha]    energy [eV]    outer radius [A]
    1    0        -0.238382        -6.4867       5.373006


  Species C                   :

  List of atomic basis orbitals and eigenvalues:
    n    l      energy [Ha]    energy [eV]    outer radius [A]
    1    0       -10.041232      -273.2358       1.934409
    2    0        -0.504327       -13.7234       5.271162
    2    1        -0.193750        -5.2722       5.401630


  Species N                   :

  List of atomic basis orbitals and eigenvalues:
    n    l      energy [Ha]    energy [eV]    outer radius [A]
    1    0       -14.129007      -384.4699       1.637919
    2    0        -0.681802       -18.5528       5.168461
    2    1        -0.260543        -7.0897       5.361532


  Species O                   :

  List of atomic basis orbitals and eigenvalues:
    n    l      energy [Ha]    energy [eV]    outer radius [A]
    1    0       -18.898576      -514.2564       1.415765
    2    0        -0.878795       -23.9132       5.048385
    2    1        -0.332075        -9.0362       5.301386

  Assembling full basis from fixed parts.
  | Species H :   atomic orbital   1 s accepted.
  | Species H :    hydro orbital   2 s accepted.
  | Species H :    hydro orbital   1 s accepted.
  | Species H :    hydro orbital   2 s accepted.
  | Species H :    hydro orbital   2 p accepted.
  | Species H :    hydro orbital   2 p accepted.
  | Species H :    hydro orbital   3 d accepted.
  | Species C :   atomic orbital   1 s accepted.
  | Species C :    hydro orbital   2 s accepted.
  | Species C :   atomic orbital   2 s accepted.
  | Species C :    hydro orbital   3 s accepted.
  | Species C :    hydro orbital   3 p accepted.
  | Species C :   atomic orbital   2 p accepted.
  | Species C :    hydro orbital   2 p accepted.
  | Species C :    hydro orbital   3 d accepted.
  | Species C :    hydro orbital   3 d accepted.
  | Species C :    hydro orbital   4 f accepted.
  | Species C :    hydro orbital   5 g accepted.
  | Species N :   atomic orbital   1 s accepted.
  | Species N :    hydro orbital   3 s accepted.
  | Species N :   atomic orbital   2 s accepted.
  | Species N :    hydro orbital   1 s accepted.
  | Species N :    hydro orbital   3 p accepted.
  | Species N :   atomic orbital   2 p accepted.
  | Species N :    hydro orbital   2 p accepted.
  | Species N :    hydro orbital   3 d accepted.
  | Species N :    hydro orbital   3 d accepted.
  | Species N :    hydro orbital   4 f accepted.
  | Species N :    hydro orbital   5 g accepted.
  | Species O :   atomic orbital   1 s accepted.
  | Species O :    hydro orbital   3 s accepted.
  | Species O :   atomic orbital   2 s accepted.
  | Species O :    hydro orbital   1 s accepted.
  | Species O :    hydro orbital   3 p accepted.
  | Species O :   atomic orbital   2 p accepted.
  | Species O :    hydro orbital   2 p accepted.
  | Species O :    hydro orbital   3 d accepted.
  | Species O :    hydro orbital   3 d accepted.
  | Species O :    hydro orbital   4 f accepted.
  | Species O :    hydro orbital   5 g accepted.
 
  Basis size parameters after reduction:
  | Total number of radial functions:       40
  | Total number of basis functions :      840
 
  Testing on-site integration grid accuracy.
  |  Species  Function  <phi|h_atom|phi> (log., in eV)  <phi|h_atom|phi> (rad., in eV)
           1        1                 -6.4869821809                 -6.4870742227
           1        2                 13.5044133542                 13.5041049177
           1        3                 32.7854418792                 32.7779770519
           1        4                 33.7995553101                 33.7152624900 ***
           1        5                 28.8558651799                 28.8558652046
           1        6                 59.6361831893                 59.6362535845
           1        7                 60.2733718049                 60.2733715484
           2        8               -273.2358277112               -273.2358261765
           2        9                -10.7624923123                -10.7625144012
           2       10                 17.4634079027                 17.4634252127
           2       11                 53.0363661832                 53.0366180446
           2       12                 15.0981351967                 15.0981317714
           2       13                  3.8522181899                  3.8522770949
           2       14                 12.1181835661                 12.1206868578
           2       15                 29.4320778347                 29.4320780959
           2       16                 54.8753777694                 54.8752901936
           2       17                 59.3533975461                 59.3533974833
           2       18                 93.4537491195                 93.4537492066
           3       19               -384.4698526889               -384.4698499465
           3       20                 12.5691022037                 12.5690910168
           3       21                -15.7489097511                -15.7489165588
           3       22                 27.0978334940                 27.0985589490
           3       23                 18.5949116966                 18.5949125562
           3       24                  1.2212828291                  1.2212855301
           3       25                 13.4428926797                 13.4434051125
           3       26                 35.9380614500                 35.9380613666
           3       27                 39.9231532098                 39.9231654735
           3       28                 72.9957335806                 72.9957336833
           3       29                116.4231321147                116.4231321431
           4       30               -514.2564144315               -514.2564099626
           4       31                 15.1726678541                 15.1726530877
           4       32                -21.5447785304                -21.5447874973
           4       33                 14.4944558459                 14.4944698284
           4       34                 20.8882174564                 20.8882178906
           4       35                 -2.4850315908                 -2.4850322289
           4       36                 13.8600193195                 13.8599826966
           4       37                 45.8243383616                 45.8243383675
           4       38                 52.1840606465                 52.1840622440
           4       39                 85.4074185510                 85.4074185819
           4       40                142.0983717302                142.0983717339
 * Note: Onsite integrals marked "***" above are less accurate than
 * onsite_accuracy_threshold =    0.03000 eV. Usually, this is harmless.
 * When in doubt, tighten the "radial" and/or "radial_multiplier" flags to check.

  Preparing densities etc. for the partition functions (integrals / Hartree potential).

  Preparations completed.
  max(cpu_time)          :      0.240 s.
  Wall clock time (cpu1) :      0.239 s.
------------------------------------------------------------

------------------------------------------------------------
          Begin self-consistency loop: Initialization.

          Date     :  20170309, Time     :  181726.317
------------------------------------------------------------

  Initializing index lists of integration centers etc. from given atomic structure:
  | Number of centers in hartree potential         :        32
  | Number of centers in hartree multipole         :        32
  | Number of centers in electron density summation:        32
  | Number of centers in basis integrals           :        32
  | Number of centers in integrals                 :        32
  | Number of centers in hamiltonian               :        32
  Using modified Scalapack Eigenvalue solver (ELPA)
  * Using 32 tasks for Scalapack Eigenvalue solver.
  Detailed listing of tasks and assigned k-points:
  (for non-periodic systems, the "k-point" denotes an internal label only)
   Task     0 k-point     1 on eos399
   Task     1 k-point     1 on eos399
   Task     2 k-point     1 on eos399
   Task     3 k-point     1 on eos399
   Task     4 k-point     1 on eos399
   Task     5 k-point     1 on eos399
   Task     6 k-point     1 on eos399
   Task     7 k-point     1 on eos399
   Task     8 k-point     1 on eos399
   Task     9 k-point     1 on eos399
   Task    10 k-point     1 on eos399
   Task    11 k-point     1 on eos399
   Task    12 k-point     1 on eos399
   Task    13 k-point     1 on eos399
   Task    14 k-point     1 on eos399
   Task    15 k-point     1 on eos399
   Task    16 k-point     1 on eos399
   Task    17 k-point     1 on eos399
   Task    18 k-point     1 on eos399
   Task    19 k-point     1 on eos399
   Task    20 k-point     1 on eos399
   Task    21 k-point     1 on eos399
   Task    22 k-point     1 on eos399
   Task    23 k-point     1 on eos399
   Task    24 k-point     1 on eos399
   Task    25 k-point     1 on eos399
   Task    26 k-point     1 on eos399
   Task    27 k-point     1 on eos399
   Task    28 k-point     1 on eos399
   Task    29 k-point     1 on eos399
   Task    30 k-point     1 on eos399
   Task    31 k-point     1 on eos399
  Tasks:    32 split into      8 X      4 BLACS grid
  Calculating blocksize based on n_basis =          840 max_nprow =            8 max_npcol =            4
  Scalapack blocksize set to:           16
  Required Scalapack workspace - INTEGER:            1 REAL:             1
  Partitioning the integration grid into batches with parallel hashing+maxmin method.
  | Number of batches:     5107
  | Maximal batch size:     200
  | Minimal batch size:       4
  | Average batch size:     103.334
  | Standard deviation of batch sizes:      27.442

  Integration load balanced across    32 MPI tasks.
  Work distribution over tasks is as follows:
  Task     0 has      16539 integration points.
  Task     1 has      16462 integration points.
  Task     2 has      16471 integration points.
  Task     3 has      16454 integration points.
  Task     4 has      16468 integration points.
  Task     5 has      16461 integration points.
  Task     6 has      16498 integration points.
  Task     7 has      16456 integration points.
  Task     8 has      16458 integration points.
  Task     9 has      16529 integration points.
  Task    10 has      16573 integration points.
  Task    11 has      16577 integration points.
  Task    12 has      16501 integration points.
  Task    13 has      16532 integration points.
  Task    14 has      16537 integration points.
  Task    15 has      16535 integration points.
  Task    16 has      16451 integration points.
  Task    17 has      16481 integration points.
  Task    18 has      16470 integration points.
  Task    19 has      16475 integration points.
  Task    20 has      16532 integration points.
  Task    21 has      16479 integration points.
  Task    22 has      16467 integration points.
  Task    23 has      16469 integration points.
  Task    24 has      16456 integration points.
  Task    25 has      16475 integration points.
  Task    26 has      16493 integration points.
  Task    27 has      16465 integration points.
  Task    28 has      16531 integration points.
  Task    29 has      16490 integration points.
  Task    30 has      16497 integration points.
  Task    31 has      16446 integration points.
  Initializing partition tables, free-atom densities, potentials, etc. across the integration grid (initialize_grid_storage).
  | initialize_grid_storage: Actual outermost partition radius vs. multipole_radius_free
  | (-- VB: in principle, multipole_radius_free should be larger, hence this output)
  | Species        1: Confinement radius =              6.000000000000000 AA, multipole_radius_free =              6.071692442739658 AA.
  | Species        1: outer_partition_radius set to              6.071692442739658 AA .
  | Species        2: Confinement radius =              6.000000000000000 AA, multipole_radius_free =              6.029870734432609 AA.
  | Species        2: outer_partition_radius set to              6.029870734432609 AA .
  | Species        3: Confinement radius =              6.000000000000000 AA, multipole_radius_free =              6.058726835495003 AA.
  | Species        3: outer_partition_radius set to              6.058726835495003 AA .
  | Species        4: Confinement radius =              6.000000000000000 AA, multipole_radius_free =              6.064445521808699 AA.
  | Species        4: outer_partition_radius set to              6.064445521808699 AA .
  | Original list of interatomic distances with          32 x         32 entries is created.
  | Net number of integration points:   527728
  | of which are non-zero points    :   416092
  Obtaining max. number of non-zero basis functions in each batch (get_n_compute_maxes).
  | Maximal number of non-zero basis functions:      716 in task     0
  | Maximal number of non-zero basis functions:      719 in task     1
  | Maximal number of non-zero basis functions:      716 in task     2
  | Maximal number of non-zero basis functions:      723 in task     3
  | Maximal number of non-zero basis functions:      716 in task     4
  | Maximal number of non-zero basis functions:      716 in task     5
  | Maximal number of non-zero basis functions:      737 in task     6
  | Maximal number of non-zero basis functions:      722 in task     7
  | Maximal number of non-zero basis functions:      729 in task     8
  | Maximal number of non-zero basis functions:      720 in task     9
  | Maximal number of non-zero basis functions:      722 in task    10
  | Maximal number of non-zero basis functions:      717 in task    11
  | Maximal number of non-zero basis functions:      703 in task    12
  | Maximal number of non-zero basis functions:      714 in task    13
  | Maximal number of non-zero basis functions:      714 in task    14
  | Maximal number of non-zero basis functions:      710 in task    15
  | Maximal number of non-zero basis functions:      724 in task    16
  | Maximal number of non-zero basis functions:      712 in task    17
  | Maximal number of non-zero basis functions:      737 in task    18
  | Maximal number of non-zero basis functions:      724 in task    19
  | Maximal number of non-zero basis functions:      719 in task    20
  | Maximal number of non-zero basis functions:      716 in task    21
  | Maximal number of non-zero basis functions:      702 in task    22
  | Maximal number of non-zero basis functions:      715 in task    23
  | Maximal number of non-zero basis functions:      710 in task    24
  | Maximal number of non-zero basis functions:      732 in task    25
  | Maximal number of non-zero basis functions:      711 in task    26
  | Maximal number of non-zero basis functions:      712 in task    27
  | Maximal number of non-zero basis functions:      726 in task    28
  | Maximal number of non-zero basis functions:      704 in task    29
  | Maximal number of non-zero basis functions:      699 in task    30
  | Maximal number of non-zero basis functions:      706 in task    31
  Selecting the method for density update.
  Loop over occupied states selected for charge density update.
  Integrating Hamiltonian matrix: batch-based integration.
  Time summed over all CPUs for integration: real work       20.306 s, elapsed       21.599 s
  Integrating overlap matrix.
  Time summed over all CPUs for integration: real work       12.330 s, elapsed       12.805 s
  Deallocating overlap matrix.

  Updating Kohn-Sham eigenvalues, eigenvectors, occupation numbers, and Fermi level.
  Solving generalized eigenproblem
  Solving real symmetric generalised eigenvalue problem by standard ScaLAPACK.
  Transforming overlap matrix with ScaLAPACK and checking for singularities.
  : Overlap matrix is nonsingular, using Cholesky decomposition
  | Lowest eigenvalue:  0.847086E-04
  Factoring overlap matrix with Cholesky decomposition
  Using Cholesky factor for transformation
  Using 1-stage real ELPA solver
  Determining occupation numbers for Kohn-Sham eigenstates.
  | Chemical potential (Fermi level) in eV                 : -.95296006E+01
  | Error in electron count due to remaining E_F inaccuracy: 0.00000000E+00
  | Maximum occupation number of highest empty state:  0.00E+00

  Writing Kohn-Sham eigenvalues.

  State    Occupation    Eigenvalue [Ha]    Eigenvalue [eV]
      1       2.00000         -18.974493         -516.32221
      2       2.00000         -18.974372         -516.31894
      3       2.00000         -18.973304         -516.28988
      4       2.00000         -14.255884         -387.92233
      5       2.00000         -14.255646         -387.91588
      6       2.00000         -14.254583         -387.88694
      7       2.00000         -10.170917         -276.76473
      8       2.00000         -10.170893         -276.76408
      9       2.00000         -10.170020         -276.74034
     10       2.00000         -10.166718         -276.65047
     11       2.00000         -10.149140         -276.17215
     12       2.00000         -10.148245         -276.14779
     13       2.00000         -10.136299         -275.82273
     14       2.00000         -10.135272         -275.79479
     15       2.00000         -10.134120         -275.76344
     16       2.00000          -1.135510          -30.89879
     17       2.00000          -1.132249          -30.81005
     18       2.00000          -1.128126          -30.69786
     19       2.00000          -1.018977          -27.72777
     20       2.00000          -1.016324          -27.65558
     21       2.00000          -1.005983          -27.37419
     22       2.00000          -0.892465          -24.28521
     23       2.00000          -0.873041          -23.75667
     24       2.00000          -0.841023          -22.88540
     25       2.00000          -0.817483          -22.24485
     26       2.00000          -0.778703          -21.18960
     27       2.00000          -0.756035          -20.57276
     28       2.00000          -0.708138          -19.26940
     29       2.00000          -0.687511          -18.70813
     30       2.00000          -0.679594          -18.49269
     31       2.00000          -0.644672          -17.54243
     32       2.00000          -0.619806          -16.86578
     33       2.00000          -0.614499          -16.72137
     34       2.00000          -0.598463          -16.28501
     35       2.00000          -0.589092          -16.03000
     36       2.00000          -0.579190          -15.76057
     37       2.00000          -0.573214          -15.59794
     38       2.00000          -0.565375          -15.38464
     39       2.00000          -0.560086          -15.24072
     40       2.00000          -0.552374          -15.03086
     41       2.00000          -0.548620          -14.92872
     42       2.00000          -0.538139          -14.64352
     43       2.00000          -0.531986          -14.47609
     44       2.00000          -0.530885          -14.44611
     45       2.00000          -0.523794          -14.25316
     46       2.00000          -0.515920          -14.03889
     47       2.00000          -0.512618          -13.94904
     48       2.00000          -0.505738          -13.76184
     49       2.00000          -0.497054          -13.52551
     50       2.00000          -0.487865          -13.27549
     51       2.00000          -0.477737          -12.99988
     52       2.00000          -0.469664          -12.78019
     53       2.00000          -0.411334          -11.19298
     54       2.00000          -0.405897          -11.04501
     55       2.00000          -0.400281          -10.89220
     56       2.00000          -0.391733          -10.65960
     57       2.00000          -0.382788          -10.41619
     58       2.00000          -0.378659          -10.30384
     59       0.00000          -0.165473           -4.50275
     60       0.00000          -0.162197           -4.41360
     61       0.00000          -0.152599           -4.15243
     62       0.00000          -0.082911           -2.25613
     63       0.00000          -0.063514           -1.72831
     64       0.00000          -0.062455           -1.69949
     65       0.00000          -0.053654           -1.45999
     66       0.00000          -0.045582           -1.24036
     67       0.00000          -0.044083           -1.19956
     68       0.00000          -0.036798           -1.00133
     69       0.00000          -0.031033           -0.84445
     70       0.00000          -0.027858           -0.75806
     71       0.00000          -0.018410           -0.50097
     72       0.00000          -0.014335           -0.39009
     73       0.00000          -0.012549           -0.34148
     74       0.00000          -0.008330           -0.22667
     75       0.00000          -0.003619           -0.09848
     76       0.00000           0.000289            0.00786
     77       0.00000           0.005962            0.16224
     78       0.00000           0.009084            0.24718
     79       0.00000           0.014297            0.38903
     80       0.00000           0.022517            0.61272
     81       0.00000           0.023100            0.62857
     82       0.00000           0.029263            0.79627
     83       0.00000           0.034363            0.93506
     84       0.00000           0.041394            1.12638
     85       0.00000           0.042941            1.16849
     86       0.00000           0.050683            1.37915
     87       0.00000           0.054140            1.47322
     88       0.00000           0.059387            1.61599
     89       0.00000           0.061914            1.68477
     90       0.00000           0.069130            1.88113
     91       0.00000           0.076908            2.09276
     92       0.00000           0.086881            2.36414
     93       0.00000           0.088033            2.39550
     94       0.00000           0.090542            2.46378
     95       0.00000           0.093933            2.55605
     96       0.00000           0.095520            2.59922
     97       0.00000           0.107909            2.93635
     98       0.00000           0.109084            2.96834
     99       0.00000           0.119837            3.26092
    100       0.00000           0.124921            3.39928
    101       0.00000           0.128110            3.48604
    102       0.00000           0.131709            3.58399
    103       0.00000           0.135864            3.69705
    104       0.00000           0.139347            3.79184
    105       0.00000           0.144522            3.93264
    106       0.00000           0.148011            4.02758
    107       0.00000           0.153482            4.17645
    108       0.00000           0.157482            4.28529
    109       0.00000           0.160887            4.37796
    110       0.00000           0.167327            4.55321
    111       0.00000           0.171801            4.67495
    112       0.00000           0.180576            4.91372
    113       0.00000           0.186763            5.08207
    114       0.00000           0.192081            5.22679
    115       0.00000           0.193184            5.25680
    116       0.00000           0.197013            5.36100
    117       0.00000           0.203942            5.54955
    118       0.00000           0.212130            5.77236
    119       0.00000           0.213644            5.81356
    120       0.00000           0.216326            5.88652
    121       0.00000           0.221977            6.04030
    122       0.00000           0.223554            6.08320
    123       0.00000           0.228509            6.21805
    124       0.00000           0.231786            6.30723
    125       0.00000           0.235005            6.39482
    126       0.00000           0.247987            6.74807
    127       0.00000           0.256168            6.97070
    128       0.00000           0.262610            7.14598
    129       0.00000           0.265923            7.23613

  Highest occupied state (VBM) at    -10.30384402 eV
  | Occupation number:      2.00000000

  Lowest unoccupied state (CBM) at    -4.50275485 eV
  | Occupation number:      0.00000000

  Overall HOMO-LUMO gap:      5.80108917 eV.
  Calculating total energy contributions from superposition of free atom densities.

  Total energy components:
  | Sum of eigenvalues            :        -437.89710520 Ha      -11915.78650110 eV
  | XC energy correction          :         -98.81631941 Ha       -2688.92886244 eV
  | XC potential correction       :         127.01573823 Ha        3456.27409050 eV
  | Free-atom electrostatic energy:        -333.59346229 Ha       -9077.53996920 eV
  | Hartree energy correction     :           0.00000000 Ha           0.00000000 eV
  | vdW energy correction         :           0.00000000 Ha           0.00000000 eV
  | Entropy correction            :          -0.00000000 Ha          -0.00000000 eV
  | ---------------------------
  | Total energy                  :        -743.29114868 Ha      -20225.98124223 eV
  | Total energy, T -> 0          :        -743.29114868 Ha      -20225.98124223 eV  <-- do not rely on this value for anything but (periodic) metals
  | Electronic free energy        :        -743.29114868 Ha      -20225.98124223 eV

  Derived energy quantities:
  | Kinetic energy                :         735.15573251 Ha       20004.60530466 eV
  | Electrostatic energy          :       -1379.63056178 Ha      -37541.65768445 eV
  | Energy correction for multipole
  | error in Hartree potential    :           0.00000000 Ha           0.00000000 eV
  | Sum of eigenvalues per atom                           :        -372.36832816 eV
  | Total energy (T->0) per atom                          :        -632.06191382 eV  <-- do not rely on this value for anything but (periodic) metals
  | Electronic free energy per atom                       :        -632.06191382 eV
  Initialize hartree_potential_storage
  Max. number of atoms included in rho_multipole:           32

  End scf initialization - timings             :  max(cpu_time)    wall_clock(cpu1)
  | Time for scf. initialization               :        1.876 s           1.871 s
  | Boundary condition initialization          :        0.000 s           0.000 s
  | Integration                                :        1.100 s           1.095 s
  | Solution of K.-S. eqns.                    :        0.076 s           0.073 s
  | Grid partitioning                          :        0.376 s           0.369 s
  | Preloading free-atom quantities on grid    :        0.028 s           0.027 s
  | Free-atom superposition energy             :        0.040 s           0.038 s
  | Total energy evaluation                    :        0.004 s           0.001 s
------------------------------------------------------------

------------------------------------------------------------
          Begin self-consistency iteration #    1

  Date     :  20170309, Time     :  181728.188
------------------------------------------------------------
  Evaluating new KS density.
  Integration grid: deviation in total charge (<rho> - N_e) =   7.105427E-14
  Pulay mixing of updated and previous charge densities.

  Evaluating partitioned Hartree potential by multipole expansion.
  | Analytical far-field extrapolation by fixed multipoles:
  | Hartree multipole sum: apparent total charge =   0.286355E-04
  Summing up the Hartree potential.
  Time summed over all CPUs for potential: real work        9.479 s, elapsed        9.737 s
  | RMS charge density error from multipole expansion :   0.107014E-01

  Integrating Hamiltonian matrix: batch-based integration.
  Time summed over all CPUs for integration: real work       20.114 s, elapsed       21.301 s

  Updating Kohn-Sham eigenvalues, eigenvectors, occupation numbers, and Fermi level.
  Solving generalized eigenproblem
  Solving real symmetric generalised eigenvalue problem by standard ScaLAPACK.
  Using Cholesky factor for transformation
  Using 2-stage real ELPA solver
  K-Point:    1, Trafo times: 1-stage=     0.021 s, 2-stage=     0.019 s ==> Using 2-stage solver
  Determining occupation numbers for Kohn-Sham eigenstates.
  | Chemical potential (Fermi level) in eV                 : -.39788956E+01
  | Error in electron count due to remaining E_F inaccuracy: 0.00000000E+00
  | Maximum occupation number of highest empty state:  0.00E+00

  Writing Kohn-Sham eigenvalues.

  State    Occupation    Eigenvalue [Ha]    Eigenvalue [eV]
      1       2.00000         -18.636161         -507.11576
      2       2.00000         -18.604297         -506.24869
      3       2.00000         -18.602576         -506.20184
      4       2.00000         -14.007911         -381.17465
      5       2.00000         -13.981175         -380.44713
      6       2.00000         -13.977251         -380.34034
      7       2.00000         -10.067653         -273.95479
      8       2.00000         -10.043388         -273.29450
      9       2.00000         -10.042263         -273.26388
     10       2.00000          -9.961964         -271.07882
     11       2.00000          -9.961130         -271.05613
     12       2.00000          -9.898357         -269.34801
     13       2.00000          -9.849258         -268.01194
     14       2.00000          -9.842234         -267.82083
     15       2.00000          -9.839208         -267.73848
     16       2.00000          -0.978479          -26.62576
     17       2.00000          -0.951769          -25.89895
     18       2.00000          -0.947244          -25.77583
     19       2.00000          -0.880880          -23.96997
     20       2.00000          -0.856533          -23.30746
     21       2.00000          -0.851013          -23.15725
     22       2.00000          -0.750943          -20.43421
     23       2.00000          -0.721773          -19.64043
     24       2.00000          -0.681515          -18.54497
     25       2.00000          -0.675648          -18.38532
     26       2.00000          -0.637876          -17.35750
     27       2.00000          -0.619599          -16.86016
     28       2.00000          -0.581204          -15.81538
     29       2.00000          -0.558078          -15.18609
     30       2.00000          -0.551545          -15.00830
     31       2.00000          -0.513468          -13.97218
     32       2.00000          -0.478071          -13.00897
     33       2.00000          -0.468746          -12.75523
     34       2.00000          -0.461497          -12.55798
     35       2.00000          -0.447299          -12.17162
     36       2.00000          -0.438606          -11.93508
     37       2.00000          -0.436428          -11.87580
     38       2.00000          -0.428548          -11.66138
     39       2.00000          -0.413597          -11.25455
     40       2.00000          -0.405443          -11.03267
     41       2.00000          -0.398578          -10.84585
     42       2.00000          -0.392074          -10.66888
     43       2.00000          -0.387131          -10.53437
     44       2.00000          -0.382940          -10.42034
     45       2.00000          -0.371811          -10.11750
     46       2.00000          -0.366997           -9.98650
     47       2.00000          -0.364291           -9.91285
     48       2.00000          -0.356457           -9.69968
     49       2.00000          -0.348485           -9.48275
     50       2.00000          -0.344213           -9.36651
     51       2.00000          -0.333908           -9.08609
     52       2.00000          -0.322071           -8.76400
     53       2.00000          -0.254217           -6.91758
     54       2.00000          -0.232478           -6.32604
     55       2.00000          -0.224681           -6.11389
     56       2.00000          -0.222025           -6.04160
     57       2.00000          -0.203018           -5.52441
     58       2.00000          -0.201198           -5.47488
     59       0.00000          -0.056768           -1.54472
     60       0.00000          -0.045396           -1.23528
     61       0.00000          -0.039421           -1.07270
     62       0.00000          -0.031794           -0.86515
     63       0.00000          -0.023145           -0.62980
     64       0.00000          -0.016219           -0.44133
     65       0.00000          -0.011616           -0.31608
     66       0.00000          -0.001327           -0.03610
     67       0.00000           0.007353            0.20009
     68       0.00000           0.018702            0.50890
     69       0.00000           0.021357            0.58115
     70       0.00000           0.029799            0.81086
     71       0.00000           0.030931            0.84167
     72       0.00000           0.036671            0.99786
     73       0.00000           0.040045            1.08967
     74       0.00000           0.047520            1.29308
     75       0.00000           0.053247            1.44893
     76       0.00000           0.056436            1.53571
     77       0.00000           0.069786            1.89897
     78       0.00000           0.073211            1.99217
     79       0.00000           0.079919            2.17471
     80       0.00000           0.081726            2.22387
     81       0.00000           0.088583            2.41047
     82       0.00000           0.091119            2.47947
     83       0.00000           0.100280            2.72876
     84       0.00000           0.103856            2.82605
     85       0.00000           0.110544            3.00806
     86       0.00000           0.115115            3.13245
     87       0.00000           0.116535            3.17108
     88       0.00000           0.122926            3.34500
     89       0.00000           0.124802            3.39604
     90       0.00000           0.136524            3.71500
     91       0.00000           0.143948            3.91702
     92       0.00000           0.150380            4.09205
     93       0.00000           0.155823            4.24016
     94       0.00000           0.159105            4.32947
     95       0.00000           0.162453            4.42057
     96       0.00000           0.164876            4.48651
     97       0.00000           0.172045            4.68159
     98       0.00000           0.175677            4.78041
     99       0.00000           0.185381            5.04448
    100       0.00000           0.187467            5.10123
    101       0.00000           0.192535            5.23915
    102       0.00000           0.195540            5.32092
    103       0.00000           0.198715            5.40731
    104       0.00000           0.201574            5.48509
    105       0.00000           0.205879            5.60226
    106       0.00000           0.208979            5.68660
    107       0.00000           0.212542            5.78357
    108       0.00000           0.218936            5.95754
    109       0.00000           0.225492            6.13594
    110       0.00000           0.228789            6.22566
    111       0.00000           0.234011            6.36776
    112       0.00000           0.240989            6.55765
    113       0.00000           0.245216            6.67266
    114       0.00000           0.249215            6.78149
    115       0.00000           0.250236            6.80926
    116       0.00000           0.260702            7.09407
    117       0.00000           0.262560            7.14462
    118       0.00000           0.267533            7.27994
    119       0.00000           0.270972            7.37352
    120       0.00000           0.278287            7.57257
    121       0.00000           0.284300            7.73620
    122       0.00000           0.287497            7.82320
    123       0.00000           0.298780            8.13023
    124       0.00000           0.304396            8.28302
    125       0.00000           0.311337            8.47191
    126       0.00000           0.315325            8.58044
    127       0.00000           0.326499            8.88448
    128       0.00000           0.332354            9.04381
    129       0.00000           0.335510            9.12970

  Highest occupied state (VBM) at     -5.47488014 eV
  | Occupation number:      2.00000000

  Lowest unoccupied state (CBM) at    -1.54472368 eV
  | Occupation number:      0.00000000

  Overall HOMO-LUMO gap:      3.93015646 eV.

  Total energy components:
  | Sum of eigenvalues            :        -417.51440800 Ha      -11361.14509026 eV
  | XC energy correction          :        -100.75665540 Ha       -2741.72809100 eV
  | XC potential correction       :         129.53240733 Ha        3524.75614102 eV
  | Free-atom electrostatic energy:        -333.59346229 Ha       -9077.53996920 eV
  | Hartree energy correction     :         -20.38607646 Ha        -554.73336494 eV
  | vdW energy correction         :           0.00000000 Ha           0.00000000 eV
  | Entropy correction            :           0.00000000 Ha           0.00000000 eV
  | ---------------------------
  | Total energy                  :        -742.71819482 Ha      -20210.39037439 eV
  | Total energy, T -> 0          :        -742.71819482 Ha      -20210.39037439 eV  <-- do not rely on this value for anything but (periodic) metals
  | Electronic free energy        :        -742.71819482 Ha      -20210.39037439 eV

  Derived energy quantities:
  | Kinetic energy                :         744.06516353 Ha       20247.04325778 eV
  | Electrostatic energy          :       -1386.02670295 Ha      -37715.70554116 eV
  | Energy correction for multipole
  | error in Hartree potential    :          -0.04140001 Ha          -1.12655150 eV
  | Sum of eigenvalues per atom                           :        -355.03578407 eV
  | Total energy (T->0) per atom                          :        -631.57469920 eV  <-- do not rely on this value for anything but (periodic) metals
  | Electronic free energy per atom                       :        -631.57469920 eV

  Self-consistency convergence accuracy:
  | Change of charge density      :  0.9032E+00
  | Change of sum of eigenvalues  :  0.5546E+03 eV
  | Change of total energy        :  0.1559E+02 eV

  End self-consistency iteration #     1       :  max(cpu_time)    wall_clock(cpu1)
  | Time for this iteration                    :        1.496 s           1.494 s
  | Charge density update                      :        0.472 s           0.470 s
[...]
   ----------------------------------------------------------------
   Total forces(  20)            :  0.126229E-02  0.376302E-04  0.414828E-03
  atom #   21
   Hellmann-Feynman              : -0.293432E-01  0.198812E-01 -0.129024E-01
   Ionic forces                  :  0.000000E+00  0.000000E+00  0.000000E+00
   Multipole                     : -0.141118E-01  0.291749E-02  0.117108E-01
   Pulay + GGA                   :  0.480471E-01 -0.316048E-01 -0.202629E-02
   Van der Waals                 : -0.593284E-02  0.955350E-02  0.402740E-02
   ----------------------------------------------------------------
   Total forces(  21)            : -0.134071E-02  0.747368E-03  0.809528E-03
  atom #   22
   Hellmann-Feynman              :  0.241059E-01  0.124259E-01  0.540811E-01
   Ionic forces                  :  0.000000E+00  0.000000E+00  0.000000E+00
   Multipole                     :  0.978824E-02  0.100774E-02  0.272066E-02
   Pulay + GGA                   : -0.316862E-01 -0.155386E-01 -0.574608E-01
   Van der Waals                 : -0.179205E-02  0.182460E-02  0.239288E-02
   ----------------------------------------------------------------
   Total forces(  22)            :  0.415933E-03 -0.280389E-03  0.173381E-02
  atom #   23
   Hellmann-Feynman              : -0.115370E+00 -0.103495E+01  0.255708E+00
   Ionic forces                  :  0.000000E+00  0.000000E+00  0.000000E+00
   Multipole                     : -0.766791E-01  0.252000E+00 -0.133473E+00
   Pulay + GGA                   :  0.181380E+00  0.777162E+00 -0.121825E+00
   Van der Waals                 :  0.112183E-01  0.710123E-02 -0.417148E-03
   ----------------------------------------------------------------
   Total forces(  23)            :  0.548636E-03  0.131751E-02 -0.714663E-05
  atom #   24
   Hellmann-Feynman              :  0.716395E-02  0.641174E-01 -0.262048E-01
   Ionic forces                  :  0.000000E+00  0.000000E+00  0.000000E+00
   Multipole                     :  0.315645E-01 -0.225594E-01  0.168263E-02
   Pulay + GGA                   : -0.443693E-01 -0.376735E-01  0.224072E-01
   Van der Waals                 :  0.574586E-02 -0.367132E-02  0.193071E-02
   ----------------------------------------------------------------
   Total forces(  24)            :  0.104978E-03  0.213217E-03 -0.184197E-03
  atom #   25
   Hellmann-Feynman              : -0.412361E-01  0.741897E-02 -0.178613E-01
   Ionic forces                  :  0.000000E+00  0.000000E+00  0.000000E+00
   Multipole                     : -0.124083E-01 -0.801065E-02 -0.212383E-01
   Pulay + GGA                   :  0.563283E-01  0.517045E-02  0.326679E-01
   Van der Waals                 : -0.316511E-02 -0.489561E-02  0.646392E-02
   ----------------------------------------------------------------
   Total forces(  25)            : -0.481169E-03 -0.316842E-03  0.321395E-04
  atom #   26
   Hellmann-Feynman              : -0.344532E-01  0.402376E-01  0.644866E-02
   Ionic forces                  :  0.000000E+00  0.000000E+00  0.000000E+00
   Multipole                     :  0.298737E-02 -0.564876E-02  0.329730E-01
   Pulay + GGA                   :  0.345185E-01 -0.277810E-01 -0.422437E-01
   Van der Waals                 : -0.292786E-02 -0.675175E-02  0.356211E-02
   ----------------------------------------------------------------
   Total forces(  26)            :  0.124858E-03  0.561484E-04  0.740087E-03
  atom #   27
   Hellmann-Feynman              : -0.159371E+01 -0.444502E+00  0.104965E+00
   Ionic forces                  :  0.000000E+00  0.000000E+00  0.000000E+00
   Multipole                     : -0.137108E+00 -0.637964E-01 -0.266577E-01
   Pulay + GGA                   :  0.172740E+01  0.506461E+00 -0.689659E-01
   Van der Waals                 :  0.160165E-02  0.519965E-04 -0.985442E-02
   ----------------------------------------------------------------
   Total forces(  27)            : -0.181194E-02 -0.178607E-02 -0.513123E-03
  atom #   28
   Hellmann-Feynman              :  0.207299E+01  0.278252E+00  0.573556E+00
   Ionic forces                  :  0.000000E+00  0.000000E+00  0.000000E+00
   Multipole                     : -0.121257E+00 -0.508819E-01 -0.118648E-01
   Pulay + GGA                   : -0.196338E+01 -0.229108E+00 -0.547261E+00
   Van der Waals                 :  0.919092E-02  0.127301E-02 -0.147033E-01
   ----------------------------------------------------------------
   Total forces(  28)            : -0.245242E-02 -0.464668E-03 -0.273203E-03
  atom #   29
   Hellmann-Feynman              : -0.154422E-01 -0.328424E-01 -0.618193E-01
   Ionic forces                  :  0.000000E+00  0.000000E+00  0.000000E+00
   Multipole                     :  0.420584E-01  0.348215E-02  0.160697E-01
   Pulay + GGA                   : -0.262820E-01  0.346804E-01  0.526544E-01
   Van der Waals                 :  0.123564E-02 -0.494321E-02 -0.818218E-02
   ----------------------------------------------------------------
   Total forces(  29)            :  0.156989E-02  0.376898E-03 -0.127742E-02
  atom #   30
   Hellmann-Feynman              : -0.482299E-01 -0.136258E-01 -0.333746E-01
   Ionic forces                  :  0.000000E+00  0.000000E+00  0.000000E+00
   Multipole                     :  0.358249E-01  0.243017E-02 -0.225814E-01
   Pulay + GGA                   :  0.123063E-01  0.136489E-01  0.623567E-01
   Van der Waals                 :  0.111348E-03 -0.315079E-02 -0.727990E-02
   ----------------------------------------------------------------
   Total forces(  30)            :  0.127197E-04 -0.697563E-03 -0.879129E-03
  atom #   31
   Hellmann-Feynman              : -0.498372E-01 -0.117979E-01  0.431476E-02
   Ionic forces                  :  0.000000E+00  0.000000E+00  0.000000E+00
   Multipole                     :  0.224683E-02 -0.256067E-01  0.148215E-01
   Pulay + GGA                   :  0.528384E-01  0.390150E-01 -0.220774E-01
   Van der Waals                 : -0.548238E-02 -0.236093E-02  0.316584E-02
   ----------------------------------------------------------------
   Total forces(  31)            : -0.234376E-03 -0.750587E-03  0.224695E-03
  atom #   32
   Hellmann-Feynman              : -0.571922E-01  0.213850E-01  0.106018E-01
   Ionic forces                  :  0.000000E+00  0.000000E+00  0.000000E+00
   Multipole                     :  0.533371E-02  0.286981E-01 -0.476778E-02
   Pulay + GGA                   :  0.370498E-01 -0.586895E-01 -0.118165E-01
   Van der Waals                 :  0.135806E-01  0.961133E-02  0.553679E-02
   ----------------------------------------------------------------
   Total forces(  32)            : -0.122811E-02  0.100489E-02 -0.445712E-03

  Timings for VdW correction (Tkatchenko-Scheffler 2009 or later):
  | CPU time:        0.124 s, Wall clock time:        0.121 s.
  Removing unitary transformations (pure translations, rotations) from forces on atoms.
  Atomic forces before filtering:
  | Net force on center of mass :   0.473914E-03  0.235364E-03 -0.501710E-03 eV/A
  | Net torque on center of mass:   0.473529E-03  0.232883E-03  0.444174E-03 eV
  Atomic forces after filtering:
  | Net force on center of mass :   0.174225E-18  0.156802E-17 -0.871124E-18 eV/A
  | Net torque on center of mass:   0.590053E-17 -0.223575E-17  0.368783E-17 eV

  Energy and forces in a compact form:
  | Total energy uncorrected      :         -0.202086921258310E+05 eV
  | Total energy corrected        :         -0.202086921258310E+05 eV  <-- do not rely on this value for anything but (periodic) metals
  | Electronic free energy        :         -0.202086921258310E+05 eV
  Total atomic forces (unitary forces cleaned) [eV/Ang]:
  |   1         -0.348485181481532E-03          0.435541871791262E-03         -0.112252965804281E-03
  |   2          0.261845659036182E-02         -0.295910798523639E-02          0.161094783628790E-03
  |   3         -0.278090236054706E-02          0.245829851396371E-02          0.160039036183807E-03
  |   4          0.138761195961281E-03          0.523339505263936E-03          0.254756276475225E-03
  |   5         -0.467353138386310E-03          0.458342620034996E-03         -0.281398808651553E-04
  |   6          0.168588304611336E-03          0.236689546287256E-03         -0.351143493190106E-03
  |   7          0.889721701770626E-03          0.779237443768910E-03          0.103880680050303E-02
  |   8          0.396510037133044E-02          0.706117151420557E-03         -0.514238302104022E-03
  |   9         -0.426598377810874E-02         -0.212926804122228E-02          0.134190971329259E-02
  |  10          0.217025318551464E-02         -0.684250775474808E-03         -0.119670172095340E-02
  |  11          0.693325681716599E-03         -0.105440687717362E-02         -0.984269881960897E-03
  |  12         -0.138310668928061E-03          0.477648557428868E-03          0.376785358269616E-03
  |  13         -0.110518062040898E-02         -0.998512461209111E-03         -0.144021147689146E-02
  |  14          0.570355276405221E-03          0.584524998105812E-03         -0.389385946666945E-03
  |  15          0.580324838271000E-03         -0.609076177745234E-03         -0.241917368965379E-03
  |  16         -0.244193470361836E-03          0.261546696242888E-03          0.923072702006117E-04
  |  17         -0.100029501952503E-03          0.269889448691470E-02         -0.156833633779594E-02
  |  18         -0.245698590584550E-03         -0.613728627751584E-03          0.523660852432100E-03
  |  19          0.164799763545048E-02          0.642915979447508E-05          0.228305306825359E-02
  |  20          0.124498269602774E-02          0.382385725658317E-04          0.429087234047607E-03
  |  21         -0.135820107454992E-02          0.739839338308922E-03          0.827953223696378E-03
  |  22          0.398867793164569E-03         -0.284265447507478E-03          0.175002216118220E-02
  |  23          0.528522131970225E-03          0.131409026718615E-02          0.118774775710210E-04
  |  24          0.840443308165663E-04          0.211686664172691E-03         -0.165285280232579E-03
  |  25         -0.501995204377356E-03         -0.320144193020130E-03          0.518120114633987E-04
  |  26          0.104439925839730E-03          0.510376496060700E-04          0.760239301338197E-03
  |  27         -0.182914138565628E-02         -0.178690653235102E-02         -0.498264589901639E-03
  |  28         -0.246965642720464E-02         -0.467277977540283E-03         -0.257440565041669E-03
  |  29          0.155294596894000E-02          0.377855544039464E-03         -0.126369238052804E-02
  |  30         -0.495618858046691E-05         -0.698915635413356E-03         -0.863541637632579E-03
  |  31         -0.250044824491356E-03         -0.754733259804005E-03          0.239655385894023E-03
  |  32         -0.124655521253271E-02          0.100123540455281E-02         -0.428238125898091E-03

  ------------------------------------ 
  Start decomposition of the XC Energy 
  ------------------------------------ 
  Hartree-Fock part   :          0.000000000 Ha              0.000000000 eV
  ------------------------------------ 
  X Energy            :        -96.986940875 Ha          -2639.148939624 eV
  C Energy GGA        :         -3.867290902 Ha           -105.234339721 eV
  Total XC Energy     :       -100.854231777 Ha          -2744.383279344 eV
  LDA X and C from self-consistent density 
  X Energy LDA        :        -88.001261695 Ha          -2394.636168478 eV
  C Energy LDA        :         -7.531556641 Ha           -204.944083647 eV
  ------------------------------------ 
  End decomposition of the XC Energy 
  ------------------------------------ 
   
  ESP charge fitting starts.
  | Calculation :  00000001  of  00000001
  | Full density
  Computing multipole expansion for total density.
  Generating points for esp charges.
  Partitioning the integration grid into batches with parallel hashing+maxmin method.
  | Number of batches:     3920
  | Maximal batch size:     198
  | Minimal batch size:      51
  | Average batch size:     124.686
  | Standard deviation of batch sizes:      15.363

  Integration load balanced across    32 MPI tasks.
  Work distribution over tasks is as follows:
  Initializing partition tables, free-atom densities, potentials, etc. across the integration grid (initialize_grid_storage).
  | Original list of interatomic distances with          32 x         32 entries is created.
  | Net number of integration points:   488768
  | of which are non-zero points    :   488768
  Summing up potential from multipole expanded  density.
  Summing up the Hartree potential.
  Time summed over all CPUs for potential: real work        6.286 s, elapsed        6.634 s
  Fitting esp charges to potential.
  |
  | ESP charges fitted to the electrostatic potential :
  |
  | Atom         1: C, ESP charge:      0.90117289
  |
  | Atom         2: C, ESP charge:     -0.66725421
  |
  | Atom         3: O, ESP charge:      0.55472671
  |
  | Atom         4: H, ESP charge:     -0.25338228
  |
  | Atom         5: H, ESP charge:     -0.25150864
  |
  | Atom         6: H, ESP charge:     -0.24299367
  |
  | Atom         7: N, ESP charge:      0.38481921
  |
  | Atom         8: C, ESP charge:     -0.57780853
  |
  | Atom         9: C, ESP charge:     -0.06462583
  |
  | Atom        10: O, ESP charge:      0.33999844
  |
  | Atom        11: H, ESP charge:     -0.17930517
  |
  | Atom        12: H, ESP charge:      0.06353708
  |
  | Atom        13: C, ESP charge:      0.46071122
  |
  | Atom        14: H, ESP charge:     -0.08645471
  |
  | Atom        15: H, ESP charge:     -0.09624016
  |
  | Atom        16: H, ESP charge:     -0.13913482
  |
  | Atom        17: N, ESP charge:      0.30968535
  |
  | Atom        18: C, ESP charge:     -0.31772508
  |
  | Atom        19: C, ESP charge:     -0.12685974
  |
  | Atom        20: O, ESP charge:      0.44865874
  |
  | Atom        21: H, ESP charge:     -0.27182646
  |
  | Atom        22: H, ESP charge:     -0.10239479
  |
  | Atom        23: C, ESP charge:      0.75840979
  |
  | Atom        24: H, ESP charge:     -0.25007000
  |
  | Atom        25: H, ESP charge:     -0.21180560
  |
  | Atom        26: H, ESP charge:     -0.18826253
  |
  | Atom        27: N, ESP charge:      0.14977512
  |
  | Atom        28: C, ESP charge:      0.25471300
  |
  | Atom        29: H, ESP charge:     -0.27272393
  |
  | Atom        30: H, ESP charge:     -0.10956343
  |
  | Atom        31: H, ESP charge:     -0.13143058
  |
  | Atom        32: H, ESP charge:     -0.08483740

  RRMS:       0.00415437

  Done.

------------------------------------------------------------------------------
  Final output of selected total energy values:

  The following output summarizes some interesting total energy values
  at the end of a run (AFTER all relaxation, molecular dynamics, etc.).

  | Total energy of the DFT / Hartree-Fock s.c.f. calculation      :         -20208.692125831 eV
  | Final zero-broadening corrected energy (caution - metals only) :         -20208.692125831 eV
  | For reference only, the value of 1 Hartree used in FHI-aims is :             27.211384500 eV

  Before relying on these values, please be sure to understand exactly which
  total energy value is referred to by a given number. Different objects may
  all carry the same name 'total energy'. Definitions:

  Total energy of the DFT / Hartree-Fock s.c.f. calculation:
  | Note that this energy does not include ANY quantities calculated after the
  | s.c.f. cycle, in particular not ANY RPA, MP2, etc. many-body perturbation terms.

  Final zero-broadening corrected energy:
  | For metallic systems only, a broadening of the occupation numbers at the Fermi
  | level can be extrapolated back to zero broadening by an electron-gas inspired
  | formula. For all systems that are not real metals, this value can be
  | meaningless and should be avoided.

------------------------------------------------------------------------------
  Methods described in the following list of references were used in this FHI-aims run.
  If you publish the results, please make sure to cite these reference if they apply.
  FHI-aims is an academic code, and for our developers (often, Ph.D. students
  and postdocs), scientific credit in the community is essential.
  Thank you for helping us!

  For any use of FHI-aims, please cite:

    Volker Blum, Ralf Gehrke, Felix Hanke, Paula Havu, Ville Havu,
    Xinguo Ren, Karsten Reuter, and Matthias Scheffler
    'Ab initio molecular simulations with numeric atom-centered orbitals'
    Computer Physics Communications 180, 2175-2196 (2009)
    http://dx.doi.org/10.1016/j.cpc.2009.06.022


  The scalable eigensolver library ELPA was used in your run.
  ELPA is essential especially for large systems on hundreds or thousands of CPUs.
  For ELPA, please cite:

    Andreas Marek, Volker Blum, Rainer Johanni, Ville Havu, Bruno Lang,
    Thomas Auckenthaler, Alexander Heinecke, Hans-Joachim Bungartz, and Hermann Lederer,
    'The ELPA Library - Scalable Parallel Eigenvalue Solutions
    for Electronic Structure Theory and Computational Science'
    The Journal of Physics: Condensed Matter 26, 213201 (2014).
    http://dx.doi.org/10.1088/0953-8984/26/21/213201


  For ELPA's efficient two-stage tridiagonalization used in your run, please cite:

    T. Auckenthaler, V. Blum, H.-J. Bungartz, T. Huckle, R. Johanni, L. Kraemer,
    B. Lang, H. Lederer, and P. R. Willems,
    'Parallel solution of partial symmetric eigenvalue problems'
    'from  electronic structure calculations'
    Parallel Computing 37, 783-794 (2011).
    http://dx.doi.org/10.1016/j.parco.2011.05.002


  For the real-space grid partitioning and parallelization used in this calculation, please cite:

    Ville Havu, Volker Blum, Paula Havu, and Matthias Scheffler,
    'Efficient O(N) integration for all-electron electronic structure calculation'
    'using numerically tabulated basis functions'
    Journal of Computational Physics 228, 8367-8379 (2009).
    http://dx.doi.org/10.1016/j.jcp.2009.08.008

  Of course, there are many other important community references, e.g., those cited in the
  above references. Our list is limited to references that describe implementations in the
  FHI-aims code. The reason is purely practical (length of this list) - please credit others as well.

------------------------------------------------------------
          Leaving FHI-aims.
          Date     :  20170309, Time     :  181755.353

          Computational steps:
          | Number of self-consistency cycles          :           14

          Detailed time accounting                     :  max(cpu_time)    wall_clock(cpu1)
          | Total time                                 :       29.898 s          30.047 s
          | Preparation time                           :        0.240 s           0.239 s
          | Grid partitioning                          :        0.376 s           0.369 s
          | Preloading free-atom quantities on grid    :        0.028 s           0.027 s
          | Free-atom superposition energy             :        0.040 s           0.038 s
          | Total time for integrations                :       10.601 s          10.573 s
          | Total time for solution of K.-S. equations :        0.528 s           0.490 s
          | Total time for density & force components  :        9.453 s           9.438 s
          | Total time for mixing                      :        0.128 s           0.104 s
          | Total time for Hartree multipole update    :        0.068 s           0.057 s
          | Total time for Hartree multipole sum       :        6.436 s           6.402 s
          | Total time for total energy evaluation     :        0.040 s           0.016 s
          | Total time for vdW correction              :        0.124 s           0.121 s

          Have a nice day.
------------------------------------------------------------
