  MPI-parallelism will be employed.
------------------------------------------------------------
          Invoking FHI-aims ...
          Version 150427
          Git rev.: 9dd23e0 BL: Update Version stamp
          Compiled on 2015/11/03 at 22:05:20 on host eos03.

          When using FHI-aims, please cite the following reference:

          Volker Blum, Ralf Gehrke, Felix Hanke, Paula Havu,
          Ville Havu, Xinguo Ren, Karsten Reuter, and Matthias Scheffler,
          'Ab Initio Molecular Simulations with Numeric Atom-Centered Orbitals: FHI-aims',
          Computer Physics Communications 180, 2175-2196 (2009)

          For any questions about FHI-aims, please visit the aimsclub website
          with its forums and wiki. Contributions to both the forums and the
          wiki are warmly encouraged - they are for you, and everyone is welcome there.

------------------------------------------------------------

  Date     :  20170309, Time     :  185555.635
  Time zero on CPU 1             :   0.372022000000000E+00  s.
  Internal wall clock time zero  :           258317755.635  s.

  Using       32 parallel tasks.
  Task        0 on host eos026 reporting.
  Task        1 on host eos026 reporting.
  Task        2 on host eos026 reporting.
  Task        3 on host eos026 reporting.
  Task        4 on host eos026 reporting.
  Task        5 on host eos026 reporting.
  Task        6 on host eos026 reporting.
  Task        7 on host eos026 reporting.
  Task        8 on host eos026 reporting.
  Task        9 on host eos026 reporting.
  Task       10 on host eos026 reporting.
  Task       11 on host eos026 reporting.
  Task       12 on host eos026 reporting.
  Task       13 on host eos026 reporting.
  Task       14 on host eos026 reporting.
  Task       15 on host eos026 reporting.
  Task       16 on host eos026 reporting.
  Task       17 on host eos026 reporting.
  Task       18 on host eos026 reporting.
  Task       19 on host eos026 reporting.
  Task       20 on host eos026 reporting.
  Task       21 on host eos026 reporting.
  Task       22 on host eos026 reporting.
  Task       23 on host eos026 reporting.
  Task       24 on host eos026 reporting.
  Task       25 on host eos026 reporting.
  Task       26 on host eos026 reporting.
  Task       27 on host eos026 reporting.
  Task       28 on host eos026 reporting.
  Task       29 on host eos026 reporting.
  Task       30 on host eos026 reporting.
  Task       31 on host eos026 reporting.

  Performing system and environment tests:
  | Environment variable OMP_NUM_THREADS correctly set to 1.
  | Stacksize not measured: no C compiler
  | Checking for scalapack...
  | Testing pdtran()...
  | All pdtran() tests passed.

  Obtaining array dimensions for all initial allocations:
  
  -----------------------------------------------------------------------
  Parsing control.in (first pass over file, find array dimensions only).
  The contents of control.in will be repeated verbatim below
  unless switched off by setting 'verbatim_writeout .false.' .
  in the first line of control.in .
  -----------------------------------------------------------------------
  
  #########################################################################################
  #
  # Input for System
  #
  #########################################################################################
  #
  #
  #  Physical model
  #
    xc                 pbe
    vdw_correction_hirshfeld
    spin               none
    charge             0.
  #
  #  SCF convergence
  #
    occupation_type    gaussian 0.05
    mixer              pulay
      n_max_pulay        10
      charge_mix_param   0.5
    sc_accuracy_rho    1E-4
    sc_accuracy_eev    1E-2
    sc_accuracy_etot   1E-5
    sc_accuracy_forces 1E-4
    sc_iter_limit      1000
  #
  #  ESP charge
  #
    output esp
    esp equal_grid_n 80 80 80
  #
  #
  ################################################################################
  #
  #  FHI-aims code project
  # Volker Blum, Fritz Haber Institute Berlin, 2009
  #
  #  Suggested "tight" defaults for H atom (to be pasted into control.in file)
  #
  ################################################################################
    species        H
  #     global species definitions
      nucleus             1
      mass                1.00794
  #
      l_hartree           6
  #
      cut_pot             4.0  2.0  1.0
      basis_dep_cutoff    1e-4
  #
      radial_base         24 7.0
      radial_multiplier   2
      angular_grids       specified
        division   0.1930   50
        division   0.3175  110
        division   0.4293  194
        division   0.5066  302
        division   0.5626  434
  #      division   0.5922  590
  #      division   0.6227  974
  #      division   0.6868 1202
  #      outer_grid  770
        outer_grid  434
  ################################################################################
  #
  #  Definition of "minimal" basis
  #
  ################################################################################
  #     valence basis states
      valence      1  s   1.
  #     ion occupancy
      ion_occ      1  s   0.5
  ################################################################################
  #
  #  Suggested additional basis functions. For production calculations,
  #  uncomment them one after another (the most important basis functions are
  #  listed first).
  #
  #  Basis constructed for dimers: 0.5 A, 0.7 A, 1.0 A, 1.5 A, 2.5 A
  #
  ################################################################################
  #  "First tier" - improvements: -1014.90 meV to -62.69 meV
       hydro 2 s 2.1
       hydro 2 p 3.5
  #  "Second tier" - improvements: -12.89 meV to -1.83 meV
       hydro 1 s 0.85
       hydro 2 p 3.7
       hydro 2 s 1.2
       hydro 3 d 7
  #  "Third tier" - improvements: -0.25 meV to -0.12 meV
  #     hydro 4 f 11.2
  #     hydro 3 p 4.8
  #     hydro 4 d 9
  #     hydro 3 s 3.2
  ################################################################################
  #
  # For methods that use the localized form of the "resolution of identity" for
  # the two-electron Coulomb operator (RI_method LVL), particularly Hartree-Fock and
  # hybrid density functional calculations, the highest accuracy can be obtained by
  # uncommenting the line beginning with "for_aux"  below, thus adding an extra g radial
  # function to the construction of the product basis set for the expansion.
  # See Ref. New J. Phys. 17, 093020 (2015) for more information, particularly Figs. 1 and 6.
  #
  ################################################################################
  #
  # for_aux hydro 5 g 6.0
  ################################################################################
  #
  #  FHI-aims code project
  # Volker Blum, Fritz Haber Institute Berlin, 2009
  #
  #  Suggested "tight" defaults for C atom (to be pasted into control.in file)
  #
  ################################################################################
    species        C
  #     global species definitions
      nucleus             6
      mass                12.0107
  #
      l_hartree           6
  #
      cut_pot             4.0  2.0  1.0
      basis_dep_cutoff    1e-4
  #
      radial_base         34 7.0
      radial_multiplier   2
      angular_grids specified
        division   0.2187   50
        division   0.4416  110
        division   0.6335  194
        division   0.7727  302
        division   0.8772  434
  #      division   0.9334  590
  #      division   0.9924  770
  #      division   1.0230  974
  #      division   1.5020 1202
  #     outer_grid  974
        outer_grid  434
  ################################################################################
  #
  #  Definition of "minimal" basis
  #
  ################################################################################
  #     valence basis states
      valence      2  s   2.
      valence      2  p   2.
  #     ion occupancy
      ion_occ      2  s   1.
      ion_occ      2  p   1.
  ################################################################################
  #
  #  Suggested additional basis functions. For production calculations,
  #  uncomment them one after another (the most important basis functions are
  #  listed first).
  #
  #  Constructed for dimers: 1.0 A, 1.25 A, 1.5 A, 2.0 A, 3.0 A
  #
  ################################################################################
  #  "First tier" - improvements: -1214.57 meV to -155.61 meV
       hydro 2 p 1.7
       hydro 3 d 6
       hydro 2 s 4.9
  #  "Second tier" - improvements: -67.75 meV to -5.23 meV
       hydro 4 f 9.8
       hydro 3 p 5.2
       hydro 3 s 4.3
       hydro 5 g 14.4
       hydro 3 d 6.2
  #  "Third tier" - improvements: -2.43 meV to -0.60 meV
  #     hydro 2 p 5.6
  #     hydro 2 s 1.4
  #     hydro 3 d 4.9
  #     hydro 4 f 11.2
  #  "Fourth tier" - improvements: -0.39 meV to -0.18 meV
  #     hydro 2 p 2.1
  #     hydro 5 g 16.4
  #     hydro 4 d 13.2
  #     hydro 3 s 13.6
  #     hydro 4 f 17.6
  #  Further basis functions - improvements: -0.08 meV and below
  #     hydro 3 s 2
  #     hydro 3 p 6
  #     hydro 4 d 20
  ################################################################################
  #
  # For methods that use the localized form of the "resolution of identity" for
  # the two-electron Coulomb operator (RI_method LVL), particularly Hartree-Fock and
  # hybrid density functional calculations, the highest accuracy can be obtained by
  # uncommenting the line beginning with "for_aux"  below, thus adding an extra g radial
  # function to the construction of the product basis set for the expansion.
  # See Ref. New J. Phys. 17, 093020 (2015) for more information, particularly Figs. 1 and 6.
  #
  ################################################################################
  #
  # for_aux hydro 5 g 6.0
  ################################################################################
  #
  #  FHI-aims code project
  # Volker Blum, Fritz Haber Institute Berlin, 2009
  #
  #  Suggested "tight" defaults for N atom (to be pasted into control.in file)
  #
  ################################################################################
    species        N
  #     global species definitions
      nucleus             7
      mass                14.0067
  #
      l_hartree           6
  #
      cut_pot             4.0  2.0  1.0
      basis_dep_cutoff    1e-4
  #
      radial_base         35 7.0
      radial_multiplier   2
      angular_grids       specified
        division   0.1841   50
        division   0.3514  110
        division   0.5126  194
        division   0.6292  302
        division   0.6939  434
  #      division   0.7396  590
  #      division   0.7632  770
  #      division   0.8122  974
  #      division   1.1604 1202
  #      outer_grid  974
        outer_grid  434
  ################################################################################
  #
  #  Definition of "minimal" basis
  #
  ################################################################################
  #     valence basis states
      valence      2  s   2.
      valence      2  p   3.
  #     ion occupancy
      ion_occ      2  s   1.
      ion_occ      2  p   2.
  ################################################################################
  #
  #  Suggested additional basis functions. For production calculations,
  #  uncomment them one after another (the most important basis functions are
  #  listed first).
  #
  #  Constructed for dimers: 1.0 A, 1.1 A, 1.5 A, 2.0 A, 3.0 A
  #
  ################################################################################
  #  "First tier" - improvements: -1193.42 meV to -220.60 meV
       hydro 2 p 1.8
       hydro 3 d 6.8
       hydro 3 s 5.8
  #  "Second tier" - improvements: -80.21 meV to -6.86 meV
       hydro 4 f 10.8
       hydro 3 p 5.8
       hydro 1 s 0.8
       hydro 5 g 16
       hydro 3 d 4.9
  #  "Third tier" - improvements: -4.29 meV to -0.53 meV
  #     hydro 3 s 16
  #     ionic 2 p auto
  #     hydro 3 d 6.6
  #     hydro 4 f 11.6
  #  "Fourth tier" - improvements: -0.75 meV to -0.25 meV
  #     hydro 2 p 4.5
  #     hydro 2 s 2.4
  #     hydro 5 g 14.4
  #     hydro 4 d 14.4
  #     hydro 4 f 16.8
  # Further basis functions - -0.21 meV and below
  #     hydro 3 p 14.8
  #     hydro 3 s 4.4
  #     hydro 3 d 19.6
  #     hydro 5 g 12.8
  ################################################################################
  #
  # For methods that use the localized form of the "resolution of identity" for
  # the two-electron Coulomb operator (RI_method LVL), particularly Hartree-Fock and
  # hybrid density functional calculations, the highest accuracy can be obtained by
  # uncommenting the line beginning with "for_aux"  below, thus adding an extra g radial
  # function to the construction of the product basis set for the expansion.
  # See Ref. New J. Phys. 17, 093020 (2015) for more information, particularly Figs. 1 and 6.
  #
  ################################################################################
  #
  # for_aux hydro 5 g 6.0
  ################################################################################
  #
  #  FHI-aims code project
  # Volker Blum, Fritz Haber Institute Berlin, 2009
  #
  #  Suggested "tight" defaults for O atom (to be pasted into control.in file)
  #
  ################################################################################
    species        O
  #     global species definitions
      nucleus             8
      mass                15.9994
  #
      l_hartree           6
  #
      cut_pot             4.0  2.0  1.0
      basis_dep_cutoff    1e-4
  #
      radial_base         36 7.0
      radial_multiplier   2
       angular_grids specified
        division   0.1817   50
        division   0.3417  110
        division   0.4949  194
        division   0.6251  302
        division   0.8014  434
  #      division   0.8507  590
  #      division   0.8762  770
  #      division   0.9023  974
  #      division   1.2339 1202
  #      outer_grid 974
        outer_grid  434
  ################################################################################
  #
  #  Definition of "minimal" basis
  #
  ################################################################################
  #     valence basis states
      valence      2  s   2.
      valence      2  p   4.
  #     ion occupancy
      ion_occ      2  s   1.
      ion_occ      2  p   3.
  ################################################################################
  #
  #  Suggested additional basis functions. For production calculations,
  #  uncomment them one after another (the most important basis functions are
  #  listed first).
  #
  #  Constructed for dimers: 1.0 A, 1.208 A, 1.5 A, 2.0 A, 3.0 A
  #
  ################################################################################
  #  "First tier" - improvements: -699.05 meV to -159.38 meV
       hydro 2 p 1.8
       hydro 3 d 7.6
       hydro 3 s 6.4
  #  "Second tier" - improvements: -49.91 meV to -5.39 meV
       hydro 4 f 11.6
       hydro 3 p 6.2
       hydro 3 d 5.6
       hydro 5 g 17.6
       hydro 1 s 0.75
  #  "Third tier" - improvements: -2.83 meV to -0.50 meV
  #     ionic 2 p auto
  #     hydro 4 f 10.8
  #     hydro 4 d 4.7
  #     hydro 2 s 6.8
  #  "Fourth tier" - improvements: -0.40 meV to -0.12 meV
  #     hydro 3 p 5
  #     hydro 3 s 3.3
  #     hydro 5 g 15.6
  #     hydro 4 f 17.6
  #     hydro 4 d 14
  # Further basis functions - -0.08 meV and below
  #     hydro 3 s 2.1
  #     hydro 4 d 11.6
  #     hydro 3 p 16
  #     hydro 2 s 17.2
  ################################################################################
  #
  # For methods that use the localized form of the "resolution of identity" for
  # the two-electron Coulomb operator (RI_method LVL), particularly Hartree-Fock and
  # hybrid density functional calculations, the highest accuracy can be obtained by
  # uncommenting the line beginning with "for_aux"  below, thus adding an extra g radial
  # function to the construction of the product basis set for the expansion.
  # See Ref. New J. Phys. 17, 093020 (2015) for more information, particularly Figs. 1 and 6.
  #
  ################################################################################
  #
  # for_aux hydro 5 g 6.0
  
  -----------------------------------------------------------------------
  Completed first pass over input file control.in .
  -----------------------------------------------------------------------
  
  
  -----------------------------------------------------------------------
  Parsing geometry.in (first pass over file, find array dimensions only).
  The contents of geometry.in will be repeated verbatim below
  unless switched off by setting 'verbatim_writeout .false.' .
  in the first line of geometry.in .
  -----------------------------------------------------------------------
  
  #
  # This is the geometry file that corresponds to the current relaxation step.
  # If you do not want this file to be written, set the "write_restart_geometry" flag to .false.
  #
  atom      -0.50962846     -0.77102583      1.37238696 C
  atom      -1.62429129     -0.40596371      2.32862345 C
  atom      -1.54549699     -0.63636643      3.53503794 O
  atom      -0.83788613     -1.00022303      0.35280341 H
  atom       0.03249470     -1.62216510      1.79586607 H
  atom       0.19131221      0.07395656      1.31253407 H
  atom      -2.75703966      0.20195519      1.83172995 N
  atom      -3.08800413      0.66475372      0.47791687 C
  atom      -3.08107755     -0.47313154     -0.57898270 C
  atom      -2.32999775     -0.43379313     -1.55069360 O
  atom      -3.37892987      0.49745363      2.57913461 H
  atom      -4.13379606      1.00020737      0.55438547 H
  atom      -2.24810484      1.85245628      0.00769502 C
  atom      -1.20488839      1.56603113     -0.16260862 H
  atom      -2.28310478      2.64778095      0.76279402 H
  atom      -2.63598369      2.24456627     -0.94010833 H
  atom      -3.94039382     -1.52381851     -0.39944432 N
  atom      -5.04327309     -1.67658638      0.55642333 C
  atom      -5.26782938     -3.19971390      0.71244439 C
  atom      -6.05367200     -3.79825890     -0.02055649 O
  atom      -3.93593680     -2.17194274     -1.18564723 H
  atom      -4.71014925     -1.25961546      1.51459735 H
  atom      -6.33383593     -0.99522023      0.09979781 C
  atom      -7.11391072     -1.09668806      0.86607297 H
  atom      -6.70375478     -1.46038839     -0.82101969 H
  atom      -6.16426472      0.07386552     -0.08283351 H
  atom      -4.54371953     -3.84307253      1.67083938 N
  atom      -3.45860226     -3.31755381      2.48729395 C
  atom      -4.68952273     -4.84839689      1.66652573 H
  atom      -3.15984444     -4.08980944      3.20331412 H
  atom      -3.76331740     -2.43768417      3.06683745 H
  atom      -2.57808247     -3.04843944      1.88655017 H
  
  -----------------------------------------------------------------------
  Completed first pass over input file geometry.in .
  -----------------------------------------------------------------------
  

  Basic array size parameters:
  | Number of species                 :        4
  | Number of atoms                   :       32
  | Max. basis fn. angular momentum   :        4
  | Max. atomic/ionic basis occupied n:        2
  | Max. number of basis fn. types    :        2
  | Max. radial fns per species/type  :        8
  | Max. logarithmic grid size        :     1301
  | Max. radial integration grid size :       73
  | Max. angular integration grid size:      434
  | Max. angular grid division number :        8
  | Radial grid for Hartree potential :     1301
  | Number of spin channels           :        1

------------------------------------------------------------
          Reading file control.in.
------------------------------------------------------------
  XC: Using PBE gradient-corrected functionals.
  Spin treatment: No spin polarisation.
  Charge =   0.000000E+00: Neutral system requested explicitly.
  Occupation type: Gaussian broadening, width =   0.500000E-01 eV.
  Using pulay charge density mixing.
  Pulay mixing - number of memorized iterations:   10
  Charge density mixing - mixing parameter:     0.5000
  Convergence accuracy of self-consistent charge density:  0.1000E-03
  Convergence accuracy of sum of eigenvalues:  0.1000E-01
  Convergence accuracy of total energy:  0.1000E-04
  Convergence accuracy of forces:  0.1000E-03
  Maximum number of s.-c. iterations  :  1000
  Fitting ESP-charges to Potential. 
  | Esp charge output options: 
  | ESP Grid method: 3, cubic grid
  | Number of points in x, ,y, z:  0080 0080 0080
  |
 
  Reading configuration options for species H                   .
  | Found nuclear charge :   1.0000
  | Found atomic mass :    1.00794000000000      amu
  | Found l_max for Hartree potential  :   6
  | Found cutoff potl. onset [A], width [A], scale factor :    4.00000    2.00000    1.00000
  | Threshold for basis-dependent cutoff potential is   0.100000E-03
  | Found data for basic radial integration grid :    24 points, outermost radius =    7.000 A
  | Found multiplier for basic radial grid :   2
  | Found angular grid specification: user-specified.
  | Specified grid contains     6 separate shells.
  | Check grid settings after all constraints further below.
  | Found free-atom valence shell :  1 s   1.000
  | No ionic wave fns used. Skipping ion_occ.
  | Found hydrogenic basis function :  2 s   2.100
  | Found hydrogenic basis function :  2 p   3.500
  | Found hydrogenic basis function :  1 s   0.850
  | Found hydrogenic basis function :  2 p   3.700
  | Found hydrogenic basis function :  2 s   1.200
  | Found hydrogenic basis function :  3 d   7.000
  Species H                   : Missing cutoff potential type.
  Defaulting to exp(1/x)/(1-x)^2 type cutoff potential.
  Species H : No 'logarithmic' tag. Using default grid for free atom:
  | Default logarithmic grid data [bohr] : 0.1000E-03 0.1000E+03 0.1012E+01
  Species H : On-site basis accuracy parameter (for Gram-Schmidt orthonormalisation) not specified.
  Using default value basis_acc =  0.1000000E-03.
  Species H                   : Using default innermost maximum threshold i_radial=  2 for radial functions.
  Species H                   : Default cutoff onset for free atom density etc. : 0.40000000E+01 AA.
  Species H                   : Basic radial grid will be enhanced according to radial_multiplier =   2, to contain    49 grid points.
 
  Reading configuration options for species C                   .
  | Found nuclear charge :   6.0000
  | Found atomic mass :    12.0107000000000      amu
  | Found l_max for Hartree potential  :   6
  | Found cutoff potl. onset [A], width [A], scale factor :    4.00000    2.00000    1.00000
  | Threshold for basis-dependent cutoff potential is   0.100000E-03
  | Found data for basic radial integration grid :    34 points, outermost radius =    7.000 A
  | Found multiplier for basic radial grid :   2
  | Found angular grid specification: user-specified.
  | Specified grid contains     6 separate shells.
  | Check grid settings after all constraints further below.
  | Found free-atom valence shell :  2 s   2.000
  | Found free-atom valence shell :  2 p   2.000
  | No ionic wave fns used. Skipping ion_occ.
  | No ionic wave fns used. Skipping ion_occ.
  | Found hydrogenic basis function :  2 p   1.700
  | Found hydrogenic basis function :  3 d   6.000
  | Found hydrogenic basis function :  2 s   4.900
  | Found hydrogenic basis function :  4 f   9.800
  | Found hydrogenic basis function :  3 p   5.200
  | Found hydrogenic basis function :  3 s   4.300
  | Found hydrogenic basis function :  5 g  14.400
  | Found hydrogenic basis function :  3 d   6.200
  Species C                   : Missing cutoff potential type.
  Defaulting to exp(1/x)/(1-x)^2 type cutoff potential.
  Species C : No 'logarithmic' tag. Using default grid for free atom:
  | Default logarithmic grid data [bohr] : 0.1000E-03 0.1000E+03 0.1012E+01
  Species C : On-site basis accuracy parameter (for Gram-Schmidt orthonormalisation) not specified.
  Using default value basis_acc =  0.1000000E-03.
  Species C                   : Using default innermost maximum threshold i_radial=  2 for radial functions.
  Species C                   : Default cutoff onset for free atom density etc. : 0.40000000E+01 AA.
  Species C                   : Basic radial grid will be enhanced according to radial_multiplier =   2, to contain    69 grid points.
 
  Reading configuration options for species N                   .
  | Found nuclear charge :   7.0000
  | Found atomic mass :    14.0067000000000      amu
  | Found l_max for Hartree potential  :   6
  | Found cutoff potl. onset [A], width [A], scale factor :    4.00000    2.00000    1.00000
  | Threshold for basis-dependent cutoff potential is   0.100000E-03
  | Found data for basic radial integration grid :    35 points, outermost radius =    7.000 A
  | Found multiplier for basic radial grid :   2
  | Found angular grid specification: user-specified.
  | Specified grid contains     6 separate shells.
  | Check grid settings after all constraints further below.
  | Found free-atom valence shell :  2 s   2.000
  | Found free-atom valence shell :  2 p   3.000
  | No ionic wave fns used. Skipping ion_occ.
  | No ionic wave fns used. Skipping ion_occ.
  | Found hydrogenic basis function :  2 p   1.800
  | Found hydrogenic basis function :  3 d   6.800
  | Found hydrogenic basis function :  3 s   5.800
  | Found hydrogenic basis function :  4 f  10.800
  | Found hydrogenic basis function :  3 p   5.800
  | Found hydrogenic basis function :  1 s   0.800
  | Found hydrogenic basis function :  5 g  16.000
  | Found hydrogenic basis function :  3 d   4.900
  Species N                   : Missing cutoff potential type.
  Defaulting to exp(1/x)/(1-x)^2 type cutoff potential.
  Species N : No 'logarithmic' tag. Using default grid for free atom:
  | Default logarithmic grid data [bohr] : 0.1000E-03 0.1000E+03 0.1012E+01
  Species N : On-site basis accuracy parameter (for Gram-Schmidt orthonormalisation) not specified.
  Using default value basis_acc =  0.1000000E-03.
  Species N                   : Using default innermost maximum threshold i_radial=  2 for radial functions.
  Species N                   : Default cutoff onset for free atom density etc. : 0.40000000E+01 AA.
  Species N                   : Basic radial grid will be enhanced according to radial_multiplier =   2, to contain    71 grid points.
 
  Reading configuration options for species O                   .
  | Found nuclear charge :   8.0000
  | Found atomic mass :    15.9994000000000      amu
  | Found l_max for Hartree potential  :   6
  | Found cutoff potl. onset [A], width [A], scale factor :    4.00000    2.00000    1.00000
  | Threshold for basis-dependent cutoff potential is   0.100000E-03
  | Found data for basic radial integration grid :    36 points, outermost radius =    7.000 A
  | Found multiplier for basic radial grid :   2
  | Found angular grid specification: user-specified.
  | Specified grid contains     6 separate shells.
  | Check grid settings after all constraints further below.
  | Found free-atom valence shell :  2 s   2.000
  | Found free-atom valence shell :  2 p   4.000
  | No ionic wave fns used. Skipping ion_occ.
  | No ionic wave fns used. Skipping ion_occ.
  | Found hydrogenic basis function :  2 p   1.800
  | Found hydrogenic basis function :  3 d   7.600
  | Found hydrogenic basis function :  3 s   6.400
  | Found hydrogenic basis function :  4 f  11.600
  | Found hydrogenic basis function :  3 p   6.200
  | Found hydrogenic basis function :  3 d   5.600
  | Found hydrogenic basis function :  5 g  17.600
  | Found hydrogenic basis function :  1 s   0.750
  Species O                   : Missing cutoff potential type.
  Defaulting to exp(1/x)/(1-x)^2 type cutoff potential.
  Species O : No 'logarithmic' tag. Using default grid for free atom:
  | Default logarithmic grid data [bohr] : 0.1000E-03 0.1000E+03 0.1012E+01
  Species O : On-site basis accuracy parameter (for Gram-Schmidt orthonormalisation) not specified.
  Using default value basis_acc =  0.1000000E-03.
  Species O                   : Using default innermost maximum threshold i_radial=  2 for radial functions.
  Species O                   : Default cutoff onset for free atom density etc. : 0.40000000E+01 AA.
  Species O                   : Basic radial grid will be enhanced according to radial_multiplier =   2, to contain    73 grid points.
 
  Finished reading input file 'control.in'. Consistency checks are next.
 
  Target number of points in a grid batch is not set. Defaulting to  100
  Method for grid partitioning is not set. Defaulting to parallel hash+maxmin partitioning.
  Batch size limit is not set. Defaulting to    200
  By default, will store active basis functions for each batch.
  If in need of memory, prune_basis_once .false. can be used to disable this option.
  communication_type for Hartree potential was not specified.
  Defaulting to calc_hartree .
  Pulay mixer: Number of initial linear mixing iterations not set.
  Defaulting to    0 iterations.
  Work space size for distributed Hartree potential not set.
  Defaulting to   0.200000E+03 MB.
  Algorithm-dependent basis array size parameters:
  | n_max_pulay                         :       10
  Geometry relaxation not requested: no relaxation will be performed.
  Handling of forces: Unphysical translation and rotation will be removed from forces.
  No accuracy limit for integral partition fn. given. Defaulting to  0.1000E-14.
  No threshold value for u(r) in integrations given. Defaulting to  0.1000E-05.
  No accuracy for occupation numbers given. Defaulting to  0.1000E-07.
  No threshold value for occupation numbers given. Defaulting to  0.0000E+00.
  No accuracy for fermi level given. Defaulting to  0.1000E-19.
  Maximum # of iterations to find E_F not set. Defaulting to  200.
  Preferred method for the eigenvalue solver ('KS_method') not specified in 'control.in'.
  Calling blacs routine to test compilation state
  Since scalapack support is enabled, defaulting to 'elpa'.
  Preferred method for the MBD eigenvalue solver ('mbd_eigensolver') not specified in 'control.in'.
  Calling blacs routine to test compilation state
  Since scalapack support is enabled, defaulting to 'scaLAPACK'.
  Will not use alltoall communication since running on < 1024 CPUs.
  Threshold for basis singularities not set.
  Default threshold for basis singularities:  0.1000E-04
  partition_type (choice of integration weights) for integrals was not specified.
  | Using a version of the partition function of Stratmann and coworkers ('stratmann_smoother').
  | At each grid point, the set of atoms used to build the partition table is smoothly restricted to
  | only those atoms whose free-atom density would be non-zero at that grid point.
  Partitioning for Hartree potential was not defined. Using partition_type for integrals.
  | Adjusted default value of keyword multip_moments_threshold to:       0.10000000E-11
  | This value may affect high angular momentum components of the Hartree potential in periodic systems.
  No q(lm)/r^(l+1) cutoff set for long-range Hartree potential.
  | Using default value of  0.100000E-09 .
  | Verify using the multipole_threshold keyword.
  Defaulting to new monopole extrapolation.
  Density update method: automatic selection selected.
------------------------------------------------------------


------------------------------------------------------------
          Reading geometry description geometry.in.
------------------------------------------------------------
 * Warning! You did not set the 'relativistic' flag in input file 'control.in'.
 * Since you are not attempting to treat any elements beyond Ca(Z=20), FHI-aims
 * will default to 'relativistic none'.
 * You must ensure that this is really what you want!!
 * For example, DO NOT compute total-energy differences between results from
 * different settings of the 'relativistic' flag.
  Input structure read successfully.
  The structure contains       32 atoms,  and a total of        116.000 electrons.

  Input geometry:
  | No unit cell requested.
  | Atomic structure:
  |       Atom                x [A]            y [A]            z [A]
  |    1: Species C             -0.509628        -0.771026         1.372387
  |    2: Species C             -1.624291        -0.405964         2.328623
  |    3: Species O             -1.545497        -0.636366         3.535038
  |    4: Species H             -0.837886        -1.000223         0.352803
  |    5: Species H              0.032495        -1.622165         1.795866
  |    6: Species H              0.191312         0.073957         1.312534
  |    7: Species N             -2.757040         0.201955         1.831730
  |    8: Species C             -3.088004         0.664754         0.477917
  |    9: Species C             -3.081078        -0.473132        -0.578983
  |   10: Species O             -2.329998        -0.433793        -1.550694
  |   11: Species H             -3.378930         0.497454         2.579135
  |   12: Species H             -4.133796         1.000207         0.554385
  |   13: Species C             -2.248105         1.852456         0.007695
  |   14: Species H             -1.204888         1.566031        -0.162609
  |   15: Species H             -2.283105         2.647781         0.762794
  |   16: Species H             -2.635984         2.244566        -0.940108
  |   17: Species N             -3.940394        -1.523819        -0.399444
  |   18: Species C             -5.043273        -1.676586         0.556423
  |   19: Species C             -5.267829        -3.199714         0.712444
  |   20: Species O             -6.053672        -3.798259        -0.020556
  |   21: Species H             -3.935937        -2.171943        -1.185647
  |   22: Species H             -4.710149        -1.259615         1.514597
  |   23: Species C             -6.333836        -0.995220         0.099798
  |   24: Species H             -7.113911        -1.096688         0.866073
  |   25: Species H             -6.703755        -1.460388        -0.821020
  |   26: Species H             -6.164265         0.073866        -0.082834
  |   27: Species N             -4.543720        -3.843073         1.670839
  |   28: Species C             -3.458602        -3.317554         2.487294
  |   29: Species H             -4.689523        -4.848397         1.666526
  |   30: Species H             -3.159844        -4.089809         3.203314
  |   31: Species H             -3.763317        -2.437684         3.066837
  |   32: Species H             -2.578082        -3.048439         1.886550
  |

  | The smallest distance between any two atoms is         1.01585149 AA.
  |
  | The first atom of this pair is atom number                     27 .
  | The second atom of this pair is atom number                    29 .

  Number of empty states per atom not set in control.in - providing a guess from actual geometry.
  | Total number of empty states used during s.c.f. cycle:       71
  If you use a very high smearing, use empty_states (per atom!) in control.in to increase this value.

  Structure-dependent array size parameters: 
  | Maximum number of distinct radial functions  :       40
  | Maximum number of basis functions            :      840
  | Number of Kohn-Sham states (occupied + empty):      129
------------------------------------------------------------

------------------------------------------------------------
          Preparing all fixed parts of the calculation.
------------------------------------------------------------
  Determining machine precision:
    2.225073858507201E-308
  Setting up grids for atomic and cluster calculations.

  Creating wave function, potential, and density for free atoms.

  Species: H

  List of occupied orbitals and eigenvalues:
    n    l              occ      energy [Ha]    energy [eV]
    1    0           1.0000        -0.238382        -6.4867


  Species: C

  List of occupied orbitals and eigenvalues:
    n    l              occ      energy [Ha]    energy [eV]
    1    0           2.0000       -10.041232      -273.2358
    2    0           2.0000        -0.504327       -13.7234
    2    1           2.0000        -0.193750        -5.2722


  Species: N

  List of occupied orbitals and eigenvalues:
    n    l              occ      energy [Ha]    energy [eV]
    1    0           2.0000       -14.129007      -384.4699
    2    0           2.0000        -0.681802       -18.5528
    2    1           3.0000        -0.260543        -7.0897


  Species: O

  List of occupied orbitals and eigenvalues:
    n    l              occ      energy [Ha]    energy [eV]
    1    0           2.0000       -18.898576      -514.2564
    2    0           2.0000        -0.878795       -23.9132
    2    1           4.0000        -0.332075        -9.0362

  Creating fixed part of basis set: Ionic, confined, hydrogenic.
 
  H                    hydrogenic:
 
  List of hydrogenic basis orbitals: 
    n    l      effective z      eigenvalue [eV]  inner max. [A]     outer max. [A]     outer radius [A]   
    2    0         2.100000       -14.9965           0.193243           1.317208           5.373006
    2    1         3.500000       -41.6672           0.602369           0.602369           4.056063
    1    0         0.850000        -9.8292           0.624871           0.624871           5.373006
    2    1         3.700000       -46.5653           0.573622           0.573622           3.910002
    2    0         1.200000        -4.5995           0.334980           2.228188           5.505995
    3    2         7.000000       -74.0753           0.680699           0.680699           3.769201
 
 
  C                    hydrogenic:
 
  List of hydrogenic basis orbitals: 
    n    l      effective z      eigenvalue [eV]  inner max. [A]     outer max. [A]     outer radius [A]   
    2    1         1.700000        -9.8152           1.245706           1.245706           5.401630
    3    2         6.000000       -54.4226           0.792453           0.792453           4.178599
    2    0         4.900000       -81.6681           0.082559           0.562749           3.353238
    4    3         9.800000       -81.6681           0.863254           0.863254           4.028125
    3    1         5.200000       -40.8774           0.305389           1.215618           4.898362
    3    0         4.300000       -27.9508           0.091041           1.610311           5.401630
    5    4        14.400000      -112.8510           0.917666           0.917666           3.883070
    3    2         6.200000       -58.1113           0.763917           0.763917           4.077671
 
 
  N                    hydrogenic:
 
  List of hydrogenic basis orbitals: 
    n    l      effective z      eigenvalue [eV]  inner max. [A]     outer max. [A]     outer radius [A]   
    2    1         1.800000       -11.0118           1.177451           1.177451           5.427479
    3    2         6.800000       -69.9029           0.704619           0.704619           3.854246
    3    0         5.800000       -50.8549           0.067388           1.191934           4.629968
    4    3        10.800000       -99.1854           0.786571           0.786571           3.761152
    3    1         5.800000       -50.8549           0.274880           1.094176           4.518138
    1    0         0.800000        -8.7059           0.662839           0.662839           5.361532
    5    4        16.000000      -139.3222           0.825990           0.825990           3.625711
    3    2         4.900000       -36.2967           0.968267           0.968267           4.862000
 
 
  O                    hydrogenic:
 
  List of hydrogenic basis orbitals: 
    n    l      effective z      eigenvalue [eV]  inner max. [A]     outer max. [A]     outer radius [A]   
    2    1         1.800000       -11.0118           1.178562           1.178562           5.432602
    3    2         7.600000       -87.3182           0.624125           0.624125           3.541477
    3    0         6.400000       -61.9209           0.061167           1.081902           4.306578
    4    3        11.600000      -114.4238           0.731631           0.731631           3.585037
    3    1         6.200000       -58.1113           0.255680           1.030270           4.306578
    3    2         5.600000       -47.4081           0.847233           0.847233           4.413171
    5    4        17.600000      -168.5799           0.749740           0.749740           3.372465
    1    0         0.750000        -7.6499           0.705284           0.705284           5.366593
 

  Adding cutoff potential to free-atom effective potential.
  Creating atomic-like basis functions for current effective potential.

  Species H                   :

  List of atomic basis orbitals and eigenvalues:
    n    l      energy [Ha]    energy [eV]    outer radius [A]
    1    0        -0.238382        -6.4867       5.373006


  Species C                   :

  List of atomic basis orbitals and eigenvalues:
    n    l      energy [Ha]    energy [eV]    outer radius [A]
    1    0       -10.041232      -273.2358       1.934409
    2    0        -0.504327       -13.7234       5.271162
    2    1        -0.193750        -5.2722       5.401630


  Species N                   :

  List of atomic basis orbitals and eigenvalues:
    n    l      energy [Ha]    energy [eV]    outer radius [A]
    1    0       -14.129007      -384.4699       1.637919
    2    0        -0.681802       -18.5528       5.168461
    2    1        -0.260543        -7.0897       5.361532


  Species O                   :

  List of atomic basis orbitals and eigenvalues:
    n    l      energy [Ha]    energy [eV]    outer radius [A]
    1    0       -18.898576      -514.2564       1.415765
    2    0        -0.878795       -23.9132       5.048385
    2    1        -0.332075        -9.0362       5.301386

  Assembling full basis from fixed parts.
  | Species H :   atomic orbital   1 s accepted.
  | Species H :    hydro orbital   2 s accepted.
  | Species H :    hydro orbital   1 s accepted.
  | Species H :    hydro orbital   2 s accepted.
  | Species H :    hydro orbital   2 p accepted.
  | Species H :    hydro orbital   2 p accepted.
  | Species H :    hydro orbital   3 d accepted.
  | Species C :   atomic orbital   1 s accepted.
  | Species C :    hydro orbital   2 s accepted.
  | Species C :   atomic orbital   2 s accepted.
  | Species C :    hydro orbital   3 s accepted.
  | Species C :    hydro orbital   3 p accepted.
  | Species C :   atomic orbital   2 p accepted.
  | Species C :    hydro orbital   2 p accepted.
  | Species C :    hydro orbital   3 d accepted.
  | Species C :    hydro orbital   3 d accepted.
  | Species C :    hydro orbital   4 f accepted.
  | Species C :    hydro orbital   5 g accepted.
  | Species N :   atomic orbital   1 s accepted.
  | Species N :    hydro orbital   3 s accepted.
  | Species N :   atomic orbital   2 s accepted.
  | Species N :    hydro orbital   1 s accepted.
  | Species N :    hydro orbital   3 p accepted.
  | Species N :   atomic orbital   2 p accepted.
  | Species N :    hydro orbital   2 p accepted.
  | Species N :    hydro orbital   3 d accepted.
  | Species N :    hydro orbital   3 d accepted.
  | Species N :    hydro orbital   4 f accepted.
  | Species N :    hydro orbital   5 g accepted.
  | Species O :   atomic orbital   1 s accepted.
  | Species O :    hydro orbital   3 s accepted.
  | Species O :   atomic orbital   2 s accepted.
  | Species O :    hydro orbital   1 s accepted.
  | Species O :    hydro orbital   3 p accepted.
  | Species O :   atomic orbital   2 p accepted.
  | Species O :    hydro orbital   2 p accepted.
  | Species O :    hydro orbital   3 d accepted.
  | Species O :    hydro orbital   3 d accepted.
  | Species O :    hydro orbital   4 f accepted.
  | Species O :    hydro orbital   5 g accepted.
 
  Basis size parameters after reduction:
  | Total number of radial functions:       40
  | Total number of basis functions :      840
 
  Testing on-site integration grid accuracy.
  |  Species  Function  <phi|h_atom|phi> (log., in eV)  <phi|h_atom|phi> (rad., in eV)
           1        1                 -6.4869821809                 -6.4870742227
           1        2                 13.5044133542                 13.5041049177
           1        3                 32.7854418792                 32.7779770519
           1        4                 33.7995553101                 33.7152624900 ***
           1        5                 28.8558651799                 28.8558652046
           1        6                 59.6361831893                 59.6362535845
           1        7                 60.2733718049                 60.2733715484
           2        8               -273.2358277112               -273.2358261765
           2        9                -10.7624923123                -10.7625144012
           2       10                 17.4634079027                 17.4634252127
           2       11                 53.0363661832                 53.0366180446
           2       12                 15.0981351967                 15.0981317714
           2       13                  3.8522181899                  3.8522770949
           2       14                 12.1181835661                 12.1206868578
           2       15                 29.4320778347                 29.4320780959
           2       16                 54.8753777694                 54.8752901936
           2       17                 59.3533975461                 59.3533974833
           2       18                 93.4537491195                 93.4537492066
           3       19               -384.4698526889               -384.4698499465
           3       20                 12.5691022037                 12.5690910168
           3       21                -15.7489097511                -15.7489165588
           3       22                 27.0978334940                 27.0985589490
           3       23                 18.5949116966                 18.5949125562
           3       24                  1.2212828291                  1.2212855301
           3       25                 13.4428926797                 13.4434051125
           3       26                 35.9380614500                 35.9380613666
           3       27                 39.9231532098                 39.9231654735
           3       28                 72.9957335806                 72.9957336833
           3       29                116.4231321147                116.4231321431
           4       30               -514.2564144315               -514.2564099626
           4       31                 15.1726678541                 15.1726530877
           4       32                -21.5447785304                -21.5447874973
           4       33                 14.4944558459                 14.4944698284
           4       34                 20.8882174564                 20.8882178906
           4       35                 -2.4850315908                 -2.4850322289
           4       36                 13.8600193195                 13.8599826966
           4       37                 45.8243383616                 45.8243383675
           4       38                 52.1840606465                 52.1840622440
           4       39                 85.4074185510                 85.4074185819
           4       40                142.0983717302                142.0983717339
 * Note: Onsite integrals marked "***" above are less accurate than
 * onsite_accuracy_threshold =    0.03000 eV. Usually, this is harmless.
 * When in doubt, tighten the "radial" and/or "radial_multiplier" flags to check.

  Preparing densities etc. for the partition functions (integrals / Hartree potential).

  Preparations completed.
  max(cpu_time)          :      0.240 s.
  Wall clock time (cpu1) :      0.236 s.
------------------------------------------------------------

------------------------------------------------------------
          Begin self-consistency loop: Initialization.

          Date     :  20170309, Time     :  185556.699
------------------------------------------------------------

  Initializing index lists of integration centers etc. from given atomic structure:
  | Number of centers in hartree potential         :        32
  | Number of centers in hartree multipole         :        32
  | Number of centers in electron density summation:        32
  | Number of centers in basis integrals           :        32
  | Number of centers in integrals                 :        32
  | Number of centers in hamiltonian               :        32
  Using modified Scalapack Eigenvalue solver (ELPA)
  * Using 32 tasks for Scalapack Eigenvalue solver.
  Detailed listing of tasks and assigned k-points:
  (for non-periodic systems, the "k-point" denotes an internal label only)
   Task     0 k-point     1 on eos026
   Task     1 k-point     1 on eos026
   Task     2 k-point     1 on eos026
   Task     3 k-point     1 on eos026
   Task     4 k-point     1 on eos026
   Task     5 k-point     1 on eos026
   Task     6 k-point     1 on eos026
   Task     7 k-point     1 on eos026
   Task     8 k-point     1 on eos026
   Task     9 k-point     1 on eos026
   Task    10 k-point     1 on eos026
   Task    11 k-point     1 on eos026
   Task    12 k-point     1 on eos026
   Task    13 k-point     1 on eos026
   Task    14 k-point     1 on eos026
   Task    15 k-point     1 on eos026
   Task    16 k-point     1 on eos026
   Task    17 k-point     1 on eos026
   Task    18 k-point     1 on eos026
   Task    19 k-point     1 on eos026
   Task    20 k-point     1 on eos026
   Task    21 k-point     1 on eos026
   Task    22 k-point     1 on eos026
   Task    23 k-point     1 on eos026
   Task    24 k-point     1 on eos026
   Task    25 k-point     1 on eos026
   Task    26 k-point     1 on eos026
   Task    27 k-point     1 on eos026
   Task    28 k-point     1 on eos026
   Task    29 k-point     1 on eos026
   Task    30 k-point     1 on eos026
   Task    31 k-point     1 on eos026
  Tasks:    32 split into      8 X      4 BLACS grid
  Calculating blocksize based on n_basis =          840 max_nprow =            8 max_npcol =            4
  Scalapack blocksize set to:           16
  Required Scalapack workspace - INTEGER:            1 REAL:             1
  Partitioning the integration grid into batches with parallel hashing+maxmin method.
  | Number of batches:     4990
  | Maximal batch size:     200
  | Minimal batch size:      31
  | Average batch size:     105.757
  | Standard deviation of batch sizes:      34.101

  Integration load balanced across    32 MPI tasks.
  Work distribution over tasks is as follows:
  Task     0 has      16565 integration points.
  Task     1 has      16569 integration points.
  Task     2 has      16427 integration points.
  Task     3 has      16492 integration points.
  Task     4 has      16431 integration points.
  Task     5 has      16544 integration points.
  Task     6 has      16491 integration points.
  Task     7 has      16465 integration points.
  Task     8 has      16478 integration points.
  Task     9 has      16426 integration points.
  Task    10 has      16487 integration points.
  Task    11 has      16485 integration points.
  Task    12 has      16468 integration points.
  Task    13 has      16547 integration points.
  Task    14 has      16484 integration points.
  Task    15 has      16429 integration points.
  Task    16 has      16443 integration points.
  Task    17 has      16469 integration points.
  Task    18 has      16547 integration points.
  Task    19 has      16435 integration points.
  Task    20 has      16458 integration points.
  Task    21 has      16487 integration points.
  Task    22 has      16439 integration points.
  Task    23 has      16587 integration points.
  Task    24 has      16584 integration points.
  Task    25 has      16477 integration points.
  Task    26 has      16503 integration points.
  Task    27 has      16480 integration points.
  Task    28 has      16483 integration points.
  Task    29 has      16583 integration points.
  Task    30 has      16530 integration points.
  Task    31 has      16435 integration points.
  Initializing partition tables, free-atom densities, potentials, etc. across the integration grid (initialize_grid_storage).
  | initialize_grid_storage: Actual outermost partition radius vs. multipole_radius_free
  | (-- VB: in principle, multipole_radius_free should be larger, hence this output)
  | Species        1: Confinement radius =              6.000000000000000 AA, multipole_radius_free =              6.071692442739658 AA.
  | Species        1: outer_partition_radius set to              6.071692442739658 AA .
  | Species        2: Confinement radius =              6.000000000000000 AA, multipole_radius_free =              6.029870734432609 AA.
  | Species        2: outer_partition_radius set to              6.029870734432609 AA .
  | Species        3: Confinement radius =              6.000000000000000 AA, multipole_radius_free =              6.058726835495003 AA.
  | Species        3: outer_partition_radius set to              6.058726835495003 AA .
  | Species        4: Confinement radius =              6.000000000000000 AA, multipole_radius_free =              6.064445521808699 AA.
  | Species        4: outer_partition_radius set to              6.064445521808699 AA .
  | Original list of interatomic distances with          32 x         32 entries is created.
  | Net number of integration points:   527728
  | of which are non-zero points    :   411759
  Obtaining max. number of non-zero basis functions in each batch (get_n_compute_maxes).
  | Maximal number of non-zero basis functions:      825 in task     0
  | Maximal number of non-zero basis functions:      801 in task     1
  | Maximal number of non-zero basis functions:      821 in task     2
  | Maximal number of non-zero basis functions:      827 in task     3
  | Maximal number of non-zero basis functions:      822 in task     4
  | Maximal number of non-zero basis functions:      791 in task     5
  | Maximal number of non-zero basis functions:      825 in task     6
  | Maximal number of non-zero basis functions:      815 in task     7
  | Maximal number of non-zero basis functions:      791 in task     8
  | Maximal number of non-zero basis functions:      788 in task     9
  | Maximal number of non-zero basis functions:      802 in task    10
  | Maximal number of non-zero basis functions:      799 in task    11
  | Maximal number of non-zero basis functions:      816 in task    12
  | Maximal number of non-zero basis functions:      792 in task    13
  | Maximal number of non-zero basis functions:      818 in task    14
  | Maximal number of non-zero basis functions:      820 in task    15
  | Maximal number of non-zero basis functions:      817 in task    16
  | Maximal number of non-zero basis functions:      811 in task    17
  | Maximal number of non-zero basis functions:      830 in task    18
  | Maximal number of non-zero basis functions:      809 in task    19
  | Maximal number of non-zero basis functions:      816 in task    20
  | Maximal number of non-zero basis functions:      792 in task    21
  | Maximal number of non-zero basis functions:      802 in task    22
  | Maximal number of non-zero basis functions:      822 in task    23
  | Maximal number of non-zero basis functions:      809 in task    24
  | Maximal number of non-zero basis functions:      826 in task    25
  | Maximal number of non-zero basis functions:      821 in task    26
  | Maximal number of non-zero basis functions:      808 in task    27
  | Maximal number of non-zero basis functions:      825 in task    28
  | Maximal number of non-zero basis functions:      790 in task    29
  | Maximal number of non-zero basis functions:      807 in task    30
  | Maximal number of non-zero basis functions:      822 in task    31
  Selecting the method for density update.
  Loop over occupied states selected for charge density update.
  Integrating Hamiltonian matrix: batch-based integration.
  Time summed over all CPUs for integration: real work       24.166 s, elapsed       24.974 s
  Integrating overlap matrix.
  Time summed over all CPUs for integration: real work       14.927 s, elapsed       15.470 s
  Deallocating overlap matrix.

  Updating Kohn-Sham eigenvalues, eigenvectors, occupation numbers, and Fermi level.
  Solving generalized eigenproblem
  Solving real symmetric generalised eigenvalue problem by standard ScaLAPACK.
  Transforming overlap matrix with ScaLAPACK and checking for singularities.
  : Overlap matrix is nonsingular, using Cholesky decomposition
  | Lowest eigenvalue:  0.914731E-04
  Factoring overlap matrix with Cholesky decomposition
  Using Cholesky factor for transformation
  Using 1-stage real ELPA solver
  Determining occupation numbers for Kohn-Sham eigenstates.
  | Chemical potential (Fermi level) in eV                 : -.96198899E+01
  | Error in electron count due to remaining E_F inaccuracy: 0.00000000E+00
  | Maximum occupation number of highest empty state:  0.00E+00

  Writing Kohn-Sham eigenvalues.

  State    Occupation    Eigenvalue [Ha]    Eigenvalue [eV]
      1       2.00000         -18.974515         -516.32282
      2       2.00000         -18.973847         -516.30464
      3       2.00000         -18.973625         -516.29861
      4       2.00000         -14.254961         -387.89722
      5       2.00000         -14.252498         -387.83020
      6       2.00000         -14.251578         -387.80517
      7       2.00000         -10.171567         -276.78242
      8       2.00000         -10.171518         -276.78107
      9       2.00000         -10.171080         -276.76917
     10       2.00000         -10.166850         -276.65406
     11       2.00000         -10.148327         -276.15003
     12       2.00000         -10.147210         -276.11965
     13       2.00000         -10.135482         -275.80050
     14       2.00000         -10.134312         -275.76865
     15       2.00000         -10.133290         -275.74085
     16       2.00000          -1.133620          -30.84736
     17       2.00000          -1.131019          -30.77659
     18       2.00000          -1.129875          -30.74546
     19       2.00000          -1.017671          -27.69223
     20       2.00000          -1.009905          -27.48092
     21       2.00000          -1.002224          -27.27189
     22       2.00000          -0.879631          -23.93599
     23       2.00000          -0.875742          -23.83015
     24       2.00000          -0.849345          -23.11186
     25       2.00000          -0.817758          -22.25233
     26       2.00000          -0.780786          -21.24626
     27       2.00000          -0.765496          -20.83020
     28       2.00000          -0.701413          -19.08642
     29       2.00000          -0.684551          -18.62758
     30       2.00000          -0.666111          -18.12581
     31       2.00000          -0.630300          -17.15132
     32       2.00000          -0.626576          -17.05001
     33       2.00000          -0.613775          -16.70168
     34       2.00000          -0.611877          -16.65003
     35       2.00000          -0.588132          -16.00389
     36       2.00000          -0.578418          -15.73956
     37       2.00000          -0.566250          -15.40844
     38       2.00000          -0.560458          -15.25085
     39       2.00000          -0.558337          -15.19312
     40       2.00000          -0.553184          -15.05292
     41       2.00000          -0.550230          -14.97252
     42       2.00000          -0.549209          -14.94474
     43       2.00000          -0.534772          -14.55189
     44       2.00000          -0.527294          -14.34839
     45       2.00000          -0.520239          -14.15641
     46       2.00000          -0.515374          -14.02403
     47       2.00000          -0.511109          -13.90799
     48       2.00000          -0.499404          -13.58948
     49       2.00000          -0.494514          -13.45641
     50       2.00000          -0.487417          -13.26330
     51       2.00000          -0.479641          -13.05169
     52       2.00000          -0.478198          -13.01243
     53       2.00000          -0.409581          -11.14528
     54       2.00000          -0.403989          -10.99309
     55       2.00000          -0.401458          -10.92423
     56       2.00000          -0.389719          -10.60481
     57       2.00000          -0.383675          -10.44034
     58       2.00000          -0.378453          -10.29823
     59       0.00000          -0.171206           -4.65877
     60       0.00000          -0.162978           -4.43486
     61       0.00000          -0.159881           -4.35057
     62       0.00000          -0.083141           -2.26237
     63       0.00000          -0.064689           -1.76027
     64       0.00000          -0.061582           -1.67574
     65       0.00000          -0.054537           -1.48402
     66       0.00000          -0.048482           -1.31927
     67       0.00000          -0.034777           -0.94632
     68       0.00000          -0.028423           -0.77342
     69       0.00000          -0.024742           -0.67327
     70       0.00000          -0.023801           -0.64765
     71       0.00000          -0.020819           -0.56653
     72       0.00000          -0.012224           -0.33264
     73       0.00000          -0.011904           -0.32393
     74       0.00000          -0.007937           -0.21599
     75       0.00000          -0.002417           -0.06577
     76       0.00000          -0.000248           -0.00676
     77       0.00000           0.003531            0.09609
     78       0.00000           0.009677            0.26333
     79       0.00000           0.015378            0.41845
     80       0.00000           0.017610            0.47919
     81       0.00000           0.021170            0.57607
     82       0.00000           0.025100            0.68301
     83       0.00000           0.028737            0.78198
     84       0.00000           0.036555            0.99471
     85       0.00000           0.047298            1.28704
     86       0.00000           0.050327            1.36947
     87       0.00000           0.054542            1.48416
     88       0.00000           0.059457            1.61791
     89       0.00000           0.064378            1.75181
     90       0.00000           0.069670            1.89583
     91       0.00000           0.076732            2.08798
     92       0.00000           0.083227            2.26473
     93       0.00000           0.084531            2.30021
     94       0.00000           0.095467            2.59780
     95       0.00000           0.102700            2.79462
     96       0.00000           0.109337            2.97522
     97       0.00000           0.111340            3.02972
     98       0.00000           0.115665            3.14741
     99       0.00000           0.123655            3.36481
    100       0.00000           0.125441            3.41342
    101       0.00000           0.133632            3.63631
    102       0.00000           0.137533            3.74246
    103       0.00000           0.139575            3.79804
    104       0.00000           0.142416            3.87533
    105       0.00000           0.143655            3.90905
    106       0.00000           0.146451            3.98514
    107       0.00000           0.158338            4.30860
    108       0.00000           0.165250            4.49668
    109       0.00000           0.170191            4.63115
    110       0.00000           0.177189            4.82156
    111       0.00000           0.179521            4.88502
    112       0.00000           0.182926            4.97767
    113       0.00000           0.191493            5.21080
    114       0.00000           0.196826            5.35590
    115       0.00000           0.200537            5.45689
    116       0.00000           0.203914            5.54878
    117       0.00000           0.204881            5.57509
    118       0.00000           0.211230            5.74787
    119       0.00000           0.216414            5.88892
    120       0.00000           0.220626            6.00354
    121       0.00000           0.228868            6.22780
    122       0.00000           0.233699            6.35927
    123       0.00000           0.237485            6.46229
    124       0.00000           0.245332            6.67582
    125       0.00000           0.248544            6.76324
    126       0.00000           0.256497            6.97964
    127       0.00000           0.259940            7.07333
    128       0.00000           0.262614            7.14610
    129       0.00000           0.264864            7.20732

  Highest occupied state (VBM) at    -10.29823045 eV
  | Occupation number:      2.00000000

  Lowest unoccupied state (CBM) at    -4.65876549 eV
  | Occupation number:      0.00000000

  Overall HOMO-LUMO gap:      5.63946496 eV.
  Calculating total energy contributions from superposition of free atom densities.

  Total energy components:
  | Sum of eigenvalues            :        -437.81478087 Ha      -11913.54634208 eV
  | XC energy correction          :         -98.81994835 Ha       -2689.02761084 eV
  | XC potential correction       :         127.02232726 Ha        3456.45338718 eV
  | Free-atom electrostatic energy:        -333.66214912 Ha       -9079.40903278 eV
  | Hartree energy correction     :           0.00000000 Ha           0.00000000 eV
  | vdW energy correction         :           0.00000000 Ha           0.00000000 eV
  | Entropy correction            :          -0.00000000 Ha          -0.00000000 eV
  | ---------------------------
  | Total energy                  :        -743.27455108 Ha      -20225.52959851 eV
  | Total energy, T -> 0          :        -743.27455108 Ha      -20225.52959851 eV  <-- do not rely on this value for anything but (periodic) metals
  | Electronic free energy        :        -743.27455108 Ha      -20225.52959851 eV

  Derived energy quantities:
  | Kinetic energy                :         735.15716660 Ha       20004.64432819 eV
  | Electrostatic energy          :       -1379.61176933 Ha      -37541.14631587 eV
  | Energy correction for multipole
  | error in Hartree potential    :           0.00000000 Ha           0.00000000 eV
  | Sum of eigenvalues per atom                           :        -372.29832319 eV
  | Total energy (T->0) per atom                          :        -632.04779995 eV  <-- do not rely on this value for anything but (periodic) metals
  | Electronic free energy per atom                       :        -632.04779995 eV
  Initialize hartree_potential_storage
  Max. number of atoms included in rho_multipole:           32

  End scf initialization - timings             :  max(cpu_time)    wall_clock(cpu1)
  | Time for scf. initialization               :        2.016 s           2.017 s
  | Boundary condition initialization          :        0.000 s           0.000 s
  | Integration                                :        1.288 s           1.285 s
  | Solution of K.-S. eqns.                    :        0.076 s           0.076 s
  | Grid partitioning                          :        0.284 s           0.282 s
  | Preloading free-atom quantities on grid    :        0.028 s           0.028 s
  | Free-atom superposition energy             :        0.044 s           0.041 s
  | Total energy evaluation                    :        0.004 s           0.001 s
------------------------------------------------------------

------------------------------------------------------------
          Begin self-consistency iteration #    1

  Date     :  20170309, Time     :  185558.718
------------------------------------------------------------
  Evaluating new KS density.
  Integration grid: deviation in total charge (<rho> - N_e) =   2.842171E-14
  Pulay mixing of updated and previous charge densities.

  Evaluating partitioned Hartree potential by multipole expansion.
  | Analytical far-field extrapolation by fixed multipoles:
  | Hartree multipole sum: apparent total charge =  -0.616470E-04
  Summing up the Hartree potential.
  Time summed over all CPUs for potential: real work        9.655 s, elapsed        9.999 s
  | RMS charge density error from multipole expansion :   0.107173E-01

  Integrating Hamiltonian matrix: batch-based integration.
  Time summed over all CPUs for integration: real work       24.007 s, elapsed       24.815 s

  Updating Kohn-Sham eigenvalues, eigenvectors, occupation numbers, and Fermi level.
  Solving generalized eigenproblem
  Solving real symmetric generalised eigenvalue problem by standard ScaLAPACK.
  Using Cholesky factor for transformation
  Using 2-stage real ELPA solver
  K-Point:    1, Trafo times: 1-stage=     0.021 s, 2-stage=     0.019 s ==> Using 2-stage solver
  Determining occupation numbers for Kohn-Sham eigenstates.
  | Chemical potential (Fermi level) in eV                 : -.39623914E+01
  | Error in electron count due to remaining E_F inaccuracy: 0.00000000E+00
  | Maximum occupation number of highest empty state:  0.00E+00

  Writing Kohn-Sham eigenvalues.

  State    Occupation    Eigenvalue [Ha]    Eigenvalue [eV]
      1       2.00000         -18.628351         -506.90323
      2       2.00000         -18.619567         -506.66421
      3       2.00000         -18.615971         -506.56633
      4       2.00000         -14.001893         -381.01090
      5       2.00000         -14.000656         -380.97724
      6       2.00000         -13.992173         -380.74641
      7       2.00000         -10.068665         -273.98232
      8       2.00000         -10.058899         -273.71658
      9       2.00000         -10.057022         -273.66548
     10       2.00000          -9.977784         -271.50931
     11       2.00000          -9.971682         -271.34328
     12       2.00000          -9.896366         -269.29381
     13       2.00000          -9.846351         -267.93285
     14       2.00000          -9.835487         -267.63723
     15       2.00000          -9.832115         -267.54546
     16       2.00000          -0.974865          -26.52743
     17       2.00000          -0.964401          -26.24268
     18       2.00000          -0.961317          -26.15877
     19       2.00000          -0.876919          -23.86217
     20       2.00000          -0.867022          -23.59288
     21       2.00000          -0.861906          -23.45366
     22       2.00000          -0.736395          -20.03834
     23       2.00000          -0.728845          -19.83288
     24       2.00000          -0.698682          -19.01211
     25       2.00000          -0.676714          -18.41432
     26       2.00000          -0.643480          -17.50999
     27       2.00000          -0.629574          -17.13157
     28       2.00000          -0.582816          -15.85924
     29       2.00000          -0.559325          -15.22000
     30       2.00000          -0.547171          -14.88929
     31       2.00000          -0.504326          -13.72341
     32       2.00000          -0.493326          -13.42408
     33       2.00000          -0.485284          -13.20526
     34       2.00000          -0.466438          -12.69242
     35       2.00000          -0.454373          -12.36411
     36       2.00000          -0.440038          -11.97405
     37       2.00000          -0.435573          -11.85254
     38       2.00000          -0.428669          -11.66469
     39       2.00000          -0.412742          -11.23127
     40       2.00000          -0.401638          -10.92913
     41       2.00000          -0.396657          -10.79359
     42       2.00000          -0.390810          -10.63449
     43       2.00000          -0.387199          -10.53623
     44       2.00000          -0.381470          -10.38031
     45       2.00000          -0.375637          -10.22160
     46       2.00000          -0.373191          -10.15505
     47       2.00000          -0.367452           -9.99889
     48       2.00000          -0.358316           -9.75028
     49       2.00000          -0.353847           -9.62868
     50       2.00000          -0.349903           -9.52134
     51       2.00000          -0.344838           -9.38353
     52       2.00000          -0.338159           -9.20177
     53       2.00000          -0.244598           -6.65584
     54       2.00000          -0.242628           -6.60224
     55       2.00000          -0.233466           -6.35294
     56       2.00000          -0.222776           -6.06204
     57       2.00000          -0.215132           -5.85405
     58       2.00000          -0.211474           -5.75450
     59       0.00000          -0.068597           -1.86661
     60       0.00000          -0.053668           -1.46039
     61       0.00000          -0.050934           -1.38600
     62       0.00000          -0.038644           -1.05155
     63       0.00000          -0.025179           -0.68516
     64       0.00000          -0.011661           -0.31731
     65       0.00000          -0.010992           -0.29911
     66       0.00000          -0.001672           -0.04550
     67       0.00000           0.011510            0.31320
     68       0.00000           0.013610            0.37035
     69       0.00000           0.021813            0.59357
     70       0.00000           0.029680            0.80763
     71       0.00000           0.036131            0.98316
     72       0.00000           0.043570            1.18559
     73       0.00000           0.049382            1.34374
     74       0.00000           0.052698            1.43399
     75       0.00000           0.058915            1.60316
     76       0.00000           0.061527            1.67423
     77       0.00000           0.066719            1.81553
     78       0.00000           0.071310            1.94044
     79       0.00000           0.078661            2.14046
     80       0.00000           0.085863            2.33644
     81       0.00000           0.093991            2.55762
     82       0.00000           0.094453            2.57020
     83       0.00000           0.098303            2.67496
     84       0.00000           0.102261            2.78267
     85       0.00000           0.107079            2.91377
     86       0.00000           0.111629            3.03759
     87       0.00000           0.118247            3.21766
     88       0.00000           0.126987            3.45549
     89       0.00000           0.133500            3.63271
     90       0.00000           0.135923            3.69866
     91       0.00000           0.140677            3.82802
     92       0.00000           0.143884            3.91528
     93       0.00000           0.152108            4.13908
     94       0.00000           0.159163            4.33104
     95       0.00000           0.167063            4.54602
     96       0.00000           0.169931            4.62407
     97       0.00000           0.174981            4.76147
     98       0.00000           0.179564            4.88620
     99       0.00000           0.184632            5.02408
    100       0.00000           0.190367            5.18016
    101       0.00000           0.192651            5.24229
    102       0.00000           0.195862            5.32967
    103       0.00000           0.198263            5.39502
    104       0.00000           0.203830            5.54651
    105       0.00000           0.210923            5.73952
    106       0.00000           0.212322            5.77759
    107       0.00000           0.214069            5.82511
    108       0.00000           0.218910            5.95684
    109       0.00000           0.227663            6.19503
    110       0.00000           0.230452            6.27093
    111       0.00000           0.234649            6.38512
    112       0.00000           0.243114            6.61548
    113       0.00000           0.250093            6.80538
    114       0.00000           0.255639            6.95629
    115       0.00000           0.261240            7.10870
    116       0.00000           0.266375            7.24843
    117       0.00000           0.269567            7.33529
    118       0.00000           0.274300            7.46409
    119       0.00000           0.281080            7.64858
    120       0.00000           0.284353            7.73763
    121       0.00000           0.291999            7.94571
    122       0.00000           0.296647            8.07216
    123       0.00000           0.301286            8.19842
    124       0.00000           0.304514            8.28626
    125       0.00000           0.306420            8.33811
    126       0.00000           0.316595            8.61499
    127       0.00000           0.322593            8.77821
    128       0.00000           0.328767            8.94622
    129       0.00000           0.337683            9.18882

  Highest occupied state (VBM) at     -5.75450386 eV
  | Occupation number:      2.00000000

  Lowest unoccupied state (CBM) at    -1.86661064 eV
  | Occupation number:      0.00000000

  Overall HOMO-LUMO gap:      3.88789322 eV.

  Total energy components:
  | Sum of eigenvalues            :        -418.04475606 Ha      -11375.57659528 eV
  | XC energy correction          :        -100.74403358 Ha       -2741.38463387 eV
  | XC potential correction       :         129.51677312 Ha        3524.33071268 eV
  | Free-atom electrostatic energy:        -333.66214912 Ha       -9079.40903278 eV
  | Hartree energy correction     :         -19.77315280 Ha        -538.05486364 eV
  | vdW energy correction         :           0.00000000 Ha           0.00000000 eV
  | Entropy correction            :           0.00000000 Ha           0.00000000 eV
  | ---------------------------
  | Total energy                  :        -742.70731843 Ha      -20210.09441288 eV
  | Total energy, T -> 0          :        -742.70731843 Ha      -20210.09441288 eV  <-- do not rely on this value for anything but (periodic) metals
  | Electronic free energy        :        -742.70731843 Ha      -20210.09441288 eV

  Derived energy quantities:
  | Kinetic energy                :         743.99606947 Ha       20245.16311277 eV
  | Electrostatic energy          :       -1385.95935432 Ha      -37713.87289178 eV
  | Energy correction for multipole
  | error in Hartree potential    :          -0.04085056 Ha          -1.11160030 eV
  | Sum of eigenvalues per atom                           :        -355.48676860 eV
  | Total energy (T->0) per atom                          :        -631.56545040 eV  <-- do not rely on this value for anything but (periodic) metals
  | Electronic free energy per atom                       :        -631.56545040 eV

  Self-consistency convergence accuracy:
  | Change of charge density      :  0.9034E+00
  | Change of sum of eigenvalues  :  0.5380E+03 eV
  | Change of total energy        :  0.1544E+02 eV

  End self-consistency iteration #     1       :  max(cpu_time)    wall_clock(cpu1)
  | Time for this iteration                    :        1.668 s           1.664 s
  | Charge density update                      :        0.524 s           0.522 s
[...]
   ----------------------------------------------------------------
   Total forces(  20)            :  0.191564E-02  0.113984E-02  0.406604E-02
  atom #   21
   Hellmann-Feynman              :  0.128200E-01  0.520002E-01  0.918859E-02
   Ionic forces                  :  0.000000E+00  0.000000E+00  0.000000E+00
   Multipole                     : -0.224452E-01 -0.131787E-01  0.242264E-01
   Pulay + GGA                   :  0.904720E-03 -0.440127E-01 -0.423690E-01
   Van der Waals                 :  0.911026E-02  0.605332E-02  0.104143E-01
   ----------------------------------------------------------------
   Total forces(  21)            :  0.389750E-03  0.862175E-03  0.146037E-02
  atom #   22
   Hellmann-Feynman              : -0.925149E-03 -0.248808E-01 -0.617147E-01
   Ionic forces                  :  0.000000E+00  0.000000E+00  0.000000E+00
   Multipole                     : -0.146914E-01  0.105884E-01  0.566743E-03
   Pulay + GGA                   :  0.174914E-01  0.238504E-01  0.558437E-01
   Van der Waals                 : -0.191854E-02 -0.984427E-02  0.386704E-02
   ----------------------------------------------------------------
   Total forces(  22)            : -0.436662E-04 -0.286325E-03 -0.143721E-02
  atom #   23
   Hellmann-Feynman              : -0.897591E+00  0.160807E+00 -0.581763E+00
   Ionic forces                  :  0.000000E+00  0.000000E+00  0.000000E+00
   Multipole                     :  0.301848E+00 -0.773619E-01  0.191287E+00
   Pulay + GGA                   :  0.593446E+00 -0.897452E-01  0.378264E+00
   Van der Waals                 :  0.379763E-02  0.525957E-02  0.120277E-01
   ----------------------------------------------------------------
   Total forces(  23)            :  0.150034E-02 -0.104064E-02 -0.183866E-03
  atom #   24
   Hellmann-Feynman              :  0.413921E-01 -0.262390E-01 -0.239352E-01
   Ionic forces                  :  0.000000E+00  0.000000E+00  0.000000E+00
   Multipole                     : -0.183169E-02  0.158559E-01 -0.276615E-01
   Pulay + GGA                   : -0.392108E-01  0.661136E-02  0.530379E-01
   Van der Waals                 :  0.121533E-04  0.422436E-02 -0.163455E-02
   ----------------------------------------------------------------
   Total forces(  24)            :  0.361727E-03  0.452540E-03 -0.193326E-03
  atom #   25
   Hellmann-Feynman              :  0.290884E-01 -0.292088E-01  0.487330E-01
   Ionic forces                  :  0.000000E+00  0.000000E+00  0.000000E+00
   Multipole                     : -0.836231E-02  0.224772E-01  0.130541E-01
   Pulay + GGA                   : -0.196062E-01 -0.163557E-02 -0.591912E-01
   Van der Waals                 : -0.144256E-02  0.873860E-02 -0.217774E-02
   ----------------------------------------------------------------
   Total forces(  25)            : -0.322671E-03  0.371456E-03  0.418098E-03
  atom #   26
   Hellmann-Feynman              :  0.834421E-02 -0.468102E-01  0.394230E-02
   Ionic forces                  :  0.000000E+00  0.000000E+00  0.000000E+00
   Multipole                     : -0.289411E-01 -0.151505E-01 -0.454800E-02
   Pulay + GGA                   :  0.217846E-01  0.621702E-01  0.152374E-02
   Van der Waals                 : -0.101313E-02 -0.529410E-03 -0.127160E-02
   ----------------------------------------------------------------
   Total forces(  26)            :  0.174638E-03 -0.319836E-03 -0.353566E-03
  atom #   27
   Hellmann-Feynman              : -0.191491E+01 -0.183678E+00  0.258831E+00
   Ionic forces                  :  0.000000E+00  0.000000E+00  0.000000E+00
   Multipole                     : -0.114422E+00 -0.201462E-01 -0.116826E+00
   Pulay + GGA                   :  0.202838E+01  0.194684E+00 -0.137475E+00
   Van der Waals                 :  0.133461E-03  0.792838E-02 -0.485288E-02
   ----------------------------------------------------------------
   Total forces(  27)            : -0.817483E-03 -0.121179E-02 -0.322777E-03
  atom #   28
   Hellmann-Feynman              :  0.159543E+01  0.542301E+00  0.138352E+01
   Ionic forces                  :  0.000000E+00  0.000000E+00  0.000000E+00
   Multipole                     : -0.859139E-01 -0.273001E-01 -0.250385E-01
   Pulay + GGA                   : -0.151936E+01 -0.532778E+00 -0.134756E+01
   Van der Waals                 :  0.115939E-01  0.184891E-01 -0.101172E-01
   ----------------------------------------------------------------
   Total forces(  28)            :  0.174862E-02  0.711654E-03  0.803384E-03
  atom #   29
   Hellmann-Feynman              : -0.221190E-01  0.478307E-01 -0.394386E-01
   Ionic forces                  :  0.000000E+00  0.000000E+00  0.000000E+00
   Multipole                     :  0.246694E-01  0.135584E-01  0.317910E-01
   Pulay + GGA                   : -0.173682E-02 -0.680719E-01  0.104809E-01
   Van der Waals                 : -0.488634E-03  0.818179E-02 -0.281134E-02
   ----------------------------------------------------------------
   Total forces(  29)            :  0.324950E-03  0.149893E-02  0.219804E-04
  atom #   30
   Hellmann-Feynman              : -0.379658E-01  0.122753E-01 -0.314299E-01
   Ionic forces                  :  0.000000E+00  0.000000E+00  0.000000E+00
   Multipole                     :  0.252191E-01  0.349924E-01 -0.170651E-02
   Pulay + GGA                   :  0.124800E-01 -0.563412E-01  0.365691E-01
   Van der Waals                 :  0.340594E-03  0.921278E-02 -0.399152E-02
   ----------------------------------------------------------------
   Total forces(  30)            :  0.738664E-04  0.139278E-03 -0.558868E-03
  atom #   31
   Hellmann-Feynman              :  0.105259E-01 -0.446806E-01 -0.606074E-02
   Ionic forces                  :  0.000000E+00  0.000000E+00  0.000000E+00
   Multipole                     :  0.224959E-01 -0.924593E-02 -0.229674E-01
   Pulay + GGA                   : -0.341009E-01  0.528507E-01  0.263524E-01
   Van der Waals                 :  0.105646E-02  0.215142E-03  0.211639E-02
   ----------------------------------------------------------------
   Total forces(  31)            : -0.226908E-04 -0.860758E-03 -0.559337E-03
  atom #   32
   Hellmann-Feynman              : -0.535516E-01 -0.250435E-01  0.109227E-01
   Ionic forces                  :  0.000000E+00  0.000000E+00  0.000000E+00
   Multipole                     : -0.136834E-01  0.516882E-02  0.220181E-01
   Pulay + GGA                   :  0.582754E-01  0.118074E-01 -0.272250E-01
   Van der Waals                 :  0.802959E-02  0.809225E-02 -0.552421E-02
   ----------------------------------------------------------------
   Total forces(  32)            : -0.930074E-03  0.250149E-04  0.191539E-03

  Timings for VdW correction (Tkatchenko-Scheffler 2009 or later):
  | CPU time:        0.132 s, Wall clock time:        0.129 s.
  Removing unitary transformations (pure translations, rotations) from forces on atoms.
  Atomic forces before filtering:
  | Net force on center of mass :   0.264281E-03  0.350027E-03  0.357378E-03 eV/A
  | Net torque on center of mass:   0.376151E-02  0.422102E-02 -0.308565E-03 eV
  Atomic forces after filtering:
  | Net force on center of mass :   0.156802E-17 -0.811234E-18  0.217781E-18 eV/A
  | Net torque on center of mass:   0.392408E-17 -0.119854E-17 -0.110635E-17 eV

  Energy and forces in a compact form:
  | Total energy uncorrected      :         -0.202084766588903E+05 eV
  | Total energy corrected        :         -0.202084766588903E+05 eV  <-- do not rely on this value for anything but (periodic) metals
  | Electronic free energy        :         -0.202084766588903E+05 eV
  Total atomic forces (unitary forces cleaned) [eV/Ang]:
  |   1         -0.521002729106485E-03          0.230503783662262E-03          0.198803108163025E-03
  |   2          0.215946577439305E-02         -0.109397292879472E-02          0.392988352982336E-02
  |   3         -0.904633413836123E-03          0.640185406390575E-03         -0.443972405774457E-02
  |   4          0.339607012267661E-04          0.361517168402782E-03          0.188837103961785E-03
  |   5         -0.326965660752708E-03          0.180087163514369E-03         -0.773056522152095E-03
  |   6         -0.397944056445499E-03         -0.184231696650949E-03         -0.115153828222704E-03
  |   7         -0.189176693464307E-02         -0.193395932677182E-03          0.168600352157256E-02
  |   8         -0.821988132343618E-03          0.885466570891014E-03         -0.142018667475927E-02
  |   9          0.245374853309292E-02         -0.318996618805724E-03         -0.170739241949954E-02
  |  10         -0.197051141890540E-02         -0.172142038037365E-04          0.323101169628188E-02
  |  11          0.967573015643518E-03         -0.672162886246873E-03         -0.135912416465496E-02
  |  12          0.725653866762554E-03          0.941721967444270E-04          0.564874990667436E-05
  |  13          0.282568219813557E-03         -0.137230371980342E-02          0.345676914077327E-03
  |  14         -0.571475993164600E-03          0.382124778817454E-03         -0.127773510688601E-03
  |  15          0.248102620588276E-03         -0.120833348215663E-03          0.292583691857422E-03
  |  16         -0.313523270940777E-03          0.982956185122699E-03          0.714406990139428E-03
  |  17          0.206366665509317E-02         -0.722678020822454E-03         -0.292069068404764E-02
  |  18         -0.227977878193175E-02          0.967998441588479E-03          0.179931603254236E-02
  |  19         -0.314282180253797E-02         -0.140079065483020E-02         -0.269264031693517E-02
  |  20          0.194343818182029E-02          0.109493487627103E-02          0.405280359468906E-02
  |  21          0.450732547947185E-03          0.787593523086058E-03          0.146601581786037E-02
  |  22         -0.708678345394877E-04         -0.282158853801243E-03         -0.148345803186106E-02
  |  23          0.151754990015771E-02         -0.108262551364398E-02         -0.289706877311620E-03
  |  24          0.354783977620064E-03          0.431549831309891E-03         -0.320977511883278E-03
  |  25         -0.275014367934284E-03          0.301087656975771E-03          0.314365155702062E-03
  |  26          0.195089862267726E-03         -0.366865251928538E-03         -0.485924058552734E-03
  |  27         -0.843432118143235E-03         -0.120255866858233E-02         -0.286594200785889E-03
  |  28          0.169540695069580E-02          0.747876280962579E-03          0.858432431913878E-03
  |  29          0.301561715823277E-03          0.150768237887929E-02          0.835337275569055E-04
  |  30         -0.287264860776176E-06          0.197595822796763E-03         -0.471250918538011E-03
  |  31         -0.964812387897551E-04         -0.807968459412596E-03         -0.540260399088039E-03
  |  32         -0.964807504070302E-03          0.454246926041645E-04          0.266592110677082E-03

  ------------------------------------ 
  Start decomposition of the XC Energy 
  ------------------------------------ 
  Hartree-Fock part   :          0.000000000 Ha              0.000000000 eV
  ------------------------------------ 
  X Energy            :        -96.978725804 Ha          -2638.925396181 eV
  C Energy GGA        :         -3.869653052 Ha           -105.298617068 eV
  Total XC Energy     :       -100.848378856 Ha          -2744.224013249 eV
  LDA X and C from self-consistent density 
  X Energy LDA        :        -87.997256910 Ha          -2394.527192735 eV
  C Energy LDA        :         -7.532119164 Ha           -204.959390659 eV
  ------------------------------------ 
  End decomposition of the XC Energy 
  ------------------------------------ 
   
  ESP charge fitting starts.
  | Calculation :  00000001  of  00000001
  | Full density
  Computing multipole expansion for total density.
  Generating points for esp charges.
  Partitioning the integration grid into batches with parallel hashing+maxmin method.
  | Number of batches:     3851
  | Maximal batch size:     200
  | Minimal batch size:      54
  | Average batch size:     126.672
  | Standard deviation of batch sizes:      19.406

  Integration load balanced across    32 MPI tasks.
  Work distribution over tasks is as follows:
  Initializing partition tables, free-atom densities, potentials, etc. across the integration grid (initialize_grid_storage).
  | Original list of interatomic distances with          32 x         32 entries is created.
  | Net number of integration points:   487814
  | of which are non-zero points    :   487814
  Summing up potential from multipole expanded  density.
  Summing up the Hartree potential.
  Time summed over all CPUs for potential: real work        6.382 s, elapsed        6.659 s
  Fitting esp charges to potential.
  |
  | ESP charges fitted to the electrostatic potential :
  |
  | Atom         1: C, ESP charge:      0.43947736
  |
  | Atom         2: C, ESP charge:     -0.58408542
  |
  | Atom         3: O, ESP charge:      0.55226508
  |
  | Atom         4: H, ESP charge:     -0.14207522
  |
  | Atom         5: H, ESP charge:     -0.12600595
  |
  | Atom         6: H, ESP charge:     -0.14554641
  |
  | Atom         7: N, ESP charge:      0.49975220
  |
  | Atom         8: C, ESP charge:     -0.47133897
  |
  | Atom         9: C, ESP charge:     -0.35529002
  |
  | Atom        10: O, ESP charge:      0.49993884
  |
  | Atom        11: H, ESP charge:     -0.26581154
  |
  | Atom        12: H, ESP charge:      0.03955350
  |
  | Atom        13: C, ESP charge:      0.35704548
  |
  | Atom        14: H, ESP charge:     -0.09458403
  |
  | Atom        15: H, ESP charge:     -0.07300567
  |
  | Atom        16: H, ESP charge:     -0.10217195
  |
  | Atom        17: N, ESP charge:      0.53572336
  |
  | Atom        18: C, ESP charge:     -0.47057005
  |
  | Atom        19: C, ESP charge:     -0.33347504
  |
  | Atom        20: O, ESP charge:      0.49969419
  |
  | Atom        21: H, ESP charge:     -0.32740033
  |
  | Atom        22: H, ESP charge:      0.02363502
  |
  | Atom        23: C, ESP charge:      0.38372582
  |
  | Atom        24: H, ESP charge:     -0.10357790
  |
  | Atom        25: H, ESP charge:     -0.11612652
  |
  | Atom        26: H, ESP charge:     -0.07482124
  |
  | Atom        27: N, ESP charge:      0.46397295
  |
  | Atom        28: C, ESP charge:     -0.00561453
  |
  | Atom        29: H, ESP charge:     -0.32785506
  |
  | Atom        30: H, ESP charge:     -0.09132369
  |
  | Atom        31: H, ESP charge:     -0.03556254
  |
  | Atom        32: H, ESP charge:     -0.04854171

  RRMS:       0.00974918

  Done.

------------------------------------------------------------------------------
  Final output of selected total energy values:

  The following output summarizes some interesting total energy values
  at the end of a run (AFTER all relaxation, molecular dynamics, etc.).

  | Total energy of the DFT / Hartree-Fock s.c.f. calculation      :         -20208.476658890 eV
  | Final zero-broadening corrected energy (caution - metals only) :         -20208.476658890 eV
  | For reference only, the value of 1 Hartree used in FHI-aims is :             27.211384500 eV

  Before relying on these values, please be sure to understand exactly which
  total energy value is referred to by a given number. Different objects may
  all carry the same name 'total energy'. Definitions:

  Total energy of the DFT / Hartree-Fock s.c.f. calculation:
  | Note that this energy does not include ANY quantities calculated after the
  | s.c.f. cycle, in particular not ANY RPA, MP2, etc. many-body perturbation terms.

  Final zero-broadening corrected energy:
  | For metallic systems only, a broadening of the occupation numbers at the Fermi
  | level can be extrapolated back to zero broadening by an electron-gas inspired
  | formula. For all systems that are not real metals, this value can be
  | meaningless and should be avoided.

------------------------------------------------------------------------------
  Methods described in the following list of references were used in this FHI-aims run.
  If you publish the results, please make sure to cite these reference if they apply.
  FHI-aims is an academic code, and for our developers (often, Ph.D. students
  and postdocs), scientific credit in the community is essential.
  Thank you for helping us!

  For any use of FHI-aims, please cite:

    Volker Blum, Ralf Gehrke, Felix Hanke, Paula Havu, Ville Havu,
    Xinguo Ren, Karsten Reuter, and Matthias Scheffler
    'Ab initio molecular simulations with numeric atom-centered orbitals'
    Computer Physics Communications 180, 2175-2196 (2009)
    http://dx.doi.org/10.1016/j.cpc.2009.06.022


  The scalable eigensolver library ELPA was used in your run.
  ELPA is essential especially for large systems on hundreds or thousands of CPUs.
  For ELPA, please cite:

    Andreas Marek, Volker Blum, Rainer Johanni, Ville Havu, Bruno Lang,
    Thomas Auckenthaler, Alexander Heinecke, Hans-Joachim Bungartz, and Hermann Lederer,
    'The ELPA Library - Scalable Parallel Eigenvalue Solutions
    for Electronic Structure Theory and Computational Science'
    The Journal of Physics: Condensed Matter 26, 213201 (2014).
    http://dx.doi.org/10.1088/0953-8984/26/21/213201


  For ELPA's efficient two-stage tridiagonalization used in your run, please cite:

    T. Auckenthaler, V. Blum, H.-J. Bungartz, T. Huckle, R. Johanni, L. Kraemer,
    B. Lang, H. Lederer, and P. R. Willems,
    'Parallel solution of partial symmetric eigenvalue problems'
    'from  electronic structure calculations'
    Parallel Computing 37, 783-794 (2011).
    http://dx.doi.org/10.1016/j.parco.2011.05.002


  For the real-space grid partitioning and parallelization used in this calculation, please cite:

    Ville Havu, Volker Blum, Paula Havu, and Matthias Scheffler,
    'Efficient O(N) integration for all-electron electronic structure calculation'
    'using numerically tabulated basis functions'
    Journal of Computational Physics 228, 8367-8379 (2009).
    http://dx.doi.org/10.1016/j.jcp.2009.08.008

  Of course, there are many other important community references, e.g., those cited in the
  above references. Our list is limited to references that describe implementations in the
  FHI-aims code. The reason is purely practical (length of this list) - please credit others as well.

------------------------------------------------------------
          Leaving FHI-aims.
          Date     :  20170309, Time     :  185628.366

          Computational steps:
          | Number of self-consistency cycles          :           14

          Detailed time accounting                     :  max(cpu_time)    wall_clock(cpu1)
          | Total time                                 :       32.574 s          32.731 s
          | Preparation time                           :        0.240 s           0.236 s
          | Grid partitioning                          :        0.284 s           0.282 s
          | Preloading free-atom quantities on grid    :        0.028 s           0.028 s
          | Free-atom superposition energy             :        0.044 s           0.041 s
          | Total time for integrations                :       12.365 s          12.349 s
          | Total time for solution of K.-S. equations :        0.528 s           0.493 s
          | Total time for density & force components  :       10.421 s          10.402 s
          | Total time for mixing                      :        0.124 s           0.103 s
          | Total time for Hartree multipole update    :        0.060 s           0.056 s
          | Total time for Hartree multipole sum       :        6.356 s           6.323 s
          | Total time for total energy evaluation     :        0.028 s           0.018 s
          | Total time for vdW correction              :        0.132 s           0.129 s

          Have a nice day.
------------------------------------------------------------
