  MPI-parallelism will be employed.
------------------------------------------------------------
          Invoking FHI-aims ...
          Version 150427
          Git rev.: 9dd23e0 BL: Update Version stamp
          Compiled on 2015/11/03 at 22:05:20 on host eos03.

          When using FHI-aims, please cite the following reference:

          Volker Blum, Ralf Gehrke, Felix Hanke, Paula Havu,
          Ville Havu, Xinguo Ren, Karsten Reuter, and Matthias Scheffler,
          'Ab Initio Molecular Simulations with Numeric Atom-Centered Orbitals: FHI-aims',
          Computer Physics Communications 180, 2175-2196 (2009)

          For any questions about FHI-aims, please visit the aimsclub website
          with its forums and wiki. Contributions to both the forums and the
          wiki are warmly encouraged - they are for you, and everyone is welcome there.

------------------------------------------------------------

  Date     :  20170309, Time     :  182210.252
  Time zero on CPU 1             :   0.220013000000000E+00  s.
  Internal wall clock time zero  :           258315730.252  s.

  Using       32 parallel tasks.
  Task        0 on host eos221 reporting.
  Task        1 on host eos221 reporting.
  Task        2 on host eos221 reporting.
  Task        3 on host eos221 reporting.
  Task        4 on host eos221 reporting.
  Task        5 on host eos221 reporting.
  Task        6 on host eos221 reporting.
  Task        7 on host eos221 reporting.
  Task        8 on host eos221 reporting.
  Task        9 on host eos221 reporting.
  Task       10 on host eos221 reporting.
  Task       11 on host eos221 reporting.
  Task       12 on host eos221 reporting.
  Task       13 on host eos221 reporting.
  Task       14 on host eos221 reporting.
  Task       15 on host eos221 reporting.
  Task       16 on host eos221 reporting.
  Task       17 on host eos221 reporting.
  Task       18 on host eos221 reporting.
  Task       19 on host eos221 reporting.
  Task       20 on host eos221 reporting.
  Task       21 on host eos221 reporting.
  Task       22 on host eos221 reporting.
  Task       23 on host eos221 reporting.
  Task       24 on host eos221 reporting.
  Task       25 on host eos221 reporting.
  Task       26 on host eos221 reporting.
  Task       27 on host eos221 reporting.
  Task       28 on host eos221 reporting.
  Task       29 on host eos221 reporting.
  Task       30 on host eos221 reporting.
  Task       31 on host eos221 reporting.

  Performing system and environment tests:
  | Environment variable OMP_NUM_THREADS correctly set to 1.
  | Stacksize not measured: no C compiler
  | Checking for scalapack...
  | Testing pdtran()...
  | All pdtran() tests passed.

  Obtaining array dimensions for all initial allocations:
  
  -----------------------------------------------------------------------
  Parsing control.in (first pass over file, find array dimensions only).
  The contents of control.in will be repeated verbatim below
  unless switched off by setting 'verbatim_writeout .false.' .
  in the first line of control.in .
  -----------------------------------------------------------------------
  
  #########################################################################################
  #
  # Input for System
  #
  #########################################################################################
  #
  #
  #  Physical model
  #
    xc                 pbe
    vdw_correction_hirshfeld
    spin               none
    charge             0.
  #
  #  SCF convergence
  #
    occupation_type    gaussian 0.05
    mixer              pulay
      n_max_pulay        10
      charge_mix_param   0.5
    sc_accuracy_rho    1E-4
    sc_accuracy_eev    1E-2
    sc_accuracy_etot   1E-5
    sc_accuracy_forces 1E-4
    sc_iter_limit      1000
  #
  #  ESP charge
  #
    output esp
    esp equal_grid_n 80 80 80
  #
  #
  ################################################################################
  #
  #  FHI-aims code project
  # Volker Blum, Fritz Haber Institute Berlin, 2009
  #
  #  Suggested "tight" defaults for H atom (to be pasted into control.in file)
  #
  ################################################################################
    species        H
  #     global species definitions
      nucleus             1
      mass                1.00794
  #
      l_hartree           6
  #
      cut_pot             4.0  2.0  1.0
      basis_dep_cutoff    1e-4
  #
      radial_base         24 7.0
      radial_multiplier   2
      angular_grids       specified
        division   0.1930   50
        division   0.3175  110
        division   0.4293  194
        division   0.5066  302
        division   0.5626  434
  #      division   0.5922  590
  #      division   0.6227  974
  #      division   0.6868 1202
  #      outer_grid  770
        outer_grid  434
  ################################################################################
  #
  #  Definition of "minimal" basis
  #
  ################################################################################
  #     valence basis states
      valence      1  s   1.
  #     ion occupancy
      ion_occ      1  s   0.5
  ################################################################################
  #
  #  Suggested additional basis functions. For production calculations,
  #  uncomment them one after another (the most important basis functions are
  #  listed first).
  #
  #  Basis constructed for dimers: 0.5 A, 0.7 A, 1.0 A, 1.5 A, 2.5 A
  #
  ################################################################################
  #  "First tier" - improvements: -1014.90 meV to -62.69 meV
       hydro 2 s 2.1
       hydro 2 p 3.5
  #  "Second tier" - improvements: -12.89 meV to -1.83 meV
       hydro 1 s 0.85
       hydro 2 p 3.7
       hydro 2 s 1.2
       hydro 3 d 7
  #  "Third tier" - improvements: -0.25 meV to -0.12 meV
  #     hydro 4 f 11.2
  #     hydro 3 p 4.8
  #     hydro 4 d 9
  #     hydro 3 s 3.2
  ################################################################################
  #
  # For methods that use the localized form of the "resolution of identity" for
  # the two-electron Coulomb operator (RI_method LVL), particularly Hartree-Fock and
  # hybrid density functional calculations, the highest accuracy can be obtained by
  # uncommenting the line beginning with "for_aux"  below, thus adding an extra g radial
  # function to the construction of the product basis set for the expansion.
  # See Ref. New J. Phys. 17, 093020 (2015) for more information, particularly Figs. 1 and 6.
  #
  ################################################################################
  #
  # for_aux hydro 5 g 6.0
  ################################################################################
  #
  #  FHI-aims code project
  # Volker Blum, Fritz Haber Institute Berlin, 2009
  #
  #  Suggested "tight" defaults for C atom (to be pasted into control.in file)
  #
  ################################################################################
    species        C
  #     global species definitions
      nucleus             6
      mass                12.0107
  #
      l_hartree           6
  #
      cut_pot             4.0  2.0  1.0
      basis_dep_cutoff    1e-4
  #
      radial_base         34 7.0
      radial_multiplier   2
      angular_grids specified
        division   0.2187   50
        division   0.4416  110
        division   0.6335  194
        division   0.7727  302
        division   0.8772  434
  #      division   0.9334  590
  #      division   0.9924  770
  #      division   1.0230  974
  #      division   1.5020 1202
  #     outer_grid  974
        outer_grid  434
  ################################################################################
  #
  #  Definition of "minimal" basis
  #
  ################################################################################
  #     valence basis states
      valence      2  s   2.
      valence      2  p   2.
  #     ion occupancy
      ion_occ      2  s   1.
      ion_occ      2  p   1.
  ################################################################################
  #
  #  Suggested additional basis functions. For production calculations,
  #  uncomment them one after another (the most important basis functions are
  #  listed first).
  #
  #  Constructed for dimers: 1.0 A, 1.25 A, 1.5 A, 2.0 A, 3.0 A
  #
  ################################################################################
  #  "First tier" - improvements: -1214.57 meV to -155.61 meV
       hydro 2 p 1.7
       hydro 3 d 6
       hydro 2 s 4.9
  #  "Second tier" - improvements: -67.75 meV to -5.23 meV
       hydro 4 f 9.8
       hydro 3 p 5.2
       hydro 3 s 4.3
       hydro 5 g 14.4
       hydro 3 d 6.2
  #  "Third tier" - improvements: -2.43 meV to -0.60 meV
  #     hydro 2 p 5.6
  #     hydro 2 s 1.4
  #     hydro 3 d 4.9
  #     hydro 4 f 11.2
  #  "Fourth tier" - improvements: -0.39 meV to -0.18 meV
  #     hydro 2 p 2.1
  #     hydro 5 g 16.4
  #     hydro 4 d 13.2
  #     hydro 3 s 13.6
  #     hydro 4 f 17.6
  #  Further basis functions - improvements: -0.08 meV and below
  #     hydro 3 s 2
  #     hydro 3 p 6
  #     hydro 4 d 20
  ################################################################################
  #
  # For methods that use the localized form of the "resolution of identity" for
  # the two-electron Coulomb operator (RI_method LVL), particularly Hartree-Fock and
  # hybrid density functional calculations, the highest accuracy can be obtained by
  # uncommenting the line beginning with "for_aux"  below, thus adding an extra g radial
  # function to the construction of the product basis set for the expansion.
  # See Ref. New J. Phys. 17, 093020 (2015) for more information, particularly Figs. 1 and 6.
  #
  ################################################################################
  #
  # for_aux hydro 5 g 6.0
  ################################################################################
  #
  #  FHI-aims code project
  # Volker Blum, Fritz Haber Institute Berlin, 2009
  #
  #  Suggested "tight" defaults for N atom (to be pasted into control.in file)
  #
  ################################################################################
    species        N
  #     global species definitions
      nucleus             7
      mass                14.0067
  #
      l_hartree           6
  #
      cut_pot             4.0  2.0  1.0
      basis_dep_cutoff    1e-4
  #
      radial_base         35 7.0
      radial_multiplier   2
      angular_grids       specified
        division   0.1841   50
        division   0.3514  110
        division   0.5126  194
        division   0.6292  302
        division   0.6939  434
  #      division   0.7396  590
  #      division   0.7632  770
  #      division   0.8122  974
  #      division   1.1604 1202
  #      outer_grid  974
        outer_grid  434
  ################################################################################
  #
  #  Definition of "minimal" basis
  #
  ################################################################################
  #     valence basis states
      valence      2  s   2.
      valence      2  p   3.
  #     ion occupancy
      ion_occ      2  s   1.
      ion_occ      2  p   2.
  ################################################################################
  #
  #  Suggested additional basis functions. For production calculations,
  #  uncomment them one after another (the most important basis functions are
  #  listed first).
  #
  #  Constructed for dimers: 1.0 A, 1.1 A, 1.5 A, 2.0 A, 3.0 A
  #
  ################################################################################
  #  "First tier" - improvements: -1193.42 meV to -220.60 meV
       hydro 2 p 1.8
       hydro 3 d 6.8
       hydro 3 s 5.8
  #  "Second tier" - improvements: -80.21 meV to -6.86 meV
       hydro 4 f 10.8
       hydro 3 p 5.8
       hydro 1 s 0.8
       hydro 5 g 16
       hydro 3 d 4.9
  #  "Third tier" - improvements: -4.29 meV to -0.53 meV
  #     hydro 3 s 16
  #     ionic 2 p auto
  #     hydro 3 d 6.6
  #     hydro 4 f 11.6
  #  "Fourth tier" - improvements: -0.75 meV to -0.25 meV
  #     hydro 2 p 4.5
  #     hydro 2 s 2.4
  #     hydro 5 g 14.4
  #     hydro 4 d 14.4
  #     hydro 4 f 16.8
  # Further basis functions - -0.21 meV and below
  #     hydro 3 p 14.8
  #     hydro 3 s 4.4
  #     hydro 3 d 19.6
  #     hydro 5 g 12.8
  ################################################################################
  #
  # For methods that use the localized form of the "resolution of identity" for
  # the two-electron Coulomb operator (RI_method LVL), particularly Hartree-Fock and
  # hybrid density functional calculations, the highest accuracy can be obtained by
  # uncommenting the line beginning with "for_aux"  below, thus adding an extra g radial
  # function to the construction of the product basis set for the expansion.
  # See Ref. New J. Phys. 17, 093020 (2015) for more information, particularly Figs. 1 and 6.
  #
  ################################################################################
  #
  # for_aux hydro 5 g 6.0
  ################################################################################
  #
  #  FHI-aims code project
  # Volker Blum, Fritz Haber Institute Berlin, 2009
  #
  #  Suggested "tight" defaults for O atom (to be pasted into control.in file)
  #
  ################################################################################
    species        O
  #     global species definitions
      nucleus             8
      mass                15.9994
  #
      l_hartree           6
  #
      cut_pot             4.0  2.0  1.0
      basis_dep_cutoff    1e-4
  #
      radial_base         36 7.0
      radial_multiplier   2
       angular_grids specified
        division   0.1817   50
        division   0.3417  110
        division   0.4949  194
        division   0.6251  302
        division   0.8014  434
  #      division   0.8507  590
  #      division   0.8762  770
  #      division   0.9023  974
  #      division   1.2339 1202
  #      outer_grid 974
        outer_grid  434
  ################################################################################
  #
  #  Definition of "minimal" basis
  #
  ################################################################################
  #     valence basis states
      valence      2  s   2.
      valence      2  p   4.
  #     ion occupancy
      ion_occ      2  s   1.
      ion_occ      2  p   3.
  ################################################################################
  #
  #  Suggested additional basis functions. For production calculations,
  #  uncomment them one after another (the most important basis functions are
  #  listed first).
  #
  #  Constructed for dimers: 1.0 A, 1.208 A, 1.5 A, 2.0 A, 3.0 A
  #
  ################################################################################
  #  "First tier" - improvements: -699.05 meV to -159.38 meV
       hydro 2 p 1.8
       hydro 3 d 7.6
       hydro 3 s 6.4
  #  "Second tier" - improvements: -49.91 meV to -5.39 meV
       hydro 4 f 11.6
       hydro 3 p 6.2
       hydro 3 d 5.6
       hydro 5 g 17.6
       hydro 1 s 0.75
  #  "Third tier" - improvements: -2.83 meV to -0.50 meV
  #     ionic 2 p auto
  #     hydro 4 f 10.8
  #     hydro 4 d 4.7
  #     hydro 2 s 6.8
  #  "Fourth tier" - improvements: -0.40 meV to -0.12 meV
  #     hydro 3 p 5
  #     hydro 3 s 3.3
  #     hydro 5 g 15.6
  #     hydro 4 f 17.6
  #     hydro 4 d 14
  # Further basis functions - -0.08 meV and below
  #     hydro 3 s 2.1
  #     hydro 4 d 11.6
  #     hydro 3 p 16
  #     hydro 2 s 17.2
  ################################################################################
  #
  # For methods that use the localized form of the "resolution of identity" for
  # the two-electron Coulomb operator (RI_method LVL), particularly Hartree-Fock and
  # hybrid density functional calculations, the highest accuracy can be obtained by
  # uncommenting the line beginning with "for_aux"  below, thus adding an extra g radial
  # function to the construction of the product basis set for the expansion.
  # See Ref. New J. Phys. 17, 093020 (2015) for more information, particularly Figs. 1 and 6.
  #
  ################################################################################
  #
  # for_aux hydro 5 g 6.0
  
  -----------------------------------------------------------------------
  Completed first pass over input file control.in .
  -----------------------------------------------------------------------
  
  
  -----------------------------------------------------------------------
  Parsing geometry.in (first pass over file, find array dimensions only).
  The contents of geometry.in will be repeated verbatim below
  unless switched off by setting 'verbatim_writeout .false.' .
  in the first line of geometry.in .
  -----------------------------------------------------------------------
  
  #
  # This is the geometry file that corresponds to the current relaxation step.
  # If you do not want this file to be written, set the "write_restart_geometry" flag to .false.
  #
  atom       0.30287084      0.45668802      0.85057749 C
  atom      -0.28277416     -0.05254147      2.14956246 C
  atom       0.01452103      0.44413863      3.23979697 O
  atom       0.18946114     -0.24544919      0.01557210 H
  atom       1.36503427      0.67886751      0.99942794 H
  atom      -0.20327835      1.39687998      0.59082140 H
  atom      -1.16650040     -1.08741758      2.03750755 N
  atom      -1.95388465     -1.53724447      3.19008656 C
  atom      -2.72935189     -0.28719684      3.72006804 C
  atom      -3.23750816      0.44192433      2.86867206 O
  atom      -1.52826576     -1.29064192      1.11391510 H
  atom      -2.76584980     -2.15201430      2.77121412 H
  atom      -1.08923655     -2.44171303      4.07350596 C
  atom      -0.18476177     -1.92872043      4.40897859 H
  atom      -0.78497760     -3.30994487      3.47478605 H
  atom      -1.61931951     -2.81980707      4.95214764 H
  atom      -2.89065661      0.04190683      5.04356425 N
  atom      -2.69894341     -0.63588434      6.33055380 C
  atom      -1.22830121     -0.84111032      6.77838589 C
  atom      -0.97439704     -1.61474059      7.70215135 O
  atom      -3.45914099      0.88399738      5.09029141 H
  atom      -3.05513486      0.10682688      7.06333349 H
  atom      -3.57110550     -1.88012626      6.52359877 C
  atom      -3.33836029     -2.33939795      7.49057006 H
  atom      -3.40598217     -2.63049105      5.74159360 H
  atom      -4.63173419     -1.60030038      6.50029605 H
  atom      -0.31625637     -0.04685175      6.16683654 N
  atom       1.09824022     -0.12555757      6.47867535 C
  atom      -0.57211836      0.40991473      5.29194651 H
  atom       1.46730905      0.82626250      6.88670583 H
  atom       1.67406954     -0.36015939      5.57293240 H
  atom       1.24442248     -0.91313005      7.22585669 H
  
  -----------------------------------------------------------------------
  Completed first pass over input file geometry.in .
  -----------------------------------------------------------------------
  

  Basic array size parameters:
  | Number of species                 :        4
  | Number of atoms                   :       32
  | Max. basis fn. angular momentum   :        4
  | Max. atomic/ionic basis occupied n:        2
  | Max. number of basis fn. types    :        2
  | Max. radial fns per species/type  :        8
  | Max. logarithmic grid size        :     1301
  | Max. radial integration grid size :       73
  | Max. angular integration grid size:      434
  | Max. angular grid division number :        8
  | Radial grid for Hartree potential :     1301
  | Number of spin channels           :        1

------------------------------------------------------------
          Reading file control.in.
------------------------------------------------------------
  XC: Using PBE gradient-corrected functionals.
  Spin treatment: No spin polarisation.
  Charge =   0.000000E+00: Neutral system requested explicitly.
  Occupation type: Gaussian broadening, width =   0.500000E-01 eV.
  Using pulay charge density mixing.
  Pulay mixing - number of memorized iterations:   10
  Charge density mixing - mixing parameter:     0.5000
  Convergence accuracy of self-consistent charge density:  0.1000E-03
  Convergence accuracy of sum of eigenvalues:  0.1000E-01
  Convergence accuracy of total energy:  0.1000E-04
  Convergence accuracy of forces:  0.1000E-03
  Maximum number of s.-c. iterations  :  1000
  Fitting ESP-charges to Potential. 
  | Esp charge output options: 
  | ESP Grid method: 3, cubic grid
  | Number of points in x, ,y, z:  0080 0080 0080
  |
 
  Reading configuration options for species H                   .
  | Found nuclear charge :   1.0000
  | Found atomic mass :    1.00794000000000      amu
  | Found l_max for Hartree potential  :   6
  | Found cutoff potl. onset [A], width [A], scale factor :    4.00000    2.00000    1.00000
  | Threshold for basis-dependent cutoff potential is   0.100000E-03
  | Found data for basic radial integration grid :    24 points, outermost radius =    7.000 A
  | Found multiplier for basic radial grid :   2
  | Found angular grid specification: user-specified.
  | Specified grid contains     6 separate shells.
  | Check grid settings after all constraints further below.
  | Found free-atom valence shell :  1 s   1.000
  | No ionic wave fns used. Skipping ion_occ.
  | Found hydrogenic basis function :  2 s   2.100
  | Found hydrogenic basis function :  2 p   3.500
  | Found hydrogenic basis function :  1 s   0.850
  | Found hydrogenic basis function :  2 p   3.700
  | Found hydrogenic basis function :  2 s   1.200
  | Found hydrogenic basis function :  3 d   7.000
  Species H                   : Missing cutoff potential type.
  Defaulting to exp(1/x)/(1-x)^2 type cutoff potential.
  Species H : No 'logarithmic' tag. Using default grid for free atom:
  | Default logarithmic grid data [bohr] : 0.1000E-03 0.1000E+03 0.1012E+01
  Species H : On-site basis accuracy parameter (for Gram-Schmidt orthonormalisation) not specified.
  Using default value basis_acc =  0.1000000E-03.
  Species H                   : Using default innermost maximum threshold i_radial=  2 for radial functions.
  Species H                   : Default cutoff onset for free atom density etc. : 0.40000000E+01 AA.
  Species H                   : Basic radial grid will be enhanced according to radial_multiplier =   2, to contain    49 grid points.
 
  Reading configuration options for species C                   .
  | Found nuclear charge :   6.0000
  | Found atomic mass :    12.0107000000000      amu
  | Found l_max for Hartree potential  :   6
  | Found cutoff potl. onset [A], width [A], scale factor :    4.00000    2.00000    1.00000
  | Threshold for basis-dependent cutoff potential is   0.100000E-03
  | Found data for basic radial integration grid :    34 points, outermost radius =    7.000 A
  | Found multiplier for basic radial grid :   2
  | Found angular grid specification: user-specified.
  | Specified grid contains     6 separate shells.
  | Check grid settings after all constraints further below.
  | Found free-atom valence shell :  2 s   2.000
  | Found free-atom valence shell :  2 p   2.000
  | No ionic wave fns used. Skipping ion_occ.
  | No ionic wave fns used. Skipping ion_occ.
  | Found hydrogenic basis function :  2 p   1.700
  | Found hydrogenic basis function :  3 d   6.000
  | Found hydrogenic basis function :  2 s   4.900
  | Found hydrogenic basis function :  4 f   9.800
  | Found hydrogenic basis function :  3 p   5.200
  | Found hydrogenic basis function :  3 s   4.300
  | Found hydrogenic basis function :  5 g  14.400
  | Found hydrogenic basis function :  3 d   6.200
  Species C                   : Missing cutoff potential type.
  Defaulting to exp(1/x)/(1-x)^2 type cutoff potential.
  Species C : No 'logarithmic' tag. Using default grid for free atom:
  | Default logarithmic grid data [bohr] : 0.1000E-03 0.1000E+03 0.1012E+01
  Species C : On-site basis accuracy parameter (for Gram-Schmidt orthonormalisation) not specified.
  Using default value basis_acc =  0.1000000E-03.
  Species C                   : Using default innermost maximum threshold i_radial=  2 for radial functions.
  Species C                   : Default cutoff onset for free atom density etc. : 0.40000000E+01 AA.
  Species C                   : Basic radial grid will be enhanced according to radial_multiplier =   2, to contain    69 grid points.
 
  Reading configuration options for species N                   .
  | Found nuclear charge :   7.0000
  | Found atomic mass :    14.0067000000000      amu
  | Found l_max for Hartree potential  :   6
  | Found cutoff potl. onset [A], width [A], scale factor :    4.00000    2.00000    1.00000
  | Threshold for basis-dependent cutoff potential is   0.100000E-03
  | Found data for basic radial integration grid :    35 points, outermost radius =    7.000 A
  | Found multiplier for basic radial grid :   2
  | Found angular grid specification: user-specified.
  | Specified grid contains     6 separate shells.
  | Check grid settings after all constraints further below.
  | Found free-atom valence shell :  2 s   2.000
  | Found free-atom valence shell :  2 p   3.000
  | No ionic wave fns used. Skipping ion_occ.
  | No ionic wave fns used. Skipping ion_occ.
  | Found hydrogenic basis function :  2 p   1.800
  | Found hydrogenic basis function :  3 d   6.800
  | Found hydrogenic basis function :  3 s   5.800
  | Found hydrogenic basis function :  4 f  10.800
  | Found hydrogenic basis function :  3 p   5.800
  | Found hydrogenic basis function :  1 s   0.800
  | Found hydrogenic basis function :  5 g  16.000
  | Found hydrogenic basis function :  3 d   4.900
  Species N                   : Missing cutoff potential type.
  Defaulting to exp(1/x)/(1-x)^2 type cutoff potential.
  Species N : No 'logarithmic' tag. Using default grid for free atom:
  | Default logarithmic grid data [bohr] : 0.1000E-03 0.1000E+03 0.1012E+01
  Species N : On-site basis accuracy parameter (for Gram-Schmidt orthonormalisation) not specified.
  Using default value basis_acc =  0.1000000E-03.
  Species N                   : Using default innermost maximum threshold i_radial=  2 for radial functions.
  Species N                   : Default cutoff onset for free atom density etc. : 0.40000000E+01 AA.
  Species N                   : Basic radial grid will be enhanced according to radial_multiplier =   2, to contain    71 grid points.
 
  Reading configuration options for species O                   .
  | Found nuclear charge :   8.0000
  | Found atomic mass :    15.9994000000000      amu
  | Found l_max for Hartree potential  :   6
  | Found cutoff potl. onset [A], width [A], scale factor :    4.00000    2.00000    1.00000
  | Threshold for basis-dependent cutoff potential is   0.100000E-03
  | Found data for basic radial integration grid :    36 points, outermost radius =    7.000 A
  | Found multiplier for basic radial grid :   2
  | Found angular grid specification: user-specified.
  | Specified grid contains     6 separate shells.
  | Check grid settings after all constraints further below.
  | Found free-atom valence shell :  2 s   2.000
  | Found free-atom valence shell :  2 p   4.000
  | No ionic wave fns used. Skipping ion_occ.
  | No ionic wave fns used. Skipping ion_occ.
  | Found hydrogenic basis function :  2 p   1.800
  | Found hydrogenic basis function :  3 d   7.600
  | Found hydrogenic basis function :  3 s   6.400
  | Found hydrogenic basis function :  4 f  11.600
  | Found hydrogenic basis function :  3 p   6.200
  | Found hydrogenic basis function :  3 d   5.600
  | Found hydrogenic basis function :  5 g  17.600
  | Found hydrogenic basis function :  1 s   0.750
  Species O                   : Missing cutoff potential type.
  Defaulting to exp(1/x)/(1-x)^2 type cutoff potential.
  Species O : No 'logarithmic' tag. Using default grid for free atom:
  | Default logarithmic grid data [bohr] : 0.1000E-03 0.1000E+03 0.1012E+01
  Species O : On-site basis accuracy parameter (for Gram-Schmidt orthonormalisation) not specified.
  Using default value basis_acc =  0.1000000E-03.
  Species O                   : Using default innermost maximum threshold i_radial=  2 for radial functions.
  Species O                   : Default cutoff onset for free atom density etc. : 0.40000000E+01 AA.
  Species O                   : Basic radial grid will be enhanced according to radial_multiplier =   2, to contain    73 grid points.
 
  Finished reading input file 'control.in'. Consistency checks are next.
 
  Target number of points in a grid batch is not set. Defaulting to  100
  Method for grid partitioning is not set. Defaulting to parallel hash+maxmin partitioning.
  Batch size limit is not set. Defaulting to    200
  By default, will store active basis functions for each batch.
  If in need of memory, prune_basis_once .false. can be used to disable this option.
  communication_type for Hartree potential was not specified.
  Defaulting to calc_hartree .
  Pulay mixer: Number of initial linear mixing iterations not set.
  Defaulting to    0 iterations.
  Work space size for distributed Hartree potential not set.
  Defaulting to   0.200000E+03 MB.
  Algorithm-dependent basis array size parameters:
  | n_max_pulay                         :       10
  Geometry relaxation not requested: no relaxation will be performed.
  Handling of forces: Unphysical translation and rotation will be removed from forces.
  No accuracy limit for integral partition fn. given. Defaulting to  0.1000E-14.
  No threshold value for u(r) in integrations given. Defaulting to  0.1000E-05.
  No accuracy for occupation numbers given. Defaulting to  0.1000E-07.
  No threshold value for occupation numbers given. Defaulting to  0.0000E+00.
  No accuracy for fermi level given. Defaulting to  0.1000E-19.
  Maximum # of iterations to find E_F not set. Defaulting to  200.
  Preferred method for the eigenvalue solver ('KS_method') not specified in 'control.in'.
  Calling blacs routine to test compilation state
  Since scalapack support is enabled, defaulting to 'elpa'.
  Preferred method for the MBD eigenvalue solver ('mbd_eigensolver') not specified in 'control.in'.
  Calling blacs routine to test compilation state
  Since scalapack support is enabled, defaulting to 'scaLAPACK'.
  Will not use alltoall communication since running on < 1024 CPUs.
  Threshold for basis singularities not set.
  Default threshold for basis singularities:  0.1000E-04
  partition_type (choice of integration weights) for integrals was not specified.
  | Using a version of the partition function of Stratmann and coworkers ('stratmann_smoother').
  | At each grid point, the set of atoms used to build the partition table is smoothly restricted to
  | only those atoms whose free-atom density would be non-zero at that grid point.
  Partitioning for Hartree potential was not defined. Using partition_type for integrals.
  | Adjusted default value of keyword multip_moments_threshold to:       0.10000000E-11
  | This value may affect high angular momentum components of the Hartree potential in periodic systems.
  No q(lm)/r^(l+1) cutoff set for long-range Hartree potential.
  | Using default value of  0.100000E-09 .
  | Verify using the multipole_threshold keyword.
  Defaulting to new monopole extrapolation.
  Density update method: automatic selection selected.
------------------------------------------------------------


------------------------------------------------------------
          Reading geometry description geometry.in.
------------------------------------------------------------
 * Warning! You did not set the 'relativistic' flag in input file 'control.in'.
 * Since you are not attempting to treat any elements beyond Ca(Z=20), FHI-aims
 * will default to 'relativistic none'.
 * You must ensure that this is really what you want!!
 * For example, DO NOT compute total-energy differences between results from
 * different settings of the 'relativistic' flag.
  Input structure read successfully.
  The structure contains       32 atoms,  and a total of        116.000 electrons.

  Input geometry:
  | No unit cell requested.
  | Atomic structure:
  |       Atom                x [A]            y [A]            z [A]
  |    1: Species C              0.302871         0.456688         0.850577
  |    2: Species C             -0.282774        -0.052541         2.149562
  |    3: Species O              0.014521         0.444139         3.239797
  |    4: Species H              0.189461        -0.245449         0.015572
  |    5: Species H              1.365034         0.678868         0.999428
  |    6: Species H             -0.203278         1.396880         0.590821
  |    7: Species N             -1.166500        -1.087418         2.037508
  |    8: Species C             -1.953885        -1.537244         3.190087
  |    9: Species C             -2.729352        -0.287197         3.720068
  |   10: Species O             -3.237508         0.441924         2.868672
  |   11: Species H             -1.528266        -1.290642         1.113915
  |   12: Species H             -2.765850        -2.152014         2.771214
  |   13: Species C             -1.089237        -2.441713         4.073506
  |   14: Species H             -0.184762        -1.928720         4.408979
  |   15: Species H             -0.784978        -3.309945         3.474786
  |   16: Species H             -1.619320        -2.819807         4.952148
  |   17: Species N             -2.890657         0.041907         5.043564
  |   18: Species C             -2.698943        -0.635884         6.330554
  |   19: Species C             -1.228301        -0.841110         6.778386
  |   20: Species O             -0.974397        -1.614741         7.702151
  |   21: Species H             -3.459141         0.883997         5.090291
  |   22: Species H             -3.055135         0.106827         7.063333
  |   23: Species C             -3.571105        -1.880126         6.523599
  |   24: Species H             -3.338360        -2.339398         7.490570
  |   25: Species H             -3.405982        -2.630491         5.741594
  |   26: Species H             -4.631734        -1.600300         6.500296
  |   27: Species N             -0.316256        -0.046852         6.166837
  |   28: Species C              1.098240        -0.125558         6.478675
  |   29: Species H             -0.572118         0.409915         5.291947
  |   30: Species H              1.467309         0.826263         6.886706
  |   31: Species H              1.674070        -0.360159         5.572932
  |   32: Species H              1.244422        -0.913130         7.225857
  |

  | The smallest distance between any two atoms is         1.01252028 AA.
  |
  | The first atom of this pair is atom number                      7 .
  | The second atom of this pair is atom number                    11 .

  Number of empty states per atom not set in control.in - providing a guess from actual geometry.
  | Total number of empty states used during s.c.f. cycle:       71
  If you use a very high smearing, use empty_states (per atom!) in control.in to increase this value.

  Structure-dependent array size parameters: 
  | Maximum number of distinct radial functions  :       40
  | Maximum number of basis functions            :      840
  | Number of Kohn-Sham states (occupied + empty):      129
------------------------------------------------------------

------------------------------------------------------------
          Preparing all fixed parts of the calculation.
------------------------------------------------------------
  Determining machine precision:
    2.225073858507201E-308
  Setting up grids for atomic and cluster calculations.

  Creating wave function, potential, and density for free atoms.

  Species: H

  List of occupied orbitals and eigenvalues:
    n    l              occ      energy [Ha]    energy [eV]
    1    0           1.0000        -0.238382        -6.4867


  Species: C

  List of occupied orbitals and eigenvalues:
    n    l              occ      energy [Ha]    energy [eV]
    1    0           2.0000       -10.041232      -273.2358
    2    0           2.0000        -0.504327       -13.7234
    2    1           2.0000        -0.193750        -5.2722


  Species: N

  List of occupied orbitals and eigenvalues:
    n    l              occ      energy [Ha]    energy [eV]
    1    0           2.0000       -14.129007      -384.4699
    2    0           2.0000        -0.681802       -18.5528
    2    1           3.0000        -0.260543        -7.0897


  Species: O

  List of occupied orbitals and eigenvalues:
    n    l              occ      energy [Ha]    energy [eV]
    1    0           2.0000       -18.898576      -514.2564
    2    0           2.0000        -0.878795       -23.9132
    2    1           4.0000        -0.332075        -9.0362

  Creating fixed part of basis set: Ionic, confined, hydrogenic.
 
  H                    hydrogenic:
 
  List of hydrogenic basis orbitals: 
    n    l      effective z      eigenvalue [eV]  inner max. [A]     outer max. [A]     outer radius [A]   
    2    0         2.100000       -14.9965           0.193243           1.317208           5.373006
    2    1         3.500000       -41.6672           0.602369           0.602369           4.056063
    1    0         0.850000        -9.8292           0.624871           0.624871           5.373006
    2    1         3.700000       -46.5653           0.573622           0.573622           3.910002
    2    0         1.200000        -4.5995           0.334980           2.228188           5.505995
    3    2         7.000000       -74.0753           0.680699           0.680699           3.769201
 
 
  C                    hydrogenic:
 
  List of hydrogenic basis orbitals: 
    n    l      effective z      eigenvalue [eV]  inner max. [A]     outer max. [A]     outer radius [A]   
    2    1         1.700000        -9.8152           1.245706           1.245706           5.401630
    3    2         6.000000       -54.4226           0.792453           0.792453           4.178599
    2    0         4.900000       -81.6681           0.082559           0.562749           3.353238
    4    3         9.800000       -81.6681           0.863254           0.863254           4.028125
    3    1         5.200000       -40.8774           0.305389           1.215618           4.898362
    3    0         4.300000       -27.9508           0.091041           1.610311           5.401630
    5    4        14.400000      -112.8510           0.917666           0.917666           3.883070
    3    2         6.200000       -58.1113           0.763917           0.763917           4.077671
 
 
  N                    hydrogenic:
 
  List of hydrogenic basis orbitals: 
    n    l      effective z      eigenvalue [eV]  inner max. [A]     outer max. [A]     outer radius [A]   
    2    1         1.800000       -11.0118           1.177451           1.177451           5.427479
    3    2         6.800000       -69.9029           0.704619           0.704619           3.854246
    3    0         5.800000       -50.8549           0.067388           1.191934           4.629968
    4    3        10.800000       -99.1854           0.786571           0.786571           3.761152
    3    1         5.800000       -50.8549           0.274880           1.094176           4.518138
    1    0         0.800000        -8.7059           0.662839           0.662839           5.361532
    5    4        16.000000      -139.3222           0.825990           0.825990           3.625711
    3    2         4.900000       -36.2967           0.968267           0.968267           4.862000
 
 
  O                    hydrogenic:
 
  List of hydrogenic basis orbitals: 
    n    l      effective z      eigenvalue [eV]  inner max. [A]     outer max. [A]     outer radius [A]   
    2    1         1.800000       -11.0118           1.178562           1.178562           5.432602
    3    2         7.600000       -87.3182           0.624125           0.624125           3.541477
    3    0         6.400000       -61.9209           0.061167           1.081902           4.306578
    4    3        11.600000      -114.4238           0.731631           0.731631           3.585037
    3    1         6.200000       -58.1113           0.255680           1.030270           4.306578
    3    2         5.600000       -47.4081           0.847233           0.847233           4.413171
    5    4        17.600000      -168.5799           0.749740           0.749740           3.372465
    1    0         0.750000        -7.6499           0.705284           0.705284           5.366593
 

  Adding cutoff potential to free-atom effective potential.
  Creating atomic-like basis functions for current effective potential.

  Species H                   :

  List of atomic basis orbitals and eigenvalues:
    n    l      energy [Ha]    energy [eV]    outer radius [A]
    1    0        -0.238382        -6.4867       5.373006


  Species C                   :

  List of atomic basis orbitals and eigenvalues:
    n    l      energy [Ha]    energy [eV]    outer radius [A]
    1    0       -10.041232      -273.2358       1.934409
    2    0        -0.504327       -13.7234       5.271162
    2    1        -0.193750        -5.2722       5.401630


  Species N                   :

  List of atomic basis orbitals and eigenvalues:
    n    l      energy [Ha]    energy [eV]    outer radius [A]
    1    0       -14.129007      -384.4699       1.637919
    2    0        -0.681802       -18.5528       5.168461
    2    1        -0.260543        -7.0897       5.361532


  Species O                   :

  List of atomic basis orbitals and eigenvalues:
    n    l      energy [Ha]    energy [eV]    outer radius [A]
    1    0       -18.898576      -514.2564       1.415765
    2    0        -0.878795       -23.9132       5.048385
    2    1        -0.332075        -9.0362       5.301386

  Assembling full basis from fixed parts.
  | Species H :   atomic orbital   1 s accepted.
  | Species H :    hydro orbital   2 s accepted.
  | Species H :    hydro orbital   1 s accepted.
  | Species H :    hydro orbital   2 s accepted.
  | Species H :    hydro orbital   2 p accepted.
  | Species H :    hydro orbital   2 p accepted.
  | Species H :    hydro orbital   3 d accepted.
  | Species C :   atomic orbital   1 s accepted.
  | Species C :    hydro orbital   2 s accepted.
  | Species C :   atomic orbital   2 s accepted.
  | Species C :    hydro orbital   3 s accepted.
  | Species C :    hydro orbital   3 p accepted.
  | Species C :   atomic orbital   2 p accepted.
  | Species C :    hydro orbital   2 p accepted.
  | Species C :    hydro orbital   3 d accepted.
  | Species C :    hydro orbital   3 d accepted.
  | Species C :    hydro orbital   4 f accepted.
  | Species C :    hydro orbital   5 g accepted.
  | Species N :   atomic orbital   1 s accepted.
  | Species N :    hydro orbital   3 s accepted.
  | Species N :   atomic orbital   2 s accepted.
  | Species N :    hydro orbital   1 s accepted.
  | Species N :    hydro orbital   3 p accepted.
  | Species N :   atomic orbital   2 p accepted.
  | Species N :    hydro orbital   2 p accepted.
  | Species N :    hydro orbital   3 d accepted.
  | Species N :    hydro orbital   3 d accepted.
  | Species N :    hydro orbital   4 f accepted.
  | Species N :    hydro orbital   5 g accepted.
  | Species O :   atomic orbital   1 s accepted.
  | Species O :    hydro orbital   3 s accepted.
  | Species O :   atomic orbital   2 s accepted.
  | Species O :    hydro orbital   1 s accepted.
  | Species O :    hydro orbital   3 p accepted.
  | Species O :   atomic orbital   2 p accepted.
  | Species O :    hydro orbital   2 p accepted.
  | Species O :    hydro orbital   3 d accepted.
  | Species O :    hydro orbital   3 d accepted.
  | Species O :    hydro orbital   4 f accepted.
  | Species O :    hydro orbital   5 g accepted.
 
  Basis size parameters after reduction:
  | Total number of radial functions:       40
  | Total number of basis functions :      840
 
  Testing on-site integration grid accuracy.
  |  Species  Function  <phi|h_atom|phi> (log., in eV)  <phi|h_atom|phi> (rad., in eV)
           1        1                 -6.4869821809                 -6.4870742227
           1        2                 13.5044133542                 13.5041049177
           1        3                 32.7854418792                 32.7779770519
           1        4                 33.7995553101                 33.7152624900 ***
           1        5                 28.8558651799                 28.8558652046
           1        6                 59.6361831893                 59.6362535845
           1        7                 60.2733718049                 60.2733715484
           2        8               -273.2358277112               -273.2358261765
           2        9                -10.7624923123                -10.7625144012
           2       10                 17.4634079027                 17.4634252127
           2       11                 53.0363661832                 53.0366180446
           2       12                 15.0981351967                 15.0981317714
           2       13                  3.8522181899                  3.8522770949
           2       14                 12.1181835661                 12.1206868578
           2       15                 29.4320778347                 29.4320780959
           2       16                 54.8753777694                 54.8752901936
           2       17                 59.3533975461                 59.3533974833
           2       18                 93.4537491195                 93.4537492066
           3       19               -384.4698526889               -384.4698499465
           3       20                 12.5691022037                 12.5690910168
           3       21                -15.7489097511                -15.7489165588
           3       22                 27.0978334940                 27.0985589490
           3       23                 18.5949116966                 18.5949125562
           3       24                  1.2212828291                  1.2212855301
           3       25                 13.4428926797                 13.4434051125
           3       26                 35.9380614500                 35.9380613666
           3       27                 39.9231532098                 39.9231654735
           3       28                 72.9957335806                 72.9957336833
           3       29                116.4231321147                116.4231321431
           4       30               -514.2564144315               -514.2564099626
           4       31                 15.1726678541                 15.1726530877
           4       32                -21.5447785304                -21.5447874973
           4       33                 14.4944558459                 14.4944698284
           4       34                 20.8882174564                 20.8882178906
           4       35                 -2.4850315908                 -2.4850322289
           4       36                 13.8600193195                 13.8599826966
           4       37                 45.8243383616                 45.8243383675
           4       38                 52.1840606465                 52.1840622440
           4       39                 85.4074185510                 85.4074185819
           4       40                142.0983717302                142.0983717339
 * Note: Onsite integrals marked "***" above are less accurate than
 * onsite_accuracy_threshold =    0.03000 eV. Usually, this is harmless.
 * When in doubt, tighten the "radial" and/or "radial_multiplier" flags to check.

  Preparing densities etc. for the partition functions (integrals / Hartree potential).

  Preparations completed.
  max(cpu_time)          :      0.240 s.
  Wall clock time (cpu1) :      0.236 s.
------------------------------------------------------------

------------------------------------------------------------
          Begin self-consistency loop: Initialization.

          Date     :  20170309, Time     :  182211.318
------------------------------------------------------------

  Initializing index lists of integration centers etc. from given atomic structure:
  | Number of centers in hartree potential         :        32
  | Number of centers in hartree multipole         :        32
  | Number of centers in electron density summation:        32
  | Number of centers in basis integrals           :        32
  | Number of centers in integrals                 :        32
  | Number of centers in hamiltonian               :        32
  Using modified Scalapack Eigenvalue solver (ELPA)
  * Using 32 tasks for Scalapack Eigenvalue solver.
  Detailed listing of tasks and assigned k-points:
  (for non-periodic systems, the "k-point" denotes an internal label only)
   Task     0 k-point     1 on eos221
   Task     1 k-point     1 on eos221
   Task     2 k-point     1 on eos221
   Task     3 k-point     1 on eos221
   Task     4 k-point     1 on eos221
   Task     5 k-point     1 on eos221
   Task     6 k-point     1 on eos221
   Task     7 k-point     1 on eos221
   Task     8 k-point     1 on eos221
   Task     9 k-point     1 on eos221
   Task    10 k-point     1 on eos221
   Task    11 k-point     1 on eos221
   Task    12 k-point     1 on eos221
   Task    13 k-point     1 on eos221
   Task    14 k-point     1 on eos221
   Task    15 k-point     1 on eos221
   Task    16 k-point     1 on eos221
   Task    17 k-point     1 on eos221
   Task    18 k-point     1 on eos221
   Task    19 k-point     1 on eos221
   Task    20 k-point     1 on eos221
   Task    21 k-point     1 on eos221
   Task    22 k-point     1 on eos221
   Task    23 k-point     1 on eos221
   Task    24 k-point     1 on eos221
   Task    25 k-point     1 on eos221
   Task    26 k-point     1 on eos221
   Task    27 k-point     1 on eos221
   Task    28 k-point     1 on eos221
   Task    29 k-point     1 on eos221
   Task    30 k-point     1 on eos221
   Task    31 k-point     1 on eos221
  Tasks:    32 split into      8 X      4 BLACS grid
  Calculating blocksize based on n_basis =          840 max_nprow =            8 max_npcol =            4
  Scalapack blocksize set to:           16
  Required Scalapack workspace - INTEGER:            1 REAL:             1
  Partitioning the integration grid into batches with parallel hashing+maxmin method.
  | Number of batches:     5166
  | Maximal batch size:     194
  | Minimal batch size:      25
  | Average batch size:     102.154
  | Standard deviation of batch sizes:      36.677

  Integration load balanced across    32 MPI tasks.
  Work distribution over tasks is as follows:
  Task     0 has      16510 integration points.
  Task     1 has      16534 integration points.
  Task     2 has      16469 integration points.
  Task     3 has      16525 integration points.
  Task     4 has      16524 integration points.
  Task     5 has      16479 integration points.
  Task     6 has      16483 integration points.
  Task     7 has      16502 integration points.
  Task     8 has      16449 integration points.
  Task     9 has      16505 integration points.
  Task    10 has      16474 integration points.
  Task    11 has      16506 integration points.
  Task    12 has      16480 integration points.
  Task    13 has      16499 integration points.
  Task    14 has      16431 integration points.
  Task    15 has      16439 integration points.
  Task    16 has      16435 integration points.
  Task    17 has      16504 integration points.
  Task    18 has      16502 integration points.
  Task    19 has      16474 integration points.
  Task    20 has      16555 integration points.
  Task    21 has      16505 integration points.
  Task    22 has      16507 integration points.
  Task    23 has      16437 integration points.
  Task    24 has      16433 integration points.
  Task    25 has      16553 integration points.
  Task    26 has      16540 integration points.
  Task    27 has      16449 integration points.
  Task    28 has      16501 integration points.
  Task    29 has      16508 integration points.
  Task    30 has      16564 integration points.
  Task    31 has      16452 integration points.
  Initializing partition tables, free-atom densities, potentials, etc. across the integration grid (initialize_grid_storage).
  | initialize_grid_storage: Actual outermost partition radius vs. multipole_radius_free
  | (-- VB: in principle, multipole_radius_free should be larger, hence this output)
  | Species        1: Confinement radius =              6.000000000000000 AA, multipole_radius_free =              6.071692442739658 AA.
  | Species        1: outer_partition_radius set to              6.071692442739658 AA .
  | Species        2: Confinement radius =              6.000000000000000 AA, multipole_radius_free =              6.029870734432609 AA.
  | Species        2: outer_partition_radius set to              6.029870734432609 AA .
  | Species        3: Confinement radius =              6.000000000000000 AA, multipole_radius_free =              6.058726835495003 AA.
  | Species        3: outer_partition_radius set to              6.058726835495003 AA .
  | Species        4: Confinement radius =              6.000000000000000 AA, multipole_radius_free =              6.064445521808699 AA.
  | Species        4: outer_partition_radius set to              6.064445521808699 AA .
  | Original list of interatomic distances with          32 x         32 entries is created.
  | Net number of integration points:   527728
  | of which are non-zero points    :   412593
  Obtaining max. number of non-zero basis functions in each batch (get_n_compute_maxes).
  | Maximal number of non-zero basis functions:      801 in task     0
  | Maximal number of non-zero basis functions:      801 in task     1
  | Maximal number of non-zero basis functions:      787 in task     2
  | Maximal number of non-zero basis functions:      807 in task     3
  | Maximal number of non-zero basis functions:      777 in task     4
  | Maximal number of non-zero basis functions:      793 in task     5
  | Maximal number of non-zero basis functions:      802 in task     6
  | Maximal number of non-zero basis functions:      791 in task     7
  | Maximal number of non-zero basis functions:      791 in task     8
  | Maximal number of non-zero basis functions:      795 in task     9
  | Maximal number of non-zero basis functions:      768 in task    10
  | Maximal number of non-zero basis functions:      801 in task    11
  | Maximal number of non-zero basis functions:      782 in task    12
  | Maximal number of non-zero basis functions:      773 in task    13
  | Maximal number of non-zero basis functions:      789 in task    14
  | Maximal number of non-zero basis functions:      797 in task    15
  | Maximal number of non-zero basis functions:      799 in task    16
  | Maximal number of non-zero basis functions:      798 in task    17
  | Maximal number of non-zero basis functions:      799 in task    18
  | Maximal number of non-zero basis functions:      800 in task    19
  | Maximal number of non-zero basis functions:      797 in task    20
  | Maximal number of non-zero basis functions:      797 in task    21
  | Maximal number of non-zero basis functions:      804 in task    22
  | Maximal number of non-zero basis functions:      803 in task    23
  | Maximal number of non-zero basis functions:      798 in task    24
  | Maximal number of non-zero basis functions:      794 in task    25
  | Maximal number of non-zero basis functions:      808 in task    26
  | Maximal number of non-zero basis functions:      785 in task    27
  | Maximal number of non-zero basis functions:      788 in task    28
  | Maximal number of non-zero basis functions:      800 in task    29
  | Maximal number of non-zero basis functions:      808 in task    30
  | Maximal number of non-zero basis functions:      811 in task    31
  Selecting the method for density update.
  Loop over occupied states selected for charge density update.
  Integrating Hamiltonian matrix: batch-based integration.
  Time summed over all CPUs for integration: real work       24.311 s, elapsed       25.068 s
  Integrating overlap matrix.
  Time summed over all CPUs for integration: real work       15.242 s, elapsed       15.694 s
  Deallocating overlap matrix.

  Updating Kohn-Sham eigenvalues, eigenvectors, occupation numbers, and Fermi level.
  Solving generalized eigenproblem
  Solving real symmetric generalised eigenvalue problem by standard ScaLAPACK.
  Transforming overlap matrix with ScaLAPACK and checking for singularities.
  : Overlap matrix is nonsingular, using Cholesky decomposition
  | Lowest eigenvalue:  0.871647E-04
  Factoring overlap matrix with Cholesky decomposition
  Using Cholesky factor for transformation
  Using 1-stage real ELPA solver
  Determining occupation numbers for Kohn-Sham eigenstates.
  | Chemical potential (Fermi level) in eV                 : -.96816101E+01
  | Error in electron count due to remaining E_F inaccuracy: 0.00000000E+00
  | Maximum occupation number of highest empty state:  0.00E+00

  Writing Kohn-Sham eigenvalues.

  State    Occupation    Eigenvalue [Ha]    Eigenvalue [eV]
      1       2.00000         -18.973994         -516.30865
      2       2.00000         -18.973870         -516.30527
      3       2.00000         -18.973850         -516.30472
      4       2.00000         -14.256768         -387.94640
      5       2.00000         -14.254721         -387.89069
      6       2.00000         -14.252027         -387.81738
      7       2.00000         -10.171867         -276.79059
      8       2.00000         -10.171331         -276.77599
      9       2.00000         -10.171315         -276.77557
     10       2.00000         -10.166942         -276.65658
     11       2.00000         -10.146984         -276.11348
     12       2.00000         -10.146075         -276.08874
     13       2.00000         -10.136601         -275.83094
     14       2.00000         -10.134930         -275.78547
     15       2.00000         -10.131489         -275.69184
     16       2.00000          -1.136545          -30.92695
     17       2.00000          -1.130526          -30.76319
     18       2.00000          -1.126762          -30.66077
     19       2.00000          -1.020720          -27.77521
     20       2.00000          -1.014373          -27.60250
     21       2.00000          -1.002637          -27.28314
     22       2.00000          -0.884293          -24.06283
     23       2.00000          -0.878532          -23.90607
     24       2.00000          -0.841752          -22.90523
     25       2.00000          -0.822919          -22.39278
     26       2.00000          -0.771978          -21.00660
     27       2.00000          -0.761645          -20.72541
     28       2.00000          -0.703321          -19.13835
     29       2.00000          -0.686775          -18.68809
     30       2.00000          -0.669921          -18.22947
     31       2.00000          -0.643740          -17.51705
     32       2.00000          -0.626401          -17.04523
     33       2.00000          -0.614907          -16.73247
     34       2.00000          -0.601963          -16.38024
     35       2.00000          -0.590479          -16.06776
     36       2.00000          -0.582976          -15.86358
     37       2.00000          -0.565533          -15.38895
     38       2.00000          -0.562027          -15.29354
     39       2.00000          -0.559667          -15.22932
     40       2.00000          -0.555822          -15.12470
     41       2.00000          -0.548428          -14.92349
     42       2.00000          -0.543514          -14.78978
     43       2.00000          -0.533436          -14.51553
     44       2.00000          -0.531139          -14.45302
     45       2.00000          -0.520588          -14.16593
     46       2.00000          -0.516391          -14.05170
     47       2.00000          -0.512178          -13.93707
     48       2.00000          -0.503127          -13.69078
     49       2.00000          -0.497530          -13.53848
     50       2.00000          -0.475641          -12.94285
     51       2.00000          -0.475011          -12.92571
     52       2.00000          -0.470198          -12.79473
     53       2.00000          -0.412762          -11.23182
     54       2.00000          -0.405345          -11.02999
     55       2.00000          -0.401881          -10.93575
     56       2.00000          -0.392607          -10.68339
     57       2.00000          -0.387085          -10.53311
     58       2.00000          -0.380842          -10.36324
     59       0.00000          -0.167424           -4.55584
     60       0.00000          -0.158220           -4.30539
     61       0.00000          -0.153586           -4.17928
     62       0.00000          -0.080270           -2.18426
     63       0.00000          -0.066407           -1.80704
     64       0.00000          -0.059197           -1.61084
     65       0.00000          -0.055759           -1.51727
     66       0.00000          -0.049270           -1.34071
     67       0.00000          -0.040398           -1.09928
     68       0.00000          -0.031283           -0.85126
     69       0.00000          -0.027013           -0.73505
     70       0.00000          -0.024877           -0.67694
     71       0.00000          -0.020059           -0.54582
     72       0.00000          -0.012292           -0.33449
     73       0.00000          -0.010366           -0.28208
     74       0.00000          -0.005804           -0.15793
     75       0.00000          -0.005494           -0.14949
     76       0.00000          -0.002159           -0.05874
     77       0.00000           0.000614            0.01671
     78       0.00000           0.003912            0.10646
     79       0.00000           0.010418            0.28350
     80       0.00000           0.014553            0.39600
     81       0.00000           0.018188            0.49492
     82       0.00000           0.028193            0.76716
     83       0.00000           0.036440            0.99158
     84       0.00000           0.043642            1.18756
     85       0.00000           0.047170            1.28356
     86       0.00000           0.049169            1.33795
     87       0.00000           0.053763            1.46295
     88       0.00000           0.060197            1.63804
     89       0.00000           0.068551            1.86536
     90       0.00000           0.069971            1.90401
     91       0.00000           0.075375            2.05105
     92       0.00000           0.078241            2.12906
     93       0.00000           0.081288            2.21197
     94       0.00000           0.090865            2.47256
     95       0.00000           0.093846            2.55369
     96       0.00000           0.100047            2.72241
     97       0.00000           0.112179            3.05254
     98       0.00000           0.114230            3.10836
     99       0.00000           0.119256            3.24513
    100       0.00000           0.121715            3.31204
    101       0.00000           0.131584            3.58058
    102       0.00000           0.137040            3.72906
    103       0.00000           0.138793            3.77675
    104       0.00000           0.144755            3.93898
    105       0.00000           0.149717            4.07400
    106       0.00000           0.152943            4.16178
    107       0.00000           0.160650            4.37151
    108       0.00000           0.164282            4.47034
    109       0.00000           0.169239            4.60523
    110       0.00000           0.175736            4.78201
    111       0.00000           0.178053            4.84507
    112       0.00000           0.186099            5.06402
    113       0.00000           0.187077            5.09061
    114       0.00000           0.187891            5.11276
    115       0.00000           0.197303            5.36889
    116       0.00000           0.202308            5.50508
    117       0.00000           0.207289            5.64061
    118       0.00000           0.211705            5.76079
    119       0.00000           0.215566            5.86586
    120       0.00000           0.221703            6.03284
    121       0.00000           0.223528            6.08250
    122       0.00000           0.228812            6.22629
    123       0.00000           0.239804            6.52541
    124       0.00000           0.242358            6.59490
    125       0.00000           0.244714            6.65899
    126       0.00000           0.262371            7.13949
    127       0.00000           0.265354            7.22065
    128       0.00000           0.268365            7.30259
    129       0.00000           0.274751            7.47636

  Highest occupied state (VBM) at    -10.36324429 eV
  | Occupation number:      2.00000000

  Lowest unoccupied state (CBM) at    -4.55584202 eV
  | Occupation number:      0.00000000

  Overall HOMO-LUMO gap:      5.80740227 eV.
  Calculating total energy contributions from superposition of free atom densities.

  Total energy components:
  | Sum of eigenvalues            :        -437.85335969 Ha      -11914.59612506 eV
  | XC energy correction          :         -98.83117654 Ha       -2689.33314531 eV
  | XC potential correction       :         127.03795371 Ha        3456.87860458 eV
  | Free-atom electrostatic energy:        -333.62898455 Ha       -9078.50657898 eV
  | Hartree energy correction     :           0.00000000 Ha           0.00000000 eV
  | vdW energy correction         :           0.00000000 Ha           0.00000000 eV
  | Entropy correction            :          -0.00000000 Ha          -0.00000000 eV
  | ---------------------------
  | Total energy                  :        -743.27556706 Ha      -20225.55724478 eV
  | Total energy, T -> 0          :        -743.27556706 Ha      -20225.55724478 eV  <-- do not rely on this value for anything but (periodic) metals
  | Electronic free energy        :        -743.27556706 Ha      -20225.55724478 eV

  Derived energy quantities:
  | Kinetic energy                :         735.18150551 Ha       20005.30662375 eV
  | Electrostatic energy          :       -1379.62589604 Ha      -37541.53072322 eV
  | Energy correction for multipole
  | error in Hartree potential    :           0.00000000 Ha           0.00000000 eV
  | Sum of eigenvalues per atom                           :        -372.33112891 eV
  | Total energy (T->0) per atom                          :        -632.04866390 eV  <-- do not rely on this value for anything but (periodic) metals
  | Electronic free energy per atom                       :        -632.04866390 eV
  Initialize hartree_potential_storage
  Max. number of atoms included in rho_multipole:           32

  End scf initialization - timings             :  max(cpu_time)    wall_clock(cpu1)
  | Time for scf. initialization               :        2.012 s           2.011 s
  | Boundary condition initialization          :        0.000 s           0.000 s
  | Integration                                :        1.300 s           1.296 s
  | Solution of K.-S. eqns.                    :        0.076 s           0.074 s
  | Grid partitioning                          :        0.272 s           0.270 s
  | Preloading free-atom quantities on grid    :        0.028 s           0.028 s
  | Free-atom superposition energy             :        0.040 s           0.040 s
  | Total energy evaluation                    :        0.004 s           0.001 s
------------------------------------------------------------

------------------------------------------------------------
          Begin self-consistency iteration #    1

  Date     :  20170309, Time     :  182213.329
------------------------------------------------------------
  Evaluating new KS density.
  Integration grid: deviation in total charge (<rho> - N_e) =  -1.421085E-14
  Pulay mixing of updated and previous charge densities.

  Evaluating partitioned Hartree potential by multipole expansion.
  | Analytical far-field extrapolation by fixed multipoles:
  | Hartree multipole sum: apparent total charge =  -0.235345E-04
  Summing up the Hartree potential.
  Time summed over all CPUs for potential: real work        9.623 s, elapsed        9.929 s
  | RMS charge density error from multipole expansion :   0.107211E-01

  Integrating Hamiltonian matrix: batch-based integration.
  Time summed over all CPUs for integration: real work       24.073 s, elapsed       24.928 s

  Updating Kohn-Sham eigenvalues, eigenvectors, occupation numbers, and Fermi level.
  Solving generalized eigenproblem
  Solving real symmetric generalised eigenvalue problem by standard ScaLAPACK.
  Using Cholesky factor for transformation
  Using 2-stage real ELPA solver
  K-Point:    1, Trafo times: 1-stage=     0.021 s, 2-stage=     0.019 s ==> Using 2-stage solver
  Determining occupation numbers for Kohn-Sham eigenstates.
  | Chemical potential (Fermi level) in eV                 : -.46953212E+01
  | Error in electron count due to remaining E_F inaccuracy: 0.00000000E+00
  | Maximum occupation number of highest empty state:  0.00E+00

  Writing Kohn-Sham eigenvalues.

  State    Occupation    Eigenvalue [Ha]    Eigenvalue [eV]
      1       2.00000         -18.626683         -506.85782
      2       2.00000         -18.616173         -506.57185
      3       2.00000         -18.607343         -506.33156
      4       2.00000         -13.996437         -380.86243
      5       2.00000         -13.986167         -380.58296
      6       2.00000         -13.966403         -380.04516
      7       2.00000         -10.066047         -273.91108
      8       2.00000         -10.049727         -273.46698
      9       2.00000         -10.040658         -273.22019
     10       2.00000          -9.967886         -271.23998
     11       2.00000          -9.967614         -271.23257
     12       2.00000          -9.865941         -268.46593
     13       2.00000          -9.848142         -267.98157
     14       2.00000          -9.833090         -267.57198
     15       2.00000          -9.832394         -267.55304
     16       2.00000          -0.972408          -26.46057
     17       2.00000          -0.955319          -25.99554
     18       2.00000          -0.947328          -25.77811
     19       2.00000          -0.869477          -23.65967
     20       2.00000          -0.861830          -23.45159
     21       2.00000          -0.840849          -22.88066
     22       2.00000          -0.738194          -20.08729
     23       2.00000          -0.726294          -19.76346
     24       2.00000          -0.685792          -18.66135
     25       2.00000          -0.662067          -18.01575
     26       2.00000          -0.628490          -17.10207
     27       2.00000          -0.616500          -16.77581
     28       2.00000          -0.576656          -15.69161
     29       2.00000          -0.544051          -14.80439
     30       2.00000          -0.534550          -14.54585
     31       2.00000          -0.511225          -13.91113
     32       2.00000          -0.494752          -13.46288
     33       2.00000          -0.471376          -12.82680
     34       2.00000          -0.459307          -12.49839
     35       2.00000          -0.441496          -12.01372
     36       2.00000          -0.429809          -11.69571
     37       2.00000          -0.424416          -11.54894
     38       2.00000          -0.415226          -11.29887
     39       2.00000          -0.406016          -11.04827
     40       2.00000          -0.393769          -10.71500
     41       2.00000          -0.392836          -10.68960
     42       2.00000          -0.384208          -10.45483
     43       2.00000          -0.378963          -10.31210
     44       2.00000          -0.374372          -10.18717
     45       2.00000          -0.371657          -10.11330
     46       2.00000          -0.361651           -9.84103
     47       2.00000          -0.360909           -9.82082
     48       2.00000          -0.352931           -9.60374
     49       2.00000          -0.344346           -9.37012
     50       2.00000          -0.339500           -9.23825
     51       2.00000          -0.330928           -9.00500
     52       2.00000          -0.323487           -8.80252
     53       2.00000          -0.244007           -6.63976
     54       2.00000          -0.237387           -6.45963
     55       2.00000          -0.221546           -6.02857
     56       2.00000          -0.218133           -5.93571
     57       2.00000          -0.212658           -5.78673
     58       2.00000          -0.200046           -5.44354
     59       0.00000          -0.060621           -1.64958
     60       0.00000          -0.046170           -1.25636
     61       0.00000          -0.041988           -1.14256
     62       0.00000          -0.029595           -0.80533
     63       0.00000          -0.014890           -0.40517
     64       0.00000          -0.009966           -0.27118
     65       0.00000          -0.004089           -0.11126
     66       0.00000           0.006850            0.18640
     67       0.00000           0.016737            0.45543
     68       0.00000           0.017901            0.48712
     69       0.00000           0.031695            0.86246
     70       0.00000           0.035832            0.97503
     71       0.00000           0.040337            1.09762
     72       0.00000           0.042624            1.15987
     73       0.00000           0.047163            1.28336
     74       0.00000           0.051576            1.40346
     75       0.00000           0.054527            1.48374
     76       0.00000           0.063344            1.72368
     77       0.00000           0.077777            2.11641
     78       0.00000           0.079519            2.16382
     79       0.00000           0.082467            2.24405
     80       0.00000           0.088214            2.40043
     81       0.00000           0.096145            2.61625
     82       0.00000           0.104232            2.83628
     83       0.00000           0.106308            2.89280
     84       0.00000           0.108056            2.94035
     85       0.00000           0.113798            3.09661
     86       0.00000           0.119404            3.24913
     87       0.00000           0.120504            3.27909
     88       0.00000           0.123254            3.35391
     89       0.00000           0.134402            3.65727
     90       0.00000           0.138491            3.76853
     91       0.00000           0.146584            3.98876
     92       0.00000           0.149326            4.06335
     93       0.00000           0.150771            4.10269
     94       0.00000           0.160982            4.38053
     95       0.00000           0.167204            4.54986
     96       0.00000           0.180509            4.91191
     97       0.00000           0.183426            4.99127
     98       0.00000           0.189810            5.16499
     99       0.00000           0.193395            5.26256
    100       0.00000           0.194229            5.28525
    101       0.00000           0.199152            5.41921
    102       0.00000           0.200740            5.46243
    103       0.00000           0.204500            5.56471
    104       0.00000           0.208162            5.66437
    105       0.00000           0.211625            5.75861
    106       0.00000           0.218717            5.95159
    107       0.00000           0.222793            6.06249
    108       0.00000           0.226610            6.16639
    109       0.00000           0.232756            6.33361
    110       0.00000           0.236789            6.44335
    111       0.00000           0.241435            6.56979
    112       0.00000           0.243362            6.62221
    113       0.00000           0.252061            6.85893
    114       0.00000           0.260822            7.09732
    115       0.00000           0.266398            7.24905
    116       0.00000           0.270050            7.34844
    117       0.00000           0.274368            7.46594
    118       0.00000           0.280761            7.63989
    119       0.00000           0.286347            7.79189
    120       0.00000           0.290450            7.90355
    121       0.00000           0.295825            8.04981
    122       0.00000           0.303359            8.25482
    123       0.00000           0.307402            8.36484
    124       0.00000           0.311595            8.47894
    125       0.00000           0.324131            8.82006
    126       0.00000           0.329188            8.95765
    127       0.00000           0.332086            9.03652
    128       0.00000           0.345330            9.39691
    129       0.00000           0.349447            9.50893

  Highest occupied state (VBM) at     -5.44353994 eV
  | Occupation number:      2.00000000

  Lowest unoccupied state (CBM) at    -1.64958485 eV
  | Occupation number:      0.00000000

  Overall HOMO-LUMO gap:      3.79395509 eV.

  Total energy components:
  | Sum of eigenvalues            :        -417.05492699 Ha      -11348.64197594 eV
  | XC energy correction          :        -100.75379335 Ha       -2741.65021079 eV
  | XC potential correction       :         129.53073448 Ha        3524.71062041 eV
  | Free-atom electrostatic energy:        -333.62898455 Ha       -9078.50657898 eV
  | Hartree energy correction     :         -20.80114799 Ha        -566.02803612 eV
  | vdW energy correction         :           0.00000000 Ha           0.00000000 eV
  | Entropy correction            :          -0.00000000 Ha          -0.00000000 eV
  | ---------------------------
  | Total energy                  :        -742.70811841 Ha      -20210.11618143 eV
  | Total energy, T -> 0          :        -742.70811841 Ha      -20210.11618143 eV  <-- do not rely on this value for anything but (periodic) metals
  | Electronic free energy        :        -742.70811841 Ha      -20210.11618143 eV

  Derived energy quantities:
  | Kinetic energy                :         744.01175682 Ha       20245.58998724 eV
  | Electrostatic energy          :       -1385.96608188 Ha      -37714.05595787 eV
  | Energy correction for multipole
  | error in Hartree potential    :          -0.04157481 Ha          -1.13130822 eV
  | Sum of eigenvalues per atom                           :        -354.64506175 eV
  | Total energy (T->0) per atom                          :        -631.56613067 eV  <-- do not rely on this value for anything but (periodic) metals
  | Electronic free energy per atom                       :        -631.56613067 eV

  Self-consistency convergence accuracy:
  | Change of charge density      :  0.9019E+00
  | Change of sum of eigenvalues  :  0.5660E+03 eV
  | Change of total energy        :  0.1544E+02 eV

  End self-consistency iteration #     1       :  max(cpu_time)    wall_clock(cpu1)
  | Time for this iteration                    :        1.660 s           1.658 s
  | Charge density update                      :        0.516 s           0.514 s
[...]
   ----------------------------------------------------------------
   Total forces(  20)            : -0.223174E-03  0.237809E-02 -0.245605E-02
  atom #   21
   Hellmann-Feynman              :  0.241610E-01 -0.272037E-01 -0.581534E-01
   Ionic forces                  :  0.000000E+00  0.000000E+00  0.000000E+00
   Multipole                     : -0.336328E-03 -0.115922E-01  0.440375E-01
   Pulay + GGA                   : -0.357497E-01  0.494428E-01  0.156185E-01
   Van der Waals                 :  0.121927E-01 -0.123983E-01 -0.431190E-03
   ----------------------------------------------------------------
   Total forces(  21)            :  0.267724E-03 -0.175139E-02  0.107145E-02
  atom #   22
   Hellmann-Feynman              :  0.265105E-01 -0.616885E-01 -0.297677E-01
   Ionic forces                  :  0.000000E+00  0.000000E+00  0.000000E+00
   Multipole                     :  0.557836E-02 -0.429852E-02  0.892651E-02
   Pulay + GGA                   : -0.315948E-01  0.576757E-01  0.289023E-01
   Van der Waals                 : -0.677586E-04  0.800871E-02 -0.863549E-02
   ----------------------------------------------------------------
   Total forces(  22)            :  0.426346E-03 -0.302601E-03 -0.574386E-03
  atom #   23
   Hellmann-Feynman              : -0.555126E+00 -0.919350E+00  0.511513E+00
   Ionic forces                  :  0.000000E+00  0.000000E+00  0.000000E+00
   Multipole                     :  0.163462E+00  0.317609E+00 -0.336568E-01
   Pulay + GGA                   :  0.390847E+00  0.603292E+00 -0.469444E+00
   Van der Waals                 :  0.275888E-02  0.202088E-03 -0.959497E-02
   ----------------------------------------------------------------
   Total forces(  23)            :  0.194159E-02  0.175282E-02 -0.118361E-02
  atom #   24
   Hellmann-Feynman              :  0.510542E-01  0.440447E-01 -0.120354E-01
   Ionic forces                  :  0.000000E+00  0.000000E+00  0.000000E+00
   Multipole                     : -0.334417E-01 -0.106557E-01 -0.272960E-01
   Pulay + GGA                   : -0.163250E-01 -0.283832E-01  0.465066E-01
   Van der Waals                 : -0.218247E-02 -0.486098E-02 -0.743800E-02
   ----------------------------------------------------------------
   Total forces(  24)            : -0.895015E-03  0.144726E-03 -0.262809E-03
  atom #   25
   Hellmann-Feynman              :  0.854887E-02  0.317820E-01  0.313583E-01
   Ionic forces                  :  0.000000E+00  0.000000E+00  0.000000E+00
   Multipole                     : -0.143806E-01  0.923195E-02  0.224398E-01
   Pulay + GGA                   :  0.932159E-02 -0.371595E-01 -0.553074E-01
   Van der Waals                 : -0.393132E-02 -0.333418E-02  0.208021E-02
   ----------------------------------------------------------------
   Total forces(  25)            : -0.441450E-03  0.520334E-03  0.570934E-03
  atom #   26
   Hellmann-Feynman              :  0.519476E-01  0.189167E-01  0.210644E-02
   Ionic forces                  :  0.000000E+00  0.000000E+00  0.000000E+00
   Multipole                     :  0.420279E-03 -0.322993E-01  0.105243E-02
   Pulay + GGA                   : -0.568787E-01  0.161228E-01  0.152054E-02
   Van der Waals                 :  0.463198E-02 -0.255750E-02 -0.433870E-02
   ----------------------------------------------------------------
   Total forces(  26)            :  0.121089E-03  0.182698E-03  0.340704E-03
  atom #   27
   Hellmann-Feynman              : -0.144379E+01  0.183432E+01  0.785864E+00
   Ionic forces                  :  0.000000E+00  0.000000E+00  0.000000E+00
   Multipole                     : -0.144286E+00 -0.252823E+00  0.617753E-01
   Pulay + GGA                   :  0.159357E+01 -0.157394E+01 -0.846219E+00
   Van der Waals                 : -0.639980E-02 -0.494362E-02 -0.161436E-02
   ----------------------------------------------------------------
   Total forces(  27)            : -0.903986E-03  0.261329E-02 -0.193915E-03
  atom #   28
   Hellmann-Feynman              :  0.223441E+01 -0.394714E+00  0.685411E+00
   Ionic forces                  :  0.000000E+00  0.000000E+00  0.000000E+00
   Multipole                     : -0.197804E+00  0.464537E-01 -0.521829E-01
   Pulay + GGA                   : -0.201958E+01  0.348025E+00 -0.615741E+00
   Van der Waals                 : -0.151707E-01  0.389556E-03 -0.170002E-01
   ----------------------------------------------------------------
   Total forces(  28)            :  0.185572E-02  0.154597E-03  0.486858E-03
  atom #   29
   Hellmann-Feynman              :  0.248099E-01 -0.331307E-01  0.152798E-01
   Ionic forces                  :  0.000000E+00  0.000000E+00  0.000000E+00
   Multipole                     :  0.127752E-01  0.917475E-02  0.225456E-01
   Pulay + GGA                   : -0.302385E-01  0.199690E-01 -0.380157E-01
   Van der Waals                 : -0.711428E-02  0.257664E-02  0.127933E-02
   ----------------------------------------------------------------
   Total forces(  29)            :  0.232269E-03 -0.141028E-02  0.108900E-02
  atom #   30
   Hellmann-Feynman              : -0.544326E-01 -0.201065E-01 -0.161679E-01
   Ionic forces                  :  0.000000E+00  0.000000E+00  0.000000E+00
   Multipole                     :  0.164964E-01 -0.319878E-01 -0.111866E-01
   Pulay + GGA                   :  0.394022E-01  0.537928E-01  0.260989E-01
   Van der Waals                 : -0.195266E-02 -0.261987E-02  0.100038E-02
   ----------------------------------------------------------------
   Total forces(  30)            : -0.486689E-03 -0.921332E-03 -0.255174E-03
  atom #   31
   Hellmann-Feynman              : -0.556244E-01  0.263468E-01  0.777045E-02
   Ionic forces                  :  0.000000E+00  0.000000E+00  0.000000E+00
   Multipole                     :  0.927983E-02  0.304649E-02  0.331406E-01
   Pulay + GGA                   :  0.487922E-01 -0.265704E-01 -0.389591E-01
   Van der Waals                 : -0.350384E-02 -0.272458E-02 -0.123706E-02
   ----------------------------------------------------------------
   Total forces(  31)            : -0.105618E-02  0.983062E-04  0.714930E-03
  atom #   32
   Hellmann-Feynman              : -0.697004E-01  0.891659E-02 -0.921580E-02
   Ionic forces                  :  0.000000E+00  0.000000E+00  0.000000E+00
   Multipole                     :  0.400509E-01  0.294332E-01 -0.165145E-01
   Pulay + GGA                   :  0.317482E-01 -0.373186E-01  0.315906E-01
   Van der Waals                 : -0.214054E-02 -0.431559E-03 -0.618336E-02
   ----------------------------------------------------------------
   Total forces(  32)            : -0.417880E-04  0.599671E-03 -0.323029E-03

  Timings for VdW correction (Tkatchenko-Scheffler 2009 or later):
  | CPU time:        0.132 s, Wall clock time:        0.129 s.
  Removing unitary transformations (pure translations, rotations) from forces on atoms.
  Atomic forces before filtering:
  | Net force on center of mass :   0.190598E-03 -0.123758E-03  0.186438E-03 eV/A
  | Net torque on center of mass:  -0.168602E-02 -0.232914E-02 -0.996201E-03 eV
  Atomic forces after filtering:
  | Net force on center of mass :   0.148363E-17 -0.174225E-18  0.130669E-17 eV/A
  | Net torque on center of mass:  -0.553175E-17  0.110635E-17  0.607195E-18 eV

  Energy and forces in a compact form:
  | Total energy uncorrected      :         -0.202085401725949E+05 eV
  | Total energy corrected        :         -0.202085401725949E+05 eV  <-- do not rely on this value for anything but (periodic) metals
  | Electronic free energy        :         -0.202085401725949E+05 eV
  Total atomic forces (unitary forces cleaned) [eV/Ang]:
  |   1         -0.972676211451878E-03         -0.274771210571978E-03         -0.648501760398723E-03
  |   2          0.213645943581948E-02          0.928931671745469E-03          0.259818020982008E-02
  |   3         -0.209982696411889E-02         -0.144912981224594E-02         -0.308969318943559E-02
  |   4         -0.444679995199052E-03          0.159750540314034E-02         -0.162079536502859E-03
  |   5         -0.690041809312319E-03         -0.691825890087865E-03         -0.686149690827748E-03
  |   6          0.110202433312463E-02          0.117027658934410E-03          0.522216453485616E-04
  |   7          0.758140107366043E-03          0.532443845498878E-03         -0.144002425223757E-02
  |   8         -0.373756809550215E-03         -0.285176497469144E-03          0.244888203569923E-02
  |   9         -0.215846986341141E-03         -0.147998777329348E-03         -0.202315396275021E-02
  |  10          0.139178309457147E-02         -0.195031857765553E-02          0.199824704988329E-02
  |  11         -0.176284259439849E-03         -0.631148012362918E-03          0.129810294894621E-02
  |  12          0.629718683342116E-03          0.968341656510058E-03          0.416053060411788E-03
  |  13         -0.102103134492967E-02          0.146525214242949E-02         -0.103368163591308E-02
  |  14         -0.427034891864693E-03         -0.633769091930891E-03          0.511875201311295E-03
  |  15          0.611481147046155E-03          0.567793470935979E-03          0.149759053159532E-03
  |  16         -0.183791477382103E-03         -0.460895533727131E-03         -0.699398371054407E-03
  |  17          0.127674855794856E-02          0.547540818017584E-03         -0.812104062415881E-03
  |  18         -0.998429811194597E-03         -0.430712606446302E-03         -0.179085343749581E-03
  |  19         -0.126787735038045E-02         -0.365013095601741E-02          0.233184590114508E-02
  |  20         -0.194475442144320E-03          0.235519384694873E-02         -0.247191986881706E-02
  |  21          0.261260159497066E-03         -0.176192111207901E-02          0.110085202170317E-02
  |  22          0.441952824264821E-03         -0.328429311877842E-03         -0.555522868900987E-03
  |  23          0.196005991545493E-02          0.172953599032286E-02         -0.117683929520117E-02
  |  24         -0.865415997082232E-03          0.114087556797277E-03         -0.262216395346519E-03
  |  25         -0.427450344056123E-03          0.504427081739119E-03          0.569677870796815E-03
  |  26          0.138199628310241E-03          0.155323516253142E-03          0.360045074247990E-03
  |  27         -0.896357297969464E-03          0.260622741185694E-02         -0.202644171183535E-03
  |  28          0.186665636680850E-02          0.150584724125242E-03          0.463885352836221E-03
  |  29          0.229657153273263E-03         -0.141087033089362E-02          0.108664862514627E-02
  |  30         -0.475686291791161E-03         -0.927352084507275E-03         -0.273521595020585E-03
  |  31         -0.105298137043486E-02          0.104393423683567E-03          0.684420917798022E-03
  |  32         -0.204967521842355E-04          0.589839586263116E-03         -0.354160968498041E-03

  ------------------------------------ 
  Start decomposition of the XC Energy 
  ------------------------------------ 
  Hartree-Fock part   :          0.000000000 Ha              0.000000000 eV
  ------------------------------------ 
  X Energy            :        -96.986033034 Ha          -2639.124236027 eV
  C Energy GGA        :         -3.873632987 Ha           -105.406916616 eV
  Total XC Energy     :       -100.859666021 Ha          -2744.531152642 eV
  LDA X and C from self-consistent density 
  X Energy LDA        :        -88.011233001 Ha          -2394.907501522 eV
  C Energy LDA        :         -7.533448786 Ha           -204.995571514 eV
  ------------------------------------ 
  End decomposition of the XC Energy 
  ------------------------------------ 
   
  ESP charge fitting starts.
  | Calculation :  00000001  of  00000001
  | Full density
  Computing multipole expansion for total density.
  Generating points for esp charges.
  Partitioning the integration grid into batches with parallel hashing+maxmin method.
  | Number of batches:     3855
  | Maximal batch size:     197
  | Minimal batch size:      90
  | Average batch size:     126.267
  | Standard deviation of batch sizes:      17.356

  Integration load balanced across    32 MPI tasks.
  Work distribution over tasks is as follows:
  Initializing partition tables, free-atom densities, potentials, etc. across the integration grid (initialize_grid_storage).
  | Original list of interatomic distances with          32 x         32 entries is created.
  | Net number of integration points:   486760
  | of which are non-zero points    :   486760
  Summing up potential from multipole expanded  density.
  Summing up the Hartree potential.
  Time summed over all CPUs for potential: real work        6.448 s, elapsed        6.670 s
  Fitting esp charges to potential.
  |
  | ESP charges fitted to the electrostatic potential :
  |
  | Atom         1: C, ESP charge:      0.74000358
  |
  | Atom         2: C, ESP charge:     -0.84064592
  |
  | Atom         3: O, ESP charge:      0.52966919
  |
  | Atom         4: H, ESP charge:     -0.19069370
  |
  | Atom         5: H, ESP charge:     -0.20015363
  |
  | Atom         6: H, ESP charge:     -0.21273472
  |
  | Atom         7: N, ESP charge:      0.79136238
  |
  | Atom         8: C, ESP charge:     -0.56891413
  |
  | Atom         9: C, ESP charge:     -0.18807513
  |
  | Atom        10: O, ESP charge:      0.48358315
  |
  | Atom        11: H, ESP charge:     -0.35916682
  |
  | Atom        12: H, ESP charge:     -0.03393259
  |
  | Atom        13: C, ESP charge:      0.59958112
  |
  | Atom        14: H, ESP charge:     -0.21360251
  |
  | Atom        15: H, ESP charge:     -0.13164534
  |
  | Atom        16: H, ESP charge:     -0.15960236
  |
  | Atom        17: N, ESP charge:      0.33035825
  |
  | Atom        18: C, ESP charge:     -0.14510238
  |
  | Atom        19: C, ESP charge:     -0.43461520
  |
  | Atom        20: O, ESP charge:      0.50549602
  |
  | Atom        21: H, ESP charge:     -0.28165323
  |
  | Atom        22: H, ESP charge:     -0.05241967
  |
  | Atom        23: C, ESP charge:      0.22482084
  |
  | Atom        24: H, ESP charge:     -0.07698285
  |
  | Atom        25: H, ESP charge:     -0.03960328
  |
  | Atom        26: H, ESP charge:     -0.07014225
  |
  | Atom        27: N, ESP charge:      0.29304391
  |
  | Atom        28: C, ESP charge:      0.34577860
  |
  | Atom        29: H, ESP charge:     -0.22087976
  |
  | Atom        30: H, ESP charge:     -0.15104239
  |
  | Atom        31: H, ESP charge:     -0.11699138
  |
  | Atom        32: H, ESP charge:     -0.15509781

  RRMS:       0.00762719

  Done.

------------------------------------------------------------------------------
  Final output of selected total energy values:

  The following output summarizes some interesting total energy values
  at the end of a run (AFTER all relaxation, molecular dynamics, etc.).

  | Total energy of the DFT / Hartree-Fock s.c.f. calculation      :         -20208.540172595 eV
  | Final zero-broadening corrected energy (caution - metals only) :         -20208.540172595 eV
  | For reference only, the value of 1 Hartree used in FHI-aims is :             27.211384500 eV

  Before relying on these values, please be sure to understand exactly which
  total energy value is referred to by a given number. Different objects may
  all carry the same name 'total energy'. Definitions:

  Total energy of the DFT / Hartree-Fock s.c.f. calculation:
  | Note that this energy does not include ANY quantities calculated after the
  | s.c.f. cycle, in particular not ANY RPA, MP2, etc. many-body perturbation terms.

  Final zero-broadening corrected energy:
  | For metallic systems only, a broadening of the occupation numbers at the Fermi
  | level can be extrapolated back to zero broadening by an electron-gas inspired
  | formula. For all systems that are not real metals, this value can be
  | meaningless and should be avoided.

------------------------------------------------------------------------------
  Methods described in the following list of references were used in this FHI-aims run.
  If you publish the results, please make sure to cite these reference if they apply.
  FHI-aims is an academic code, and for our developers (often, Ph.D. students
  and postdocs), scientific credit in the community is essential.
  Thank you for helping us!

  For any use of FHI-aims, please cite:

    Volker Blum, Ralf Gehrke, Felix Hanke, Paula Havu, Ville Havu,
    Xinguo Ren, Karsten Reuter, and Matthias Scheffler
    'Ab initio molecular simulations with numeric atom-centered orbitals'
    Computer Physics Communications 180, 2175-2196 (2009)
    http://dx.doi.org/10.1016/j.cpc.2009.06.022


  The scalable eigensolver library ELPA was used in your run.
  ELPA is essential especially for large systems on hundreds or thousands of CPUs.
  For ELPA, please cite:

    Andreas Marek, Volker Blum, Rainer Johanni, Ville Havu, Bruno Lang,
    Thomas Auckenthaler, Alexander Heinecke, Hans-Joachim Bungartz, and Hermann Lederer,
    'The ELPA Library - Scalable Parallel Eigenvalue Solutions
    for Electronic Structure Theory and Computational Science'
    The Journal of Physics: Condensed Matter 26, 213201 (2014).
    http://dx.doi.org/10.1088/0953-8984/26/21/213201


  For ELPA's efficient two-stage tridiagonalization used in your run, please cite:

    T. Auckenthaler, V. Blum, H.-J. Bungartz, T. Huckle, R. Johanni, L. Kraemer,
    B. Lang, H. Lederer, and P. R. Willems,
    'Parallel solution of partial symmetric eigenvalue problems'
    'from  electronic structure calculations'
    Parallel Computing 37, 783-794 (2011).
    http://dx.doi.org/10.1016/j.parco.2011.05.002


  For the real-space grid partitioning and parallelization used in this calculation, please cite:

    Ville Havu, Volker Blum, Paula Havu, and Matthias Scheffler,
    'Efficient O(N) integration for all-electron electronic structure calculation'
    'using numerically tabulated basis functions'
    Journal of Computational Physics 228, 8367-8379 (2009).
    http://dx.doi.org/10.1016/j.jcp.2009.08.008

  Of course, there are many other important community references, e.g., those cited in the
  above references. Our list is limited to references that describe implementations in the
  FHI-aims code. The reason is purely practical (length of this list) - please credit others as well.

------------------------------------------------------------
          Leaving FHI-aims.
          Date     :  20170309, Time     :  182242.838

          Computational steps:
          | Number of self-consistency cycles          :           14

          Detailed time accounting                     :  max(cpu_time)    wall_clock(cpu1)
          | Total time                                 :       32.430 s          32.586 s
          | Preparation time                           :        0.240 s           0.236 s
          | Grid partitioning                          :        0.272 s           0.270 s
          | Preloading free-atom quantities on grid    :        0.028 s           0.028 s
          | Free-atom superposition energy             :        0.040 s           0.040 s
          | Total time for integrations                :       12.401 s          12.388 s
          | Total time for solution of K.-S. equations :        0.532 s           0.497 s
          | Total time for density & force components  :       10.257 s          10.231 s
          | Total time for mixing                      :        0.124 s           0.104 s
          | Total time for Hartree multipole update    :        0.060 s           0.058 s
          | Total time for Hartree multipole sum       :        6.336 s           6.326 s
          | Total time for total energy evaluation     :        0.032 s           0.019 s
          | Total time for vdW correction              :        0.132 s           0.129 s

          Have a nice day.
------------------------------------------------------------
