  MPI-parallelism will be employed.
------------------------------------------------------------
          Invoking FHI-aims ...
          Version 150427
          Git rev.: 9dd23e0 BL: Update Version stamp
          Compiled on 2015/11/03 at 22:05:20 on host eos03.

          When using FHI-aims, please cite the following reference:

          Volker Blum, Ralf Gehrke, Felix Hanke, Paula Havu,
          Ville Havu, Xinguo Ren, Karsten Reuter, and Matthias Scheffler,
          'Ab Initio Molecular Simulations with Numeric Atom-Centered Orbitals: FHI-aims',
          Computer Physics Communications 180, 2175-2196 (2009)

          For any questions about FHI-aims, please visit the aimsclub website
          with its forums and wiki. Contributions to both the forums and the
          wiki are warmly encouraged - they are for you, and everyone is welcome there.

------------------------------------------------------------

  Date     :  20170309, Time     :  180710.438
  Time zero on CPU 1             :   0.352021000000000E+00  s.
  Internal wall clock time zero  :           258314830.438  s.

  Using       32 parallel tasks.
  Task        0 on host eos306 reporting.
  Task        1 on host eos306 reporting.
  Task        2 on host eos306 reporting.
  Task        3 on host eos306 reporting.
  Task        4 on host eos306 reporting.
  Task        5 on host eos306 reporting.
  Task        6 on host eos306 reporting.
  Task        7 on host eos306 reporting.
  Task        8 on host eos306 reporting.
  Task        9 on host eos306 reporting.
  Task       10 on host eos306 reporting.
  Task       11 on host eos306 reporting.
  Task       12 on host eos306 reporting.
  Task       13 on host eos306 reporting.
  Task       14 on host eos306 reporting.
  Task       15 on host eos306 reporting.
  Task       16 on host eos306 reporting.
  Task       17 on host eos306 reporting.
  Task       18 on host eos306 reporting.
  Task       19 on host eos306 reporting.
  Task       20 on host eos306 reporting.
  Task       21 on host eos306 reporting.
  Task       22 on host eos306 reporting.
  Task       23 on host eos306 reporting.
  Task       24 on host eos306 reporting.
  Task       25 on host eos306 reporting.
  Task       26 on host eos306 reporting.
  Task       27 on host eos306 reporting.
  Task       28 on host eos306 reporting.
  Task       29 on host eos306 reporting.
  Task       30 on host eos306 reporting.
  Task       31 on host eos306 reporting.

  Performing system and environment tests:
  | Environment variable OMP_NUM_THREADS correctly set to 1.
  | Stacksize not measured: no C compiler
  | Checking for scalapack...
  | Testing pdtran()...
  | All pdtran() tests passed.

  Obtaining array dimensions for all initial allocations:
  
  -----------------------------------------------------------------------
  Parsing control.in (first pass over file, find array dimensions only).
  The contents of control.in will be repeated verbatim below
  unless switched off by setting 'verbatim_writeout .false.' .
  in the first line of control.in .
  -----------------------------------------------------------------------
  
  #########################################################################################
  #
  # Input for System
  #
  #########################################################################################
  #
  #
  #  Physical model
  #
    xc                 pbe
    vdw_correction_hirshfeld
    spin               none
    charge             0.
  #
  #  SCF convergence
  #
    occupation_type    gaussian 0.05
    mixer              pulay
      n_max_pulay        10
      charge_mix_param   0.5
    sc_accuracy_rho    1E-4
    sc_accuracy_eev    1E-2
    sc_accuracy_etot   1E-5
    sc_accuracy_forces 1E-4
    sc_iter_limit      1000
  #
  #  ESP charge
  #
    output esp
    esp equal_grid_n 80 80 80
  #
  #
  ################################################################################
  #
  #  FHI-aims code project
  # Volker Blum, Fritz Haber Institute Berlin, 2009
  #
  #  Suggested "tight" defaults for H atom (to be pasted into control.in file)
  #
  ################################################################################
    species        H
  #     global species definitions
      nucleus             1
      mass                1.00794
  #
      l_hartree           6
  #
      cut_pot             4.0  2.0  1.0
      basis_dep_cutoff    1e-4
  #
      radial_base         24 7.0
      radial_multiplier   2
      angular_grids       specified
        division   0.1930   50
        division   0.3175  110
        division   0.4293  194
        division   0.5066  302
        division   0.5626  434
  #      division   0.5922  590
  #      division   0.6227  974
  #      division   0.6868 1202
  #      outer_grid  770
        outer_grid  434
  ################################################################################
  #
  #  Definition of "minimal" basis
  #
  ################################################################################
  #     valence basis states
      valence      1  s   1.
  #     ion occupancy
      ion_occ      1  s   0.5
  ################################################################################
  #
  #  Suggested additional basis functions. For production calculations,
  #  uncomment them one after another (the most important basis functions are
  #  listed first).
  #
  #  Basis constructed for dimers: 0.5 A, 0.7 A, 1.0 A, 1.5 A, 2.5 A
  #
  ################################################################################
  #  "First tier" - improvements: -1014.90 meV to -62.69 meV
       hydro 2 s 2.1
       hydro 2 p 3.5
  #  "Second tier" - improvements: -12.89 meV to -1.83 meV
       hydro 1 s 0.85
       hydro 2 p 3.7
       hydro 2 s 1.2
       hydro 3 d 7
  #  "Third tier" - improvements: -0.25 meV to -0.12 meV
  #     hydro 4 f 11.2
  #     hydro 3 p 4.8
  #     hydro 4 d 9
  #     hydro 3 s 3.2
  ################################################################################
  #
  # For methods that use the localized form of the "resolution of identity" for
  # the two-electron Coulomb operator (RI_method LVL), particularly Hartree-Fock and
  # hybrid density functional calculations, the highest accuracy can be obtained by
  # uncommenting the line beginning with "for_aux"  below, thus adding an extra g radial
  # function to the construction of the product basis set for the expansion.
  # See Ref. New J. Phys. 17, 093020 (2015) for more information, particularly Figs. 1 and 6.
  #
  ################################################################################
  #
  # for_aux hydro 5 g 6.0
  ################################################################################
  #
  #  FHI-aims code project
  # Volker Blum, Fritz Haber Institute Berlin, 2009
  #
  #  Suggested "tight" defaults for C atom (to be pasted into control.in file)
  #
  ################################################################################
    species        C
  #     global species definitions
      nucleus             6
      mass                12.0107
  #
      l_hartree           6
  #
      cut_pot             4.0  2.0  1.0
      basis_dep_cutoff    1e-4
  #
      radial_base         34 7.0
      radial_multiplier   2
      angular_grids specified
        division   0.2187   50
        division   0.4416  110
        division   0.6335  194
        division   0.7727  302
        division   0.8772  434
  #      division   0.9334  590
  #      division   0.9924  770
  #      division   1.0230  974
  #      division   1.5020 1202
  #     outer_grid  974
        outer_grid  434
  ################################################################################
  #
  #  Definition of "minimal" basis
  #
  ################################################################################
  #     valence basis states
      valence      2  s   2.
      valence      2  p   2.
  #     ion occupancy
      ion_occ      2  s   1.
      ion_occ      2  p   1.
  ################################################################################
  #
  #  Suggested additional basis functions. For production calculations,
  #  uncomment them one after another (the most important basis functions are
  #  listed first).
  #
  #  Constructed for dimers: 1.0 A, 1.25 A, 1.5 A, 2.0 A, 3.0 A
  #
  ################################################################################
  #  "First tier" - improvements: -1214.57 meV to -155.61 meV
       hydro 2 p 1.7
       hydro 3 d 6
       hydro 2 s 4.9
  #  "Second tier" - improvements: -67.75 meV to -5.23 meV
       hydro 4 f 9.8
       hydro 3 p 5.2
       hydro 3 s 4.3
       hydro 5 g 14.4
       hydro 3 d 6.2
  #  "Third tier" - improvements: -2.43 meV to -0.60 meV
  #     hydro 2 p 5.6
  #     hydro 2 s 1.4
  #     hydro 3 d 4.9
  #     hydro 4 f 11.2
  #  "Fourth tier" - improvements: -0.39 meV to -0.18 meV
  #     hydro 2 p 2.1
  #     hydro 5 g 16.4
  #     hydro 4 d 13.2
  #     hydro 3 s 13.6
  #     hydro 4 f 17.6
  #  Further basis functions - improvements: -0.08 meV and below
  #     hydro 3 s 2
  #     hydro 3 p 6
  #     hydro 4 d 20
  ################################################################################
  #
  # For methods that use the localized form of the "resolution of identity" for
  # the two-electron Coulomb operator (RI_method LVL), particularly Hartree-Fock and
  # hybrid density functional calculations, the highest accuracy can be obtained by
  # uncommenting the line beginning with "for_aux"  below, thus adding an extra g radial
  # function to the construction of the product basis set for the expansion.
  # See Ref. New J. Phys. 17, 093020 (2015) for more information, particularly Figs. 1 and 6.
  #
  ################################################################################
  #
  # for_aux hydro 5 g 6.0
  ################################################################################
  #
  #  FHI-aims code project
  # Volker Blum, Fritz Haber Institute Berlin, 2009
  #
  #  Suggested "tight" defaults for N atom (to be pasted into control.in file)
  #
  ################################################################################
    species        N
  #     global species definitions
      nucleus             7
      mass                14.0067
  #
      l_hartree           6
  #
      cut_pot             4.0  2.0  1.0
      basis_dep_cutoff    1e-4
  #
      radial_base         35 7.0
      radial_multiplier   2
      angular_grids       specified
        division   0.1841   50
        division   0.3514  110
        division   0.5126  194
        division   0.6292  302
        division   0.6939  434
  #      division   0.7396  590
  #      division   0.7632  770
  #      division   0.8122  974
  #      division   1.1604 1202
  #      outer_grid  974
        outer_grid  434
  ################################################################################
  #
  #  Definition of "minimal" basis
  #
  ################################################################################
  #     valence basis states
      valence      2  s   2.
      valence      2  p   3.
  #     ion occupancy
      ion_occ      2  s   1.
      ion_occ      2  p   2.
  ################################################################################
  #
  #  Suggested additional basis functions. For production calculations,
  #  uncomment them one after another (the most important basis functions are
  #  listed first).
  #
  #  Constructed for dimers: 1.0 A, 1.1 A, 1.5 A, 2.0 A, 3.0 A
  #
  ################################################################################
  #  "First tier" - improvements: -1193.42 meV to -220.60 meV
       hydro 2 p 1.8
       hydro 3 d 6.8
       hydro 3 s 5.8
  #  "Second tier" - improvements: -80.21 meV to -6.86 meV
       hydro 4 f 10.8
       hydro 3 p 5.8
       hydro 1 s 0.8
       hydro 5 g 16
       hydro 3 d 4.9
  #  "Third tier" - improvements: -4.29 meV to -0.53 meV
  #     hydro 3 s 16
  #     ionic 2 p auto
  #     hydro 3 d 6.6
  #     hydro 4 f 11.6
  #  "Fourth tier" - improvements: -0.75 meV to -0.25 meV
  #     hydro 2 p 4.5
  #     hydro 2 s 2.4
  #     hydro 5 g 14.4
  #     hydro 4 d 14.4
  #     hydro 4 f 16.8
  # Further basis functions - -0.21 meV and below
  #     hydro 3 p 14.8
  #     hydro 3 s 4.4
  #     hydro 3 d 19.6
  #     hydro 5 g 12.8
  ################################################################################
  #
  # For methods that use the localized form of the "resolution of identity" for
  # the two-electron Coulomb operator (RI_method LVL), particularly Hartree-Fock and
  # hybrid density functional calculations, the highest accuracy can be obtained by
  # uncommenting the line beginning with "for_aux"  below, thus adding an extra g radial
  # function to the construction of the product basis set for the expansion.
  # See Ref. New J. Phys. 17, 093020 (2015) for more information, particularly Figs. 1 and 6.
  #
  ################################################################################
  #
  # for_aux hydro 5 g 6.0
  ################################################################################
  #
  #  FHI-aims code project
  # Volker Blum, Fritz Haber Institute Berlin, 2009
  #
  #  Suggested "tight" defaults for O atom (to be pasted into control.in file)
  #
  ################################################################################
    species        O
  #     global species definitions
      nucleus             8
      mass                15.9994
  #
      l_hartree           6
  #
      cut_pot             4.0  2.0  1.0
      basis_dep_cutoff    1e-4
  #
      radial_base         36 7.0
      radial_multiplier   2
       angular_grids specified
        division   0.1817   50
        division   0.3417  110
        division   0.4949  194
        division   0.6251  302
        division   0.8014  434
  #      division   0.8507  590
  #      division   0.8762  770
  #      division   0.9023  974
  #      division   1.2339 1202
  #      outer_grid 974
        outer_grid  434
  ################################################################################
  #
  #  Definition of "minimal" basis
  #
  ################################################################################
  #     valence basis states
      valence      2  s   2.
      valence      2  p   4.
  #     ion occupancy
      ion_occ      2  s   1.
      ion_occ      2  p   3.
  ################################################################################
  #
  #  Suggested additional basis functions. For production calculations,
  #  uncomment them one after another (the most important basis functions are
  #  listed first).
  #
  #  Constructed for dimers: 1.0 A, 1.208 A, 1.5 A, 2.0 A, 3.0 A
  #
  ################################################################################
  #  "First tier" - improvements: -699.05 meV to -159.38 meV
       hydro 2 p 1.8
       hydro 3 d 7.6
       hydro 3 s 6.4
  #  "Second tier" - improvements: -49.91 meV to -5.39 meV
       hydro 4 f 11.6
       hydro 3 p 6.2
       hydro 3 d 5.6
       hydro 5 g 17.6
       hydro 1 s 0.75
  #  "Third tier" - improvements: -2.83 meV to -0.50 meV
  #     ionic 2 p auto
  #     hydro 4 f 10.8
  #     hydro 4 d 4.7
  #     hydro 2 s 6.8
  #  "Fourth tier" - improvements: -0.40 meV to -0.12 meV
  #     hydro 3 p 5
  #     hydro 3 s 3.3
  #     hydro 5 g 15.6
  #     hydro 4 f 17.6
  #     hydro 4 d 14
  # Further basis functions - -0.08 meV and below
  #     hydro 3 s 2.1
  #     hydro 4 d 11.6
  #     hydro 3 p 16
  #     hydro 2 s 17.2
  ################################################################################
  #
  # For methods that use the localized form of the "resolution of identity" for
  # the two-electron Coulomb operator (RI_method LVL), particularly Hartree-Fock and
  # hybrid density functional calculations, the highest accuracy can be obtained by
  # uncommenting the line beginning with "for_aux"  below, thus adding an extra g radial
  # function to the construction of the product basis set for the expansion.
  # See Ref. New J. Phys. 17, 093020 (2015) for more information, particularly Figs. 1 and 6.
  #
  ################################################################################
  #
  # for_aux hydro 5 g 6.0
  
  -----------------------------------------------------------------------
  Completed first pass over input file control.in .
  -----------------------------------------------------------------------
  
  
  -----------------------------------------------------------------------
  Parsing geometry.in (first pass over file, find array dimensions only).
  The contents of geometry.in will be repeated verbatim below
  unless switched off by setting 'verbatim_writeout .false.' .
  in the first line of geometry.in .
  -----------------------------------------------------------------------
  
  #
  # This is the geometry file that corresponds to the current relaxation step.
  # If you do not want this file to be written, set the "write_restart_geometry" flag to .false.
  #
  atom       0.03067612     -0.07674048     -0.20142603 C
  atom       0.03400925      0.27588297      1.27587982 C
  atom       1.07241099      0.43961905      1.91412787 O
  atom      -0.97574037     -0.20038267     -0.61983152 H
  atom       0.59507548     -1.00766438     -0.33877425 H
  atom       0.55821197      0.71064640     -0.75439635 H
  atom      -1.20720993      0.40997501      1.83764855 N
  atom      -1.37899781      0.62073983      3.28012560 C
  atom      -2.74786368      0.01925169      3.62147332 C
  atom      -2.88220568     -1.05326085      4.19974932 O
  atom      -2.03044542      0.14388707      1.29374082 H
  atom      -0.63113467      0.01084398      3.80437526 H
  atom      -1.20009384      2.08815601      3.68919515 C
  atom      -1.36539418      2.21037559      4.76800089 H
  atom      -1.89144191      2.75482830      3.15442005 H
  atom      -0.17704883      2.40392974      3.45395893 H
  atom      -3.82483861      0.74066471      3.14817816 N
  atom      -5.05112548      0.03049977      2.83483799 C
  atom      -4.79653729     -0.88141876      1.60785350 C
  atom      -3.97263563     -0.56656141      0.74238411 O
  atom      -3.60446035      1.51554014      2.52771521 H
  atom      -5.29535473     -0.58543105      3.70909953 H
  atom      -6.18829675      1.01083360      2.53937966 C
  atom      -7.12143634      0.47807115      2.31673719 H
  atom      -5.94690270      1.63466777      1.66708752 H
  atom      -6.35967400      1.66474996      3.40333883 H
  atom      -5.54224094     -2.01071611      1.50646340 N
  atom      -6.40803540     -2.58939416      2.52499768 C
  atom      -5.32538523     -2.57078007      0.68746516 H
  atom      -5.85830635     -2.81042832      3.45142527 H
  atom      -6.81223708     -3.53006357      2.13727731 H
  atom      -7.25994357     -1.93644791      2.76078906 H
  
  -----------------------------------------------------------------------
  Completed first pass over input file geometry.in .
  -----------------------------------------------------------------------
  

  Basic array size parameters:
  | Number of species                 :        4
  | Number of atoms                   :       32
  | Max. basis fn. angular momentum   :        4
  | Max. atomic/ionic basis occupied n:        2
  | Max. number of basis fn. types    :        2
  | Max. radial fns per species/type  :        8
  | Max. logarithmic grid size        :     1301
  | Max. radial integration grid size :       73
  | Max. angular integration grid size:      434
  | Max. angular grid division number :        8
  | Radial grid for Hartree potential :     1301
  | Number of spin channels           :        1

------------------------------------------------------------
          Reading file control.in.
------------------------------------------------------------
  XC: Using PBE gradient-corrected functionals.
  Spin treatment: No spin polarisation.
  Charge =   0.000000E+00: Neutral system requested explicitly.
  Occupation type: Gaussian broadening, width =   0.500000E-01 eV.
  Using pulay charge density mixing.
  Pulay mixing - number of memorized iterations:   10
  Charge density mixing - mixing parameter:     0.5000
  Convergence accuracy of self-consistent charge density:  0.1000E-03
  Convergence accuracy of sum of eigenvalues:  0.1000E-01
  Convergence accuracy of total energy:  0.1000E-04
  Convergence accuracy of forces:  0.1000E-03
  Maximum number of s.-c. iterations  :  1000
  Fitting ESP-charges to Potential. 
  | Esp charge output options: 
  | ESP Grid method: 3, cubic grid
  | Number of points in x, ,y, z:  0080 0080 0080
  |
 
  Reading configuration options for species H                   .
  | Found nuclear charge :   1.0000
  | Found atomic mass :    1.00794000000000      amu
  | Found l_max for Hartree potential  :   6
  | Found cutoff potl. onset [A], width [A], scale factor :    4.00000    2.00000    1.00000
  | Threshold for basis-dependent cutoff potential is   0.100000E-03
  | Found data for basic radial integration grid :    24 points, outermost radius =    7.000 A
  | Found multiplier for basic radial grid :   2
  | Found angular grid specification: user-specified.
  | Specified grid contains     6 separate shells.
  | Check grid settings after all constraints further below.
  | Found free-atom valence shell :  1 s   1.000
  | No ionic wave fns used. Skipping ion_occ.
  | Found hydrogenic basis function :  2 s   2.100
  | Found hydrogenic basis function :  2 p   3.500
  | Found hydrogenic basis function :  1 s   0.850
  | Found hydrogenic basis function :  2 p   3.700
  | Found hydrogenic basis function :  2 s   1.200
  | Found hydrogenic basis function :  3 d   7.000
  Species H                   : Missing cutoff potential type.
  Defaulting to exp(1/x)/(1-x)^2 type cutoff potential.
  Species H : No 'logarithmic' tag. Using default grid for free atom:
  | Default logarithmic grid data [bohr] : 0.1000E-03 0.1000E+03 0.1012E+01
  Species H : On-site basis accuracy parameter (for Gram-Schmidt orthonormalisation) not specified.
  Using default value basis_acc =  0.1000000E-03.
  Species H                   : Using default innermost maximum threshold i_radial=  2 for radial functions.
  Species H                   : Default cutoff onset for free atom density etc. : 0.40000000E+01 AA.
  Species H                   : Basic radial grid will be enhanced according to radial_multiplier =   2, to contain    49 grid points.
 
  Reading configuration options for species C                   .
  | Found nuclear charge :   6.0000
  | Found atomic mass :    12.0107000000000      amu
  | Found l_max for Hartree potential  :   6
  | Found cutoff potl. onset [A], width [A], scale factor :    4.00000    2.00000    1.00000
  | Threshold for basis-dependent cutoff potential is   0.100000E-03
  | Found data for basic radial integration grid :    34 points, outermost radius =    7.000 A
  | Found multiplier for basic radial grid :   2
  | Found angular grid specification: user-specified.
  | Specified grid contains     6 separate shells.
  | Check grid settings after all constraints further below.
  | Found free-atom valence shell :  2 s   2.000
  | Found free-atom valence shell :  2 p   2.000
  | No ionic wave fns used. Skipping ion_occ.
  | No ionic wave fns used. Skipping ion_occ.
  | Found hydrogenic basis function :  2 p   1.700
  | Found hydrogenic basis function :  3 d   6.000
  | Found hydrogenic basis function :  2 s   4.900
  | Found hydrogenic basis function :  4 f   9.800
  | Found hydrogenic basis function :  3 p   5.200
  | Found hydrogenic basis function :  3 s   4.300
  | Found hydrogenic basis function :  5 g  14.400
  | Found hydrogenic basis function :  3 d   6.200
  Species C                   : Missing cutoff potential type.
  Defaulting to exp(1/x)/(1-x)^2 type cutoff potential.
  Species C : No 'logarithmic' tag. Using default grid for free atom:
  | Default logarithmic grid data [bohr] : 0.1000E-03 0.1000E+03 0.1012E+01
  Species C : On-site basis accuracy parameter (for Gram-Schmidt orthonormalisation) not specified.
  Using default value basis_acc =  0.1000000E-03.
  Species C                   : Using default innermost maximum threshold i_radial=  2 for radial functions.
  Species C                   : Default cutoff onset for free atom density etc. : 0.40000000E+01 AA.
  Species C                   : Basic radial grid will be enhanced according to radial_multiplier =   2, to contain    69 grid points.
 
  Reading configuration options for species N                   .
  | Found nuclear charge :   7.0000
  | Found atomic mass :    14.0067000000000      amu
  | Found l_max for Hartree potential  :   6
  | Found cutoff potl. onset [A], width [A], scale factor :    4.00000    2.00000    1.00000
  | Threshold for basis-dependent cutoff potential is   0.100000E-03
  | Found data for basic radial integration grid :    35 points, outermost radius =    7.000 A
  | Found multiplier for basic radial grid :   2
  | Found angular grid specification: user-specified.
  | Specified grid contains     6 separate shells.
  | Check grid settings after all constraints further below.
  | Found free-atom valence shell :  2 s   2.000
  | Found free-atom valence shell :  2 p   3.000
  | No ionic wave fns used. Skipping ion_occ.
  | No ionic wave fns used. Skipping ion_occ.
  | Found hydrogenic basis function :  2 p   1.800
  | Found hydrogenic basis function :  3 d   6.800
  | Found hydrogenic basis function :  3 s   5.800
  | Found hydrogenic basis function :  4 f  10.800
  | Found hydrogenic basis function :  3 p   5.800
  | Found hydrogenic basis function :  1 s   0.800
  | Found hydrogenic basis function :  5 g  16.000
  | Found hydrogenic basis function :  3 d   4.900
  Species N                   : Missing cutoff potential type.
  Defaulting to exp(1/x)/(1-x)^2 type cutoff potential.
  Species N : No 'logarithmic' tag. Using default grid for free atom:
  | Default logarithmic grid data [bohr] : 0.1000E-03 0.1000E+03 0.1012E+01
  Species N : On-site basis accuracy parameter (for Gram-Schmidt orthonormalisation) not specified.
  Using default value basis_acc =  0.1000000E-03.
  Species N                   : Using default innermost maximum threshold i_radial=  2 for radial functions.
  Species N                   : Default cutoff onset for free atom density etc. : 0.40000000E+01 AA.
  Species N                   : Basic radial grid will be enhanced according to radial_multiplier =   2, to contain    71 grid points.
 
  Reading configuration options for species O                   .
  | Found nuclear charge :   8.0000
  | Found atomic mass :    15.9994000000000      amu
  | Found l_max for Hartree potential  :   6
  | Found cutoff potl. onset [A], width [A], scale factor :    4.00000    2.00000    1.00000
  | Threshold for basis-dependent cutoff potential is   0.100000E-03
  | Found data for basic radial integration grid :    36 points, outermost radius =    7.000 A
  | Found multiplier for basic radial grid :   2
  | Found angular grid specification: user-specified.
  | Specified grid contains     6 separate shells.
  | Check grid settings after all constraints further below.
  | Found free-atom valence shell :  2 s   2.000
  | Found free-atom valence shell :  2 p   4.000
  | No ionic wave fns used. Skipping ion_occ.
  | No ionic wave fns used. Skipping ion_occ.
  | Found hydrogenic basis function :  2 p   1.800
  | Found hydrogenic basis function :  3 d   7.600
  | Found hydrogenic basis function :  3 s   6.400
  | Found hydrogenic basis function :  4 f  11.600
  | Found hydrogenic basis function :  3 p   6.200
  | Found hydrogenic basis function :  3 d   5.600
  | Found hydrogenic basis function :  5 g  17.600
  | Found hydrogenic basis function :  1 s   0.750
  Species O                   : Missing cutoff potential type.
  Defaulting to exp(1/x)/(1-x)^2 type cutoff potential.
  Species O : No 'logarithmic' tag. Using default grid for free atom:
  | Default logarithmic grid data [bohr] : 0.1000E-03 0.1000E+03 0.1012E+01
  Species O : On-site basis accuracy parameter (for Gram-Schmidt orthonormalisation) not specified.
  Using default value basis_acc =  0.1000000E-03.
  Species O                   : Using default innermost maximum threshold i_radial=  2 for radial functions.
  Species O                   : Default cutoff onset for free atom density etc. : 0.40000000E+01 AA.
  Species O                   : Basic radial grid will be enhanced according to radial_multiplier =   2, to contain    73 grid points.
 
  Finished reading input file 'control.in'. Consistency checks are next.
 
  Target number of points in a grid batch is not set. Defaulting to  100
  Method for grid partitioning is not set. Defaulting to parallel hash+maxmin partitioning.
  Batch size limit is not set. Defaulting to    200
  By default, will store active basis functions for each batch.
  If in need of memory, prune_basis_once .false. can be used to disable this option.
  communication_type for Hartree potential was not specified.
  Defaulting to calc_hartree .
  Pulay mixer: Number of initial linear mixing iterations not set.
  Defaulting to    0 iterations.
  Work space size for distributed Hartree potential not set.
  Defaulting to   0.200000E+03 MB.
  Algorithm-dependent basis array size parameters:
  | n_max_pulay                         :       10
  Geometry relaxation not requested: no relaxation will be performed.
  Handling of forces: Unphysical translation and rotation will be removed from forces.
  No accuracy limit for integral partition fn. given. Defaulting to  0.1000E-14.
  No threshold value for u(r) in integrations given. Defaulting to  0.1000E-05.
  No accuracy for occupation numbers given. Defaulting to  0.1000E-07.
  No threshold value for occupation numbers given. Defaulting to  0.0000E+00.
  No accuracy for fermi level given. Defaulting to  0.1000E-19.
  Maximum # of iterations to find E_F not set. Defaulting to  200.
  Preferred method for the eigenvalue solver ('KS_method') not specified in 'control.in'.
  Calling blacs routine to test compilation state
  Since scalapack support is enabled, defaulting to 'elpa'.
  Preferred method for the MBD eigenvalue solver ('mbd_eigensolver') not specified in 'control.in'.
  Calling blacs routine to test compilation state
  Since scalapack support is enabled, defaulting to 'scaLAPACK'.
  Will not use alltoall communication since running on < 1024 CPUs.
  Threshold for basis singularities not set.
  Default threshold for basis singularities:  0.1000E-04
  partition_type (choice of integration weights) for integrals was not specified.
  | Using a version of the partition function of Stratmann and coworkers ('stratmann_smoother').
  | At each grid point, the set of atoms used to build the partition table is smoothly restricted to
  | only those atoms whose free-atom density would be non-zero at that grid point.
  Partitioning for Hartree potential was not defined. Using partition_type for integrals.
  | Adjusted default value of keyword multip_moments_threshold to:       0.10000000E-11
  | This value may affect high angular momentum components of the Hartree potential in periodic systems.
  No q(lm)/r^(l+1) cutoff set for long-range Hartree potential.
  | Using default value of  0.100000E-09 .
  | Verify using the multipole_threshold keyword.
  Defaulting to new monopole extrapolation.
  Density update method: automatic selection selected.
------------------------------------------------------------


------------------------------------------------------------
          Reading geometry description geometry.in.
------------------------------------------------------------
 * Warning! You did not set the 'relativistic' flag in input file 'control.in'.
 * Since you are not attempting to treat any elements beyond Ca(Z=20), FHI-aims
 * will default to 'relativistic none'.
 * You must ensure that this is really what you want!!
 * For example, DO NOT compute total-energy differences between results from
 * different settings of the 'relativistic' flag.
  Input structure read successfully.
  The structure contains       32 atoms,  and a total of        116.000 electrons.

  Input geometry:
  | No unit cell requested.
  | Atomic structure:
  |       Atom                x [A]            y [A]            z [A]
  |    1: Species C              0.030676        -0.076740        -0.201426
  |    2: Species C              0.034009         0.275883         1.275880
  |    3: Species O              1.072411         0.439619         1.914128
  |    4: Species H             -0.975740        -0.200383        -0.619832
  |    5: Species H              0.595075        -1.007664        -0.338774
  |    6: Species H              0.558212         0.710646        -0.754396
  |    7: Species N             -1.207210         0.409975         1.837649
  |    8: Species C             -1.378998         0.620740         3.280126
  |    9: Species C             -2.747864         0.019252         3.621473
  |   10: Species O             -2.882206        -1.053261         4.199749
  |   11: Species H             -2.030445         0.143887         1.293741
  |   12: Species H             -0.631135         0.010844         3.804375
  |   13: Species C             -1.200094         2.088156         3.689195
  |   14: Species H             -1.365394         2.210376         4.768001
  |   15: Species H             -1.891442         2.754828         3.154420
  |   16: Species H             -0.177049         2.403930         3.453959
  |   17: Species N             -3.824839         0.740665         3.148178
  |   18: Species C             -5.051125         0.030500         2.834838
  |   19: Species C             -4.796537        -0.881419         1.607854
  |   20: Species O             -3.972636        -0.566561         0.742384
  |   21: Species H             -3.604460         1.515540         2.527715
  |   22: Species H             -5.295355        -0.585431         3.709100
  |   23: Species C             -6.188297         1.010834         2.539380
  |   24: Species H             -7.121436         0.478071         2.316737
  |   25: Species H             -5.946903         1.634668         1.667088
  |   26: Species H             -6.359674         1.664750         3.403339
  |   27: Species N             -5.542241        -2.010716         1.506463
  |   28: Species C             -6.408035        -2.589394         2.524998
  |   29: Species H             -5.325385        -2.570780         0.687465
  |   30: Species H             -5.858306        -2.810428         3.451425
  |   31: Species H             -6.812237        -3.530064         2.137277
  |   32: Species H             -7.259944        -1.936448         2.760789
  |

  | The smallest distance between any two atoms is         1.01560630 AA.
  |
  | The first atom of this pair is atom number                     27 .
  | The second atom of this pair is atom number                    29 .

  Number of empty states per atom not set in control.in - providing a guess from actual geometry.
  | Total number of empty states used during s.c.f. cycle:       71
  If you use a very high smearing, use empty_states (per atom!) in control.in to increase this value.

  Structure-dependent array size parameters: 
  | Maximum number of distinct radial functions  :       40
  | Maximum number of basis functions            :      840
  | Number of Kohn-Sham states (occupied + empty):      129
------------------------------------------------------------

------------------------------------------------------------
          Preparing all fixed parts of the calculation.
------------------------------------------------------------
  Determining machine precision:
    2.225073858507201E-308
  Setting up grids for atomic and cluster calculations.

  Creating wave function, potential, and density for free atoms.

  Species: H

  List of occupied orbitals and eigenvalues:
    n    l              occ      energy [Ha]    energy [eV]
    1    0           1.0000        -0.238382        -6.4867


  Species: C

  List of occupied orbitals and eigenvalues:
    n    l              occ      energy [Ha]    energy [eV]
    1    0           2.0000       -10.041232      -273.2358
    2    0           2.0000        -0.504327       -13.7234
    2    1           2.0000        -0.193750        -5.2722


  Species: N

  List of occupied orbitals and eigenvalues:
    n    l              occ      energy [Ha]    energy [eV]
    1    0           2.0000       -14.129007      -384.4699
    2    0           2.0000        -0.681802       -18.5528
    2    1           3.0000        -0.260543        -7.0897


  Species: O

  List of occupied orbitals and eigenvalues:
    n    l              occ      energy [Ha]    energy [eV]
    1    0           2.0000       -18.898576      -514.2564
    2    0           2.0000        -0.878795       -23.9132
    2    1           4.0000        -0.332075        -9.0362

  Creating fixed part of basis set: Ionic, confined, hydrogenic.
 
  H                    hydrogenic:
 
  List of hydrogenic basis orbitals: 
    n    l      effective z      eigenvalue [eV]  inner max. [A]     outer max. [A]     outer radius [A]   
    2    0         2.100000       -14.9965           0.193243           1.317208           5.373006
    2    1         3.500000       -41.6672           0.602369           0.602369           4.056063
    1    0         0.850000        -9.8292           0.624871           0.624871           5.373006
    2    1         3.700000       -46.5653           0.573622           0.573622           3.910002
    2    0         1.200000        -4.5995           0.334980           2.228188           5.505995
    3    2         7.000000       -74.0753           0.680699           0.680699           3.769201
 
 
  C                    hydrogenic:
 
  List of hydrogenic basis orbitals: 
    n    l      effective z      eigenvalue [eV]  inner max. [A]     outer max. [A]     outer radius [A]   
    2    1         1.700000        -9.8152           1.245706           1.245706           5.401630
    3    2         6.000000       -54.4226           0.792453           0.792453           4.178599
    2    0         4.900000       -81.6681           0.082559           0.562749           3.353238
    4    3         9.800000       -81.6681           0.863254           0.863254           4.028125
    3    1         5.200000       -40.8774           0.305389           1.215618           4.898362
    3    0         4.300000       -27.9508           0.091041           1.610311           5.401630
    5    4        14.400000      -112.8510           0.917666           0.917666           3.883070
    3    2         6.200000       -58.1113           0.763917           0.763917           4.077671
 
 
  N                    hydrogenic:
 
  List of hydrogenic basis orbitals: 
    n    l      effective z      eigenvalue [eV]  inner max. [A]     outer max. [A]     outer radius [A]   
    2    1         1.800000       -11.0118           1.177451           1.177451           5.427479
    3    2         6.800000       -69.9029           0.704619           0.704619           3.854246
    3    0         5.800000       -50.8549           0.067388           1.191934           4.629968
    4    3        10.800000       -99.1854           0.786571           0.786571           3.761152
    3    1         5.800000       -50.8549           0.274880           1.094176           4.518138
    1    0         0.800000        -8.7059           0.662839           0.662839           5.361532
    5    4        16.000000      -139.3222           0.825990           0.825990           3.625711
    3    2         4.900000       -36.2967           0.968267           0.968267           4.862000
 
 
  O                    hydrogenic:
 
  List of hydrogenic basis orbitals: 
    n    l      effective z      eigenvalue [eV]  inner max. [A]     outer max. [A]     outer radius [A]   
    2    1         1.800000       -11.0118           1.178562           1.178562           5.432602
    3    2         7.600000       -87.3182           0.624125           0.624125           3.541477
    3    0         6.400000       -61.9209           0.061167           1.081902           4.306578
    4    3        11.600000      -114.4238           0.731631           0.731631           3.585037
    3    1         6.200000       -58.1113           0.255680           1.030270           4.306578
    3    2         5.600000       -47.4081           0.847233           0.847233           4.413171
    5    4        17.600000      -168.5799           0.749740           0.749740           3.372465
    1    0         0.750000        -7.6499           0.705284           0.705284           5.366593
 

  Adding cutoff potential to free-atom effective potential.
  Creating atomic-like basis functions for current effective potential.

  Species H                   :

  List of atomic basis orbitals and eigenvalues:
    n    l      energy [Ha]    energy [eV]    outer radius [A]
    1    0        -0.238382        -6.4867       5.373006


  Species C                   :

  List of atomic basis orbitals and eigenvalues:
    n    l      energy [Ha]    energy [eV]    outer radius [A]
    1    0       -10.041232      -273.2358       1.934409
    2    0        -0.504327       -13.7234       5.271162
    2    1        -0.193750        -5.2722       5.401630


  Species N                   :

  List of atomic basis orbitals and eigenvalues:
    n    l      energy [Ha]    energy [eV]    outer radius [A]
    1    0       -14.129007      -384.4699       1.637919
    2    0        -0.681802       -18.5528       5.168461
    2    1        -0.260543        -7.0897       5.361532


  Species O                   :

  List of atomic basis orbitals and eigenvalues:
    n    l      energy [Ha]    energy [eV]    outer radius [A]
    1    0       -18.898576      -514.2564       1.415765
    2    0        -0.878795       -23.9132       5.048385
    2    1        -0.332075        -9.0362       5.301386

  Assembling full basis from fixed parts.
  | Species H :   atomic orbital   1 s accepted.
  | Species H :    hydro orbital   2 s accepted.
  | Species H :    hydro orbital   1 s accepted.
  | Species H :    hydro orbital   2 s accepted.
  | Species H :    hydro orbital   2 p accepted.
  | Species H :    hydro orbital   2 p accepted.
  | Species H :    hydro orbital   3 d accepted.
  | Species C :   atomic orbital   1 s accepted.
  | Species C :    hydro orbital   2 s accepted.
  | Species C :   atomic orbital   2 s accepted.
  | Species C :    hydro orbital   3 s accepted.
  | Species C :    hydro orbital   3 p accepted.
  | Species C :   atomic orbital   2 p accepted.
  | Species C :    hydro orbital   2 p accepted.
  | Species C :    hydro orbital   3 d accepted.
  | Species C :    hydro orbital   3 d accepted.
  | Species C :    hydro orbital   4 f accepted.
  | Species C :    hydro orbital   5 g accepted.
  | Species N :   atomic orbital   1 s accepted.
  | Species N :    hydro orbital   3 s accepted.
  | Species N :   atomic orbital   2 s accepted.
  | Species N :    hydro orbital   1 s accepted.
  | Species N :    hydro orbital   3 p accepted.
  | Species N :   atomic orbital   2 p accepted.
  | Species N :    hydro orbital   2 p accepted.
  | Species N :    hydro orbital   3 d accepted.
  | Species N :    hydro orbital   3 d accepted.
  | Species N :    hydro orbital   4 f accepted.
  | Species N :    hydro orbital   5 g accepted.
  | Species O :   atomic orbital   1 s accepted.
  | Species O :    hydro orbital   3 s accepted.
  | Species O :   atomic orbital   2 s accepted.
  | Species O :    hydro orbital   1 s accepted.
  | Species O :    hydro orbital   3 p accepted.
  | Species O :   atomic orbital   2 p accepted.
  | Species O :    hydro orbital   2 p accepted.
  | Species O :    hydro orbital   3 d accepted.
  | Species O :    hydro orbital   3 d accepted.
  | Species O :    hydro orbital   4 f accepted.
  | Species O :    hydro orbital   5 g accepted.
 
  Basis size parameters after reduction:
  | Total number of radial functions:       40
  | Total number of basis functions :      840
 
  Testing on-site integration grid accuracy.
  |  Species  Function  <phi|h_atom|phi> (log., in eV)  <phi|h_atom|phi> (rad., in eV)
           1        1                 -6.4869821809                 -6.4870742227
           1        2                 13.5044133542                 13.5041049177
           1        3                 32.7854418792                 32.7779770519
           1        4                 33.7995553101                 33.7152624900 ***
           1        5                 28.8558651799                 28.8558652046
           1        6                 59.6361831893                 59.6362535845
           1        7                 60.2733718049                 60.2733715484
           2        8               -273.2358277112               -273.2358261765
           2        9                -10.7624923123                -10.7625144012
           2       10                 17.4634079027                 17.4634252127
           2       11                 53.0363661832                 53.0366180446
           2       12                 15.0981351967                 15.0981317714
           2       13                  3.8522181899                  3.8522770949
           2       14                 12.1181835661                 12.1206868578
           2       15                 29.4320778347                 29.4320780959
           2       16                 54.8753777694                 54.8752901936
           2       17                 59.3533975461                 59.3533974833
           2       18                 93.4537491195                 93.4537492066
           3       19               -384.4698526889               -384.4698499465
           3       20                 12.5691022037                 12.5690910168
           3       21                -15.7489097511                -15.7489165588
           3       22                 27.0978334940                 27.0985589490
           3       23                 18.5949116966                 18.5949125562
           3       24                  1.2212828291                  1.2212855301
           3       25                 13.4428926797                 13.4434051125
           3       26                 35.9380614500                 35.9380613666
           3       27                 39.9231532098                 39.9231654735
           3       28                 72.9957335806                 72.9957336833
           3       29                116.4231321147                116.4231321431
           4       30               -514.2564144315               -514.2564099626
           4       31                 15.1726678541                 15.1726530877
           4       32                -21.5447785304                -21.5447874973
           4       33                 14.4944558459                 14.4944698284
           4       34                 20.8882174564                 20.8882178906
           4       35                 -2.4850315908                 -2.4850322289
           4       36                 13.8600193195                 13.8599826966
           4       37                 45.8243383616                 45.8243383675
           4       38                 52.1840606465                 52.1840622440
           4       39                 85.4074185510                 85.4074185819
           4       40                142.0983717302                142.0983717339
 * Note: Onsite integrals marked "***" above are less accurate than
 * onsite_accuracy_threshold =    0.03000 eV. Usually, this is harmless.
 * When in doubt, tighten the "radial" and/or "radial_multiplier" flags to check.

  Preparing densities etc. for the partition functions (integrals / Hartree potential).

  Preparations completed.
  max(cpu_time)          :      0.232 s.
  Wall clock time (cpu1) :      0.232 s.
------------------------------------------------------------

------------------------------------------------------------
          Begin self-consistency loop: Initialization.

          Date     :  20170309, Time     :  180711.424
------------------------------------------------------------

  Initializing index lists of integration centers etc. from given atomic structure:
  | Number of centers in hartree potential         :        32
  | Number of centers in hartree multipole         :        32
  | Number of centers in electron density summation:        32
  | Number of centers in basis integrals           :        32
  | Number of centers in integrals                 :        32
  | Number of centers in hamiltonian               :        32
  Using modified Scalapack Eigenvalue solver (ELPA)
  * Using 32 tasks for Scalapack Eigenvalue solver.
  Detailed listing of tasks and assigned k-points:
  (for non-periodic systems, the "k-point" denotes an internal label only)
   Task     0 k-point     1 on eos306
   Task     1 k-point     1 on eos306
   Task     2 k-point     1 on eos306
   Task     3 k-point     1 on eos306
   Task     4 k-point     1 on eos306
   Task     5 k-point     1 on eos306
   Task     6 k-point     1 on eos306
   Task     7 k-point     1 on eos306
   Task     8 k-point     1 on eos306
   Task     9 k-point     1 on eos306
   Task    10 k-point     1 on eos306
   Task    11 k-point     1 on eos306
   Task    12 k-point     1 on eos306
   Task    13 k-point     1 on eos306
   Task    14 k-point     1 on eos306
   Task    15 k-point     1 on eos306
   Task    16 k-point     1 on eos306
   Task    17 k-point     1 on eos306
   Task    18 k-point     1 on eos306
   Task    19 k-point     1 on eos306
   Task    20 k-point     1 on eos306
   Task    21 k-point     1 on eos306
   Task    22 k-point     1 on eos306
   Task    23 k-point     1 on eos306
   Task    24 k-point     1 on eos306
   Task    25 k-point     1 on eos306
   Task    26 k-point     1 on eos306
   Task    27 k-point     1 on eos306
   Task    28 k-point     1 on eos306
   Task    29 k-point     1 on eos306
   Task    30 k-point     1 on eos306
   Task    31 k-point     1 on eos306
  Tasks:    32 split into      8 X      4 BLACS grid
  Calculating blocksize based on n_basis =          840 max_nprow =            8 max_npcol =            4
  Scalapack blocksize set to:           16
  Required Scalapack workspace - INTEGER:            1 REAL:             1
  Partitioning the integration grid into batches with parallel hashing+maxmin method.
  | Number of batches:     4906
  | Maximal batch size:     200
  | Minimal batch size:      27
  | Average batch size:     107.568
  | Standard deviation of batch sizes:      31.993

  Integration load balanced across    32 MPI tasks.
  Work distribution over tasks is as follows:
  Task     0 has      16527 integration points.
  Task     1 has      16510 integration points.
  Task     2 has      16424 integration points.
  Task     3 has      16504 integration points.
  Task     4 has      16424 integration points.
  Task     5 has      16513 integration points.
  Task     6 has      16522 integration points.
  Task     7 has      16413 integration points.
  Task     8 has      16593 integration points.
  Task     9 has      16429 integration points.
  Task    10 has      16506 integration points.
  Task    11 has      16519 integration points.
  Task    12 has      16533 integration points.
  Task    13 has      16485 integration points.
  Task    14 has      16487 integration points.
  Task    15 has      16527 integration points.
  Task    16 has      16404 integration points.
  Task    17 has      16518 integration points.
  Task    18 has      16513 integration points.
  Task    19 has      16423 integration points.
  Task    20 has      16420 integration points.
  Task    21 has      16516 integration points.
  Task    22 has      16484 integration points.
  Task    23 has      16491 integration points.
  Task    24 has      16530 integration points.
  Task    25 has      16494 integration points.
  Task    26 has      16509 integration points.
  Task    27 has      16482 integration points.
  Task    28 has      16510 integration points.
  Task    29 has      16484 integration points.
  Task    30 has      16538 integration points.
  Task    31 has      16496 integration points.
  Initializing partition tables, free-atom densities, potentials, etc. across the integration grid (initialize_grid_storage).
  | initialize_grid_storage: Actual outermost partition radius vs. multipole_radius_free
  | (-- VB: in principle, multipole_radius_free should be larger, hence this output)
  | Species        1: Confinement radius =              6.000000000000000 AA, multipole_radius_free =              6.071692442739658 AA.
  | Species        1: outer_partition_radius set to              6.071692442739658 AA .
  | Species        2: Confinement radius =              6.000000000000000 AA, multipole_radius_free =              6.029870734432609 AA.
  | Species        2: outer_partition_radius set to              6.029870734432609 AA .
  | Species        3: Confinement radius =              6.000000000000000 AA, multipole_radius_free =              6.058726835495003 AA.
  | Species        3: outer_partition_radius set to              6.058726835495003 AA .
  | Species        4: Confinement radius =              6.000000000000000 AA, multipole_radius_free =              6.064445521808699 AA.
  | Species        4: outer_partition_radius set to              6.064445521808699 AA .
  | Original list of interatomic distances with          32 x         32 entries is created.
  | Net number of integration points:   527728
  | of which are non-zero points    :   415873
  Obtaining max. number of non-zero basis functions in each batch (get_n_compute_maxes).
  | Maximal number of non-zero basis functions:      767 in task     0
  | Maximal number of non-zero basis functions:      758 in task     1
  | Maximal number of non-zero basis functions:      779 in task     2
  | Maximal number of non-zero basis functions:      738 in task     3
  | Maximal number of non-zero basis functions:      762 in task     4
  | Maximal number of non-zero basis functions:      752 in task     5
  | Maximal number of non-zero basis functions:      753 in task     6
  | Maximal number of non-zero basis functions:      743 in task     7
  | Maximal number of non-zero basis functions:      745 in task     8
  | Maximal number of non-zero basis functions:      765 in task     9
  | Maximal number of non-zero basis functions:      758 in task    10
  | Maximal number of non-zero basis functions:      746 in task    11
  | Maximal number of non-zero basis functions:      788 in task    12
  | Maximal number of non-zero basis functions:      740 in task    13
  | Maximal number of non-zero basis functions:      721 in task    14
  | Maximal number of non-zero basis functions:      755 in task    15
  | Maximal number of non-zero basis functions:      763 in task    16
  | Maximal number of non-zero basis functions:      755 in task    17
  | Maximal number of non-zero basis functions:      733 in task    18
  | Maximal number of non-zero basis functions:      765 in task    19
  | Maximal number of non-zero basis functions:      762 in task    20
  | Maximal number of non-zero basis functions:      765 in task    21
  | Maximal number of non-zero basis functions:      759 in task    22
  | Maximal number of non-zero basis functions:      751 in task    23
  | Maximal number of non-zero basis functions:      755 in task    24
  | Maximal number of non-zero basis functions:      759 in task    25
  | Maximal number of non-zero basis functions:      758 in task    26
  | Maximal number of non-zero basis functions:      765 in task    27
  | Maximal number of non-zero basis functions:      764 in task    28
  | Maximal number of non-zero basis functions:      758 in task    29
  | Maximal number of non-zero basis functions:      766 in task    30
  | Maximal number of non-zero basis functions:      750 in task    31
  Selecting the method for density update.
  Loop over occupied states selected for charge density update.
  Integrating Hamiltonian matrix: batch-based integration.
  Time summed over all CPUs for integration: real work       20.733 s, elapsed       21.480 s
  Integrating overlap matrix.
  Time summed over all CPUs for integration: real work       12.578 s, elapsed       13.020 s
  Deallocating overlap matrix.

  Updating Kohn-Sham eigenvalues, eigenvectors, occupation numbers, and Fermi level.
  Solving generalized eigenproblem
  Solving real symmetric generalised eigenvalue problem by standard ScaLAPACK.
  Transforming overlap matrix with ScaLAPACK and checking for singularities.
  : Overlap matrix is nonsingular, using Cholesky decomposition
  | Lowest eigenvalue:  0.827058E-04
  Factoring overlap matrix with Cholesky decomposition
  Using Cholesky factor for transformation
  Using 1-stage real ELPA solver
  Determining occupation numbers for Kohn-Sham eigenstates.
  | Chemical potential (Fermi level) in eV                 : -.95981180E+01
  | Error in electron count due to remaining E_F inaccuracy: 0.00000000E+00
  | Maximum occupation number of highest empty state:  0.00E+00

  Writing Kohn-Sham eigenvalues.

  State    Occupation    Eigenvalue [Ha]    Eigenvalue [eV]
      1       2.00000         -18.974878         -516.33270
      2       2.00000         -18.973777         -516.30273
      3       2.00000         -18.973064         -516.28334
      4       2.00000         -14.255925         -387.92346
      5       2.00000         -14.253530         -387.85829
      6       2.00000         -14.252425         -387.82822
      7       2.00000         -10.170895         -276.76414
      8       2.00000         -10.170745         -276.76004
      9       2.00000         -10.170411         -276.75096
     10       2.00000         -10.166526         -276.64524
     11       2.00000         -10.149599         -276.18463
     12       2.00000         -10.148844         -276.16408
     13       2.00000         -10.136032         -275.81546
     14       2.00000         -10.134517         -275.77425
     15       2.00000         -10.133903         -275.75754
     16       2.00000          -1.135615          -30.90167
     17       2.00000          -1.129844          -30.74461
     18       2.00000          -1.126728          -30.65982
     19       2.00000          -1.022095          -27.81263
     20       2.00000          -1.013401          -27.57604
     21       2.00000          -1.007119          -27.40511
     22       2.00000          -0.891646          -24.26291
     23       2.00000          -0.871184          -23.70612
     24       2.00000          -0.840788          -22.87902
     25       2.00000          -0.816687          -22.22317
     26       2.00000          -0.778810          -21.19250
     27       2.00000          -0.756851          -20.59497
     28       2.00000          -0.702731          -19.12229
     29       2.00000          -0.685674          -18.65813
     30       2.00000          -0.674875          -18.36427
     31       2.00000          -0.642771          -17.49070
     32       2.00000          -0.621914          -16.92313
     33       2.00000          -0.611393          -16.63686
     34       2.00000          -0.602620          -16.39813
     35       2.00000          -0.595289          -16.19865
     36       2.00000          -0.582051          -15.83842
     37       2.00000          -0.565216          -15.38032
     38       2.00000          -0.565106          -15.37732
     39       2.00000          -0.555734          -15.12230
     40       2.00000          -0.551195          -14.99878
     41       2.00000          -0.548430          -14.92353
     42       2.00000          -0.542081          -14.75079
     43       2.00000          -0.536064          -14.58704
     44       2.00000          -0.530575          -14.43767
     45       2.00000          -0.522421          -14.21579
     46       2.00000          -0.514344          -13.99600
     47       2.00000          -0.510215          -13.88365
     48       2.00000          -0.500636          -13.62301
     49       2.00000          -0.495945          -13.49536
     50       2.00000          -0.489463          -13.31897
     51       2.00000          -0.480055          -13.06297
     52       2.00000          -0.472896          -12.86814
     53       2.00000          -0.410115          -11.15981
     54       2.00000          -0.406810          -11.06988
     55       2.00000          -0.399911          -10.88212
     56       2.00000          -0.389796          -10.60688
     57       2.00000          -0.386184          -10.50859
     58       2.00000          -0.380740          -10.36045
     59       0.00000          -0.177620           -4.83329
     60       0.00000          -0.162332           -4.41727
     61       0.00000          -0.150002           -4.08176
     62       0.00000          -0.078733           -2.14244
     63       0.00000          -0.067370           -1.83323
     64       0.00000          -0.057001           -1.55108
     65       0.00000          -0.052175           -1.41975
     66       0.00000          -0.045147           -1.22850
     67       0.00000          -0.037977           -1.03341
     68       0.00000          -0.034189           -0.93034
     69       0.00000          -0.028963           -0.78811
     70       0.00000          -0.024840           -0.67593
     71       0.00000          -0.020570           -0.55974
     72       0.00000          -0.018931           -0.51514
     73       0.00000          -0.010100           -0.27485
     74       0.00000          -0.006672           -0.18155
     75       0.00000          -0.001917           -0.05217
     76       0.00000          -0.000097           -0.00265
     77       0.00000           0.001341            0.03649
     78       0.00000           0.005093            0.13859
     79       0.00000           0.009993            0.27192
     80       0.00000           0.017445            0.47469
     81       0.00000           0.024160            0.65742
     82       0.00000           0.031041            0.84466
     83       0.00000           0.035556            0.96753
     84       0.00000           0.038200            1.03948
     85       0.00000           0.044173            1.20200
     86       0.00000           0.047709            1.29822
     87       0.00000           0.051709            1.40709
     88       0.00000           0.058449            1.59049
     89       0.00000           0.060512            1.64661
     90       0.00000           0.067921            1.84822
     91       0.00000           0.075037            2.04186
     92       0.00000           0.078287            2.13029
     93       0.00000           0.089096            2.42442
     94       0.00000           0.094064            2.55961
     95       0.00000           0.097965            2.66576
     96       0.00000           0.099614            2.71063
     97       0.00000           0.101971            2.77478
     98       0.00000           0.107890            2.93583
     99       0.00000           0.118544            3.22574
    100       0.00000           0.119283            3.24584
    101       0.00000           0.130320            3.54618
    102       0.00000           0.130686            3.55615
    103       0.00000           0.133878            3.64300
    104       0.00000           0.141364            3.84672
    105       0.00000           0.150118            4.08491
    106       0.00000           0.156592            4.26109
    107       0.00000           0.157382            4.28258
    108       0.00000           0.158757            4.32001
    109       0.00000           0.168008            4.57173
    110       0.00000           0.170151            4.63005
    111       0.00000           0.176800            4.81099
    112       0.00000           0.180335            4.90716
    113       0.00000           0.185432            5.04587
    114       0.00000           0.188830            5.13833
    115       0.00000           0.195522            5.32044
    116       0.00000           0.197481            5.37372
    117       0.00000           0.203217            5.52982
    118       0.00000           0.209224            5.69326
    119       0.00000           0.212711            5.78817
    120       0.00000           0.218437            5.94397
    121       0.00000           0.220733            6.00644
    122       0.00000           0.226790            6.17126
    123       0.00000           0.229174            6.23614
    124       0.00000           0.231179            6.29071
    125       0.00000           0.243151            6.61648
    126       0.00000           0.247286            6.72900
    127       0.00000           0.251281            6.83769
    128       0.00000           0.258255            7.02747
    129       0.00000           0.266703            7.25735

  Highest occupied state (VBM) at    -10.36045460 eV
  | Occupation number:      2.00000000

  Lowest unoccupied state (CBM) at    -4.83328751 eV
  | Occupation number:      0.00000000

  Overall HOMO-LUMO gap:      5.52716709 eV.
  Calculating total energy contributions from superposition of free atom densities.

  Total energy components:
  | Sum of eigenvalues            :        -437.85817629 Ha      -11914.72719161 eV
  | XC energy correction          :         -98.81798616 Ha       -2688.97421681 eV
  | XC potential correction       :         127.01821338 Ha        3456.34144275 eV
  | Free-atom electrostatic energy:        -333.62839993 Ha       -9078.49067059 eV
  | Hartree energy correction     :           0.00000000 Ha           0.00000000 eV
  | vdW energy correction         :           0.00000000 Ha           0.00000000 eV
  | Entropy correction            :          -0.00000000 Ha          -0.00000000 eV
  | ---------------------------
  | Total energy                  :        -743.28634900 Ha      -20225.85063627 eV
  | Total energy, T -> 0          :        -743.28634900 Ha      -20225.85063627 eV  <-- do not rely on this value for anything but (periodic) metals
  | Electronic free energy        :        -743.28634900 Ha      -20225.85063627 eV

  Derived energy quantities:
  | Kinetic energy                :         735.15829695 Ha       20004.67508676 eV
  | Electrostatic energy          :       -1379.62665980 Ha      -37541.55150622 eV
  | Energy correction for multipole
  | error in Hartree potential    :           0.00000000 Ha           0.00000000 eV
  | Sum of eigenvalues per atom                           :        -372.33522474 eV
  | Total energy (T->0) per atom                          :        -632.05783238 eV  <-- do not rely on this value for anything but (periodic) metals
  | Electronic free energy per atom                       :        -632.05783238 eV
  Initialize hartree_potential_storage
  Max. number of atoms included in rho_multipole:           32

  End scf initialization - timings             :  max(cpu_time)    wall_clock(cpu1)
  | Time for scf. initialization               :        1.820 s           1.819 s
  | Boundary condition initialization          :        0.000 s           0.000 s
  | Integration                                :        1.100 s           1.099 s
  | Solution of K.-S. eqns.                    :        0.076 s           0.074 s
  | Grid partitioning                          :        0.312 s           0.307 s
  | Preloading free-atom quantities on grid    :        0.028 s           0.031 s
  | Free-atom superposition energy             :        0.040 s           0.037 s
  | Total energy evaluation                    :        0.000 s           0.001 s
------------------------------------------------------------

------------------------------------------------------------
          Begin self-consistency iteration #    1

  Date     :  20170309, Time     :  180713.244
------------------------------------------------------------
  Evaluating new KS density.
  Integration grid: deviation in total charge (<rho> - N_e) =  -1.421085E-14
  Pulay mixing of updated and previous charge densities.

  Evaluating partitioned Hartree potential by multipole expansion.
  | Analytical far-field extrapolation by fixed multipoles:
  | Hartree multipole sum: apparent total charge =   0.509957E-04
  Summing up the Hartree potential.
  Time summed over all CPUs for potential: real work        9.501 s, elapsed        9.742 s
  | RMS charge density error from multipole expansion :   0.107326E-01

  Integrating Hamiltonian matrix: batch-based integration.
  Time summed over all CPUs for integration: real work       20.552 s, elapsed       21.284 s

  Updating Kohn-Sham eigenvalues, eigenvectors, occupation numbers, and Fermi level.
  Solving generalized eigenproblem
  Solving real symmetric generalised eigenvalue problem by standard ScaLAPACK.
  Using Cholesky factor for transformation
  Using 2-stage real ELPA solver
  K-Point:    1, Trafo times: 1-stage=     0.021 s, 2-stage=     0.019 s ==> Using 2-stage solver
  Determining occupation numbers for Kohn-Sham eigenstates.
  | Chemical potential (Fermi level) in eV                 : -.48279507E+01
  | Error in electron count due to remaining E_F inaccuracy: 0.00000000E+00
  | Maximum occupation number of highest empty state:  0.00E+00

  Writing Kohn-Sham eigenvalues.

  State    Occupation    Eigenvalue [Ha]    Eigenvalue [eV]
      1       2.00000         -18.637280         -507.14620
      2       2.00000         -18.630353         -506.95769
      3       2.00000         -18.595942         -506.02133
      4       2.00000         -13.993953         -380.79485
      5       2.00000         -13.986990         -380.60536
      6       2.00000         -13.976932         -380.33168
      7       2.00000         -10.059718         -273.73885
      8       2.00000         -10.058521         -273.70628
      9       2.00000         -10.033473         -273.02470
     10       2.00000          -9.960512         -271.03931
     11       2.00000          -9.949532         -270.74055
     12       2.00000          -9.901407         -269.43099
     13       2.00000          -9.848801         -267.99950
     14       2.00000          -9.835832         -267.64661
     15       2.00000          -9.828393         -267.44418
     16       2.00000          -0.976963          -26.58452
     17       2.00000          -0.963878          -26.22846
     18       2.00000          -0.939662          -25.56951
     19       2.00000          -0.871698          -23.72011
     20       2.00000          -0.867169          -23.59686
     21       2.00000          -0.848589          -23.09129
     22       2.00000          -0.744232          -20.25159
     23       2.00000          -0.715943          -19.48179
     24       2.00000          -0.680434          -18.51556
     25       2.00000          -0.674006          -18.34065
     26       2.00000          -0.635118          -17.28244
     27       2.00000          -0.618474          -16.82952
     28       2.00000          -0.570964          -15.53672
     29       2.00000          -0.551638          -15.01084
     30       2.00000          -0.544414          -14.81425
     31       2.00000          -0.503874          -13.71111
     32       2.00000          -0.488130          -13.28270
     33       2.00000          -0.472313          -12.85230
     34       2.00000          -0.460333          -12.52630
     35       2.00000          -0.443927          -12.07987
     36       2.00000          -0.435547          -11.85182
     37       2.00000          -0.424891          -11.56188
     38       2.00000          -0.420748          -11.44915
     39       2.00000          -0.408896          -11.12664
     40       2.00000          -0.405350          -11.03014
     41       2.00000          -0.397708          -10.82219
     42       2.00000          -0.390457          -10.62487
     43       2.00000          -0.385318          -10.48503
     44       2.00000          -0.379674          -10.33145
     45       2.00000          -0.374796          -10.19871
     46       2.00000          -0.367331           -9.99560
     47       2.00000          -0.358422           -9.75316
     48       2.00000          -0.355886           -9.68414
     49       2.00000          -0.347083           -9.44460
     50       2.00000          -0.345322           -9.39668
     51       2.00000          -0.336824           -9.16543
     52       2.00000          -0.316361           -8.60863
     53       2.00000          -0.247271           -6.72858
     54       2.00000          -0.241504           -6.57167
     55       2.00000          -0.230318           -6.26728
     56       2.00000          -0.227823           -6.19937
     57       2.00000          -0.209844           -5.71014
     58       2.00000          -0.193756           -5.27237
     59       0.00000          -0.063243           -1.72094
     60       0.00000          -0.050170           -1.36519
     61       0.00000          -0.034573           -0.94077
     62       0.00000          -0.027657           -0.75259
     63       0.00000          -0.019288           -0.52486
     64       0.00000          -0.014912           -0.40577
     65       0.00000          -0.001898           -0.05165
     66       0.00000           0.003830            0.10421
     67       0.00000           0.011690            0.31809
     68       0.00000           0.016538            0.45002
     69       0.00000           0.024072            0.65504
     70       0.00000           0.030888            0.84051
     71       0.00000           0.038874            1.05783
     72       0.00000           0.042506            1.15666
     73       0.00000           0.046622            1.26866
     74       0.00000           0.051355            1.39745
     75       0.00000           0.053138            1.44597
     76       0.00000           0.058264            1.58544
     77       0.00000           0.069074            1.87961
     78       0.00000           0.072341            1.96849
     79       0.00000           0.076116            2.07123
     80       0.00000           0.079751            2.17012
     81       0.00000           0.088893            2.41890
     82       0.00000           0.093686            2.54933
     83       0.00000           0.097120            2.64276
     84       0.00000           0.104342            2.83928
     85       0.00000           0.109015            2.96645
     86       0.00000           0.113732            3.09480
     87       0.00000           0.124716            3.39369
     88       0.00000           0.128386            3.49356
     89       0.00000           0.134021            3.64690
     90       0.00000           0.137620            3.74484
     91       0.00000           0.142316            3.87261
     92       0.00000           0.150233            4.08803
     93       0.00000           0.154472            4.20339
     94       0.00000           0.157740            4.29232
     95       0.00000           0.166375            4.52730
     96       0.00000           0.171078            4.65527
     97       0.00000           0.178999            4.87080
     98       0.00000           0.184592            5.02301
     99       0.00000           0.186173            5.06602
    100       0.00000           0.189935            5.16840
    101       0.00000           0.193430            5.26349
    102       0.00000           0.196735            5.35344
    103       0.00000           0.200787            5.46371
    104       0.00000           0.210411            5.72557
    105       0.00000           0.211220            5.74760
    106       0.00000           0.216730            5.89753
    107       0.00000           0.219902            5.98384
    108       0.00000           0.225662            6.14058
    109       0.00000           0.230203            6.26413
    110       0.00000           0.232470            6.32583
    111       0.00000           0.242384            6.59561
    112       0.00000           0.244124            6.64294
    113       0.00000           0.247297            6.72929
    114       0.00000           0.250202            6.80835
    115       0.00000           0.255972            6.96535
    116       0.00000           0.263220            7.16258
    117       0.00000           0.267464            7.27807
    118       0.00000           0.269483            7.33300
    119       0.00000           0.273946            7.45445
    120       0.00000           0.274774            7.47698
    121       0.00000           0.277275            7.54504
    122       0.00000           0.287832            7.83230
    123       0.00000           0.297140            8.08558
    124       0.00000           0.314748            8.56473
    125       0.00000           0.318492            8.66660
    126       0.00000           0.327151            8.90224
    127       0.00000           0.334148            9.09262
    128       0.00000           0.338850            9.22058
    129       0.00000           0.344303            9.36897

  Highest occupied state (VBM) at     -5.27237050 eV
  | Occupation number:      2.00000000

  Lowest unoccupied state (CBM) at    -1.72094031 eV
  | Occupation number:      0.00000000

  Overall HOMO-LUMO gap:      3.55143019 eV.

  Total energy components:
  | Sum of eigenvalues            :        -417.34105880 Ha      -11356.42801853 eV
  | XC energy correction          :        -100.74959502 Ha       -2741.53596843 eV
  | XC potential correction       :         129.52345938 Ha        3524.51265498 eV
  | Free-atom electrostatic energy:        -333.62839993 Ha       -9078.49067059 eV
  | Hartree energy correction     :         -20.52280997 Ha        -558.45407312 eV
  | vdW energy correction         :           0.00000000 Ha           0.00000000 eV
  | Entropy correction            :          -0.00000000 Ha          -0.00000000 eV
  | ---------------------------
  | Total energy                  :        -742.71840434 Ha      -20210.39607570 eV
  | Total energy, T -> 0          :        -742.71840434 Ha      -20210.39607570 eV  <-- do not rely on this value for anything but (periodic) metals
  | Electronic free energy        :        -742.71840434 Ha      -20210.39607570 eV

  Derived energy quantities:
  | Kinetic energy                :         744.02944392 Ha       20246.07127771 eV
  | Electrostatic energy          :       -1385.99825323 Ha      -37714.93138497 eV
  | Energy correction for multipole
  | error in Hartree potential    :          -0.04054207 Ha          -1.10320580 eV
  | Sum of eigenvalues per atom                           :        -354.88837558 eV
  | Total energy (T->0) per atom                          :        -631.57487737 eV  <-- do not rely on this value for anything but (periodic) metals
  | Electronic free energy per atom                       :        -631.57487737 eV

  Self-consistency convergence accuracy:
  | Change of charge density      :  0.9016E+00
  | Change of sum of eigenvalues  :  0.5583E+03 eV
  | Change of total energy        :  0.1545E+02 eV

  End self-consistency iteration #     1       :  max(cpu_time)    wall_clock(cpu1)
  | Time for this iteration                    :        1.496 s           1.498 s
  | Charge density update                      :        0.472 s           0.472 s
[...]
   ----------------------------------------------------------------
   Total forces(  20)            : -0.375645E-02 -0.428033E-03  0.204873E-02
  atom #   21
   Hellmann-Feynman              :  0.113085E-01 -0.679372E-01  0.405733E-02
   Ionic forces                  :  0.000000E+00  0.000000E+00  0.000000E+00
   Multipole                     : -0.236121E-01  0.451164E-02  0.102877E-01
   Pulay + GGA                   :  0.139532E-01  0.516468E-01 -0.242914E-01
   Van der Waals                 : -0.129588E-02  0.965816E-02  0.102027E-01
   ----------------------------------------------------------------
   Total forces(  21)            :  0.353732E-03 -0.212065E-02  0.256336E-03
  atom #   22
   Hellmann-Feynman              :  0.459039E-01  0.462332E-01 -0.218076E-01
   Ionic forces                  :  0.000000E+00  0.000000E+00  0.000000E+00
   Multipole                     : -0.175808E-01 -0.880493E-02 -0.177274E-01
   Pulay + GGA                   : -0.394059E-01 -0.442307E-01  0.329882E-01
   Van der Waals                 :  0.109014E-01  0.703626E-02  0.478288E-02
   ----------------------------------------------------------------
   Total forces(  22)            : -0.181422E-03  0.233851E-03 -0.176389E-02
  atom #   23
   Hellmann-Feynman              : -0.683480E+00  0.859097E+00 -0.965593E-01
   Ionic forces                  :  0.000000E+00  0.000000E+00  0.000000E+00
   Multipole                     :  0.177929E+00 -0.245730E+00  0.121502E+00
   Pulay + GGA                   :  0.504326E+00 -0.605648E+00 -0.309749E-01
   Van der Waals                 :  0.211509E-02 -0.815675E-02  0.648694E-02
   ----------------------------------------------------------------
   Total forces(  23)            :  0.890832E-03 -0.438099E-03  0.454601E-03
  atom #   24
   Hellmann-Feynman              :  0.500853E-01  0.371306E-02  0.866459E-02
   Ionic forces                  :  0.000000E+00  0.000000E+00  0.000000E+00
   Multipole                     :  0.154151E-02  0.306670E-01  0.232662E-03
   Pulay + GGA                   : -0.516697E-01 -0.387183E-01 -0.634414E-02
   Van der Waals                 : -0.205128E-03  0.472859E-02 -0.202444E-02
   ----------------------------------------------------------------
   Total forces(  24)            : -0.247989E-03  0.390287E-03  0.528679E-03
  atom #   25
   Hellmann-Feynman              :  0.543612E-02 -0.449177E-01  0.213908E-01
   Ionic forces                  :  0.000000E+00  0.000000E+00  0.000000E+00
   Multipole                     : -0.162069E-01  0.203604E-02  0.215513E-01
   Pulay + GGA                   :  0.175370E-01  0.422284E-01 -0.388877E-01
   Van der Waals                 : -0.725364E-02  0.165358E-03 -0.336151E-02
   ----------------------------------------------------------------
   Total forces(  25)            : -0.487392E-03 -0.487949E-03  0.692936E-03
  atom #   26
   Hellmann-Feynman              :  0.356975E-01 -0.425196E-01 -0.111529E-01
   Ionic forces                  :  0.000000E+00  0.000000E+00  0.000000E+00
   Multipole                     : -0.149673E-01  0.275622E-02 -0.300061E-01
   Pulay + GGA                   : -0.196011E-01  0.394060E-01  0.440079E-01
   Van der Waals                 : -0.113583E-02 -0.180662E-04 -0.326639E-02
   ----------------------------------------------------------------
   Total forces(  26)            : -0.680829E-05 -0.375447E-03 -0.417569E-03
  atom #   27
   Hellmann-Feynman              :  0.995886E-01  0.112759E+01 -0.132950E+01
   Ionic forces                  :  0.000000E+00  0.000000E+00  0.000000E+00
   Multipole                     :  0.139477E+00  0.139241E+00 -0.972726E-01
   Pulay + GGA                   : -0.249411E+00 -0.127310E+01  0.142524E+01
   Van der Waals                 :  0.122143E-01  0.676580E-02  0.738457E-03
   ----------------------------------------------------------------
   Total forces(  27)            :  0.186927E-02  0.491552E-03 -0.797280E-03
  atom #   28
   Hellmann-Feynman              : -0.128614E+01 -0.108646E+01  0.157053E+01
   Ionic forces                  :  0.000000E+00  0.000000E+00  0.000000E+00
   Multipole                     :  0.664030E-01  0.424174E-01 -0.121362E+00
   Pulay + GGA                   :  0.121587E+01  0.103758E+01 -0.144742E+01
   Van der Waals                 :  0.344248E-02  0.686540E-02 -0.245141E-02
   ----------------------------------------------------------------
   Total forces(  28)            : -0.432310E-03  0.408376E-03 -0.700307E-03
  atom #   29
   Hellmann-Feynman              :  0.238893E-01  0.555712E-01  0.281102E-01
   Ionic forces                  :  0.000000E+00  0.000000E+00  0.000000E+00
   Multipole                     : -0.291167E-01 -0.182372E-01  0.200508E-01
   Pulay + GGA                   :  0.244331E-02 -0.452398E-01 -0.525585E-01
   Van der Waals                 :  0.549434E-03  0.738089E-02  0.682158E-02
   ----------------------------------------------------------------
   Total forces(  29)            : -0.223468E-02 -0.525004E-03  0.242407E-02
  atom #   30
   Hellmann-Feynman              :  0.232259E-01  0.136342E-01 -0.565503E-01
   Ionic forces                  :  0.000000E+00  0.000000E+00  0.000000E+00
   Multipole                     : -0.269006E-01  0.100170E-01 -0.114231E-01
   Pulay + GGA                   :  0.233177E-02 -0.189091E-01  0.638793E-01
   Van der Waals                 :  0.741285E-03 -0.420005E-02  0.345181E-02
   ----------------------------------------------------------------
   Total forces(  30)            : -0.601590E-03  0.542011E-03 -0.642399E-03
  atom #   31
   Hellmann-Feynman              :  0.315914E-01  0.405033E-01 -0.155363E-01
   Ionic forces                  :  0.000000E+00  0.000000E+00  0.000000E+00
   Multipole                     : -0.107956E-01  0.111706E-01  0.422270E-01
   Pulay + GGA                   : -0.226440E-01 -0.558163E-01 -0.284517E-01
   Van der Waals                 :  0.164558E-02  0.512515E-02  0.240302E-02
   ----------------------------------------------------------------
   Total forces(  31)            : -0.202533E-03  0.982657E-03  0.641983E-03
  atom #   32
   Hellmann-Feynman              :  0.445578E-01 -0.955095E-02 -0.315812E-01
   Ionic forces                  :  0.000000E+00  0.000000E+00  0.000000E+00
   Multipole                     :  0.205890E-01 -0.189433E-01  0.122396E-01
   Pulay + GGA                   : -0.538007E-01  0.378673E-01  0.196862E-01
   Van der Waals                 : -0.996475E-02 -0.974798E-02 -0.299976E-03
   ----------------------------------------------------------------
   Total forces(  32)            :  0.138134E-02 -0.374897E-03  0.446389E-04

  Timings for VdW correction (Tkatchenko-Scheffler 2009 or later):
  | CPU time:        0.124 s, Wall clock time:        0.121 s.
  Removing unitary transformations (pure translations, rotations) from forces on atoms.
  Atomic forces before filtering:
  | Net force on center of mass :  -0.357156E-03  0.165456E-03  0.273772E-03 eV/A
  | Net torque on center of mass:   0.126377E-02  0.576525E-03 -0.107269E-02 eV
  Atomic forces after filtering:
  | Net force on center of mass :  -0.696899E-18 -0.609787E-18  0.109435E-17 eV/A
  | Net torque on center of mass:   0.212050E-17  0.458674E-17  0.479418E-17 eV

  Energy and forces in a compact form:
  | Total energy uncorrected      :         -0.202087626653018E+05 eV
  | Total energy corrected        :         -0.202087626653019E+05 eV  <-- do not rely on this value for anything but (periodic) metals
  | Electronic free energy        :         -0.202087626653020E+05 eV
  Total atomic forces (unitary forces cleaned) [eV/Ang]:
  |   1          0.780715061824341E-05         -0.870394103725230E-03          0.832160921718251E-04
  |   2          0.394905102603986E-02          0.528428411279877E-03          0.254112903226141E-02
  |   3         -0.453695870701115E-02         -0.244354293037599E-03         -0.201932762299054E-02
  |   4          0.843764735667712E-03          0.623622941964236E-05          0.247095659637200E-03
  |   5          0.681401712061590E-04          0.105390478954137E-02          0.248732389473382E-04
  |   6         -0.597430827645598E-03         -0.127278499343472E-03          0.203420946913830E-03
  |   7          0.112592044091009E-04          0.227244554672365E-02         -0.113669342607101E-02
  |   8          0.342461080898211E-03          0.627057492880820E-03          0.139109654463000E-02
  |   9          0.659489399514730E-03         -0.496003934434005E-02          0.315776166695862E-02
  |  10          0.147173140777661E-02          0.479584403499765E-02         -0.380980886491692E-02
  |  11          0.207865472985756E-02         -0.713132015825418E-03          0.777908987774501E-03
  |  12         -0.799991380560035E-03          0.464667675215133E-03         -0.352179366650297E-03
  |  13         -0.472325221000528E-03         -0.711410883954077E-03         -0.111287225678704E-03
  |  14          0.469405394536609E-03          0.710561897399437E-03         -0.929134208165067E-03
  |  15          0.116962898601135E-02         -0.508626298776861E-03          0.285633482807778E-03
  |  16          0.471127404958178E-04         -0.688280250201636E-03          0.546041119586352E-03
  |  17         -0.124741069184899E-02          0.830607578714999E-03         -0.536632943416823E-03
  |  18         -0.184876415850680E-02         -0.172206189480512E-02         -0.173785219480262E-02
  |  19          0.185300172352314E-02          0.116772776146390E-02         -0.126285904904723E-02
  |  20         -0.373676790056576E-02         -0.453556618486398E-03          0.204338833502340E-02
  |  21          0.356834633004878E-03         -0.212431814559016E-02          0.228930361601136E-03
  |  22         -0.173581064339368E-03          0.235905856496121E-03         -0.177433220311963E-02
  |  23          0.896166757311853E-03         -0.453304292025312E-03          0.422519203279776E-03
  |  24         -0.239354403420833E-03          0.368350569771432E-03          0.498871992281002E-03
  |  25         -0.481368168507839E-03         -0.511928424529053E-03          0.654769470475219E-03
  |  26         -0.789810431457328E-05         -0.381655548439975E-03         -0.457734841141709E-03
  |  27          0.189239583489770E-02          0.467582283784958E-03         -0.792595731208293E-03
  |  28         -0.410663243638520E-03          0.392015598032471E-03         -0.692558465945356E-03
  |  29         -0.220573065887694E-02         -0.557256144296824E-03          0.243595635062262E-02
  |  30         -0.582668256311589E-03          0.538609952710700E-03         -0.629941542407410E-03
  |  31         -0.175080640594386E-03          0.960087764417540E-03          0.658745073655814E-03
  |  32          0.139908845137339E-02         -0.392436685472518E-03          0.415801269337840E-04

  ------------------------------------ 
  Start decomposition of the XC Energy 
  ------------------------------------ 
  Hartree-Fock part   :          0.000000000 Ha              0.000000000 eV
  ------------------------------------ 
  X Energy            :        -96.984350971 Ha          -2639.078464756 eV
  C Energy GGA        :         -3.867866976 Ha           -105.250015467 eV
  Total XC Energy     :       -100.852217947 Ha          -2744.328480223 eV
  LDA X and C from self-consistent density 
  X Energy LDA        :        -87.999795372 Ha          -2394.596267797 eV
  C Energy LDA        :         -7.531623401 Ha           -204.945900271 eV
  ------------------------------------ 
  End decomposition of the XC Energy 
  ------------------------------------ 
   
  ESP charge fitting starts.
  | Calculation :  00000001  of  00000001
  | Full density
  Computing multipole expansion for total density.
  Generating points for esp charges.
  Partitioning the integration grid into batches with parallel hashing+maxmin method.
  | Number of batches:     3844
  | Maximal batch size:     196
  | Minimal batch size:      94
  | Average batch size:     126.604
  | Standard deviation of batch sizes:      17.622

  Integration load balanced across    32 MPI tasks.
  Work distribution over tasks is as follows:
  Initializing partition tables, free-atom densities, potentials, etc. across the integration grid (initialize_grid_storage).
  | Original list of interatomic distances with          32 x         32 entries is created.
  | Net number of integration points:   486665
  | of which are non-zero points    :   486665
  Summing up potential from multipole expanded  density.
  Summing up the Hartree potential.
  Time summed over all CPUs for potential: real work        6.381 s, elapsed        6.735 s
  Fitting esp charges to potential.
  |
  | ESP charges fitted to the electrostatic potential :
  |
  | Atom         1: C, ESP charge:      1.03437546
  |
  | Atom         2: C, ESP charge:     -0.71285366
  |
  | Atom         3: O, ESP charge:      0.53365477
  |
  | Atom         4: H, ESP charge:     -0.27498183
  |
  | Atom         5: H, ESP charge:     -0.28414802
  |
  | Atom         6: H, ESP charge:     -0.28188675
  |
  | Atom         7: N, ESP charge:      0.58094409
  |
  | Atom         8: C, ESP charge:     -0.44707069
  |
  | Atom         9: C, ESP charge:     -0.48544553
  |
  | Atom        10: O, ESP charge:      0.53891721
  |
  | Atom        11: H, ESP charge:     -0.38923724
  |
  | Atom        12: H, ESP charge:      0.00004396
  |
  | Atom        13: C, ESP charge:      0.60143140
  |
  | Atom        14: H, ESP charge:     -0.14273054
  |
  | Atom        15: H, ESP charge:     -0.14217832
  |
  | Atom        16: H, ESP charge:     -0.18264210
  |
  | Atom        17: N, ESP charge:      0.58735703
  |
  | Atom        18: C, ESP charge:     -0.41102479
  |
  | Atom        19: C, ESP charge:     -0.37988145
  |
  | Atom        20: O, ESP charge:      0.59346997
  |
  | Atom        21: H, ESP charge:     -0.27686363
  |
  | Atom        22: H, ESP charge:     -0.10512656
  |
  | Atom        23: C, ESP charge:      0.84706819
  |
  | Atom        24: H, ESP charge:     -0.22756311
  |
  | Atom        25: H, ESP charge:     -0.25207879
  |
  | Atom        26: H, ESP charge:     -0.22694248
  |
  | Atom        27: N, ESP charge:      0.25854580
  |
  | Atom        28: C, ESP charge:      0.45058823
  |
  | Atom        29: H, ESP charge:     -0.31006290
  |
  | Atom        30: H, ESP charge:     -0.17031559
  |
  | Atom        31: H, ESP charge:     -0.18776237
  |
  | Atom        32: H, ESP charge:     -0.13559977

  RRMS:       0.00237914

  Done.

------------------------------------------------------------------------------
  Final output of selected total energy values:

  The following output summarizes some interesting total energy values
  at the end of a run (AFTER all relaxation, molecular dynamics, etc.).

  | Total energy of the DFT / Hartree-Fock s.c.f. calculation      :         -20208.762665302 eV
  | Final zero-broadening corrected energy (caution - metals only) :         -20208.762665302 eV
  | For reference only, the value of 1 Hartree used in FHI-aims is :             27.211384500 eV

  Before relying on these values, please be sure to understand exactly which
  total energy value is referred to by a given number. Different objects may
  all carry the same name 'total energy'. Definitions:

  Total energy of the DFT / Hartree-Fock s.c.f. calculation:
  | Note that this energy does not include ANY quantities calculated after the
  | s.c.f. cycle, in particular not ANY RPA, MP2, etc. many-body perturbation terms.

  Final zero-broadening corrected energy:
  | For metallic systems only, a broadening of the occupation numbers at the Fermi
  | level can be extrapolated back to zero broadening by an electron-gas inspired
  | formula. For all systems that are not real metals, this value can be
  | meaningless and should be avoided.

------------------------------------------------------------------------------
  Methods described in the following list of references were used in this FHI-aims run.
  If you publish the results, please make sure to cite these reference if they apply.
  FHI-aims is an academic code, and for our developers (often, Ph.D. students
  and postdocs), scientific credit in the community is essential.
  Thank you for helping us!

  For any use of FHI-aims, please cite:

    Volker Blum, Ralf Gehrke, Felix Hanke, Paula Havu, Ville Havu,
    Xinguo Ren, Karsten Reuter, and Matthias Scheffler
    'Ab initio molecular simulations with numeric atom-centered orbitals'
    Computer Physics Communications 180, 2175-2196 (2009)
    http://dx.doi.org/10.1016/j.cpc.2009.06.022


  The scalable eigensolver library ELPA was used in your run.
  ELPA is essential especially for large systems on hundreds or thousands of CPUs.
  For ELPA, please cite:

    Andreas Marek, Volker Blum, Rainer Johanni, Ville Havu, Bruno Lang,
    Thomas Auckenthaler, Alexander Heinecke, Hans-Joachim Bungartz, and Hermann Lederer,
    'The ELPA Library - Scalable Parallel Eigenvalue Solutions
    for Electronic Structure Theory and Computational Science'
    The Journal of Physics: Condensed Matter 26, 213201 (2014).
    http://dx.doi.org/10.1088/0953-8984/26/21/213201


  For ELPA's efficient two-stage tridiagonalization used in your run, please cite:

    T. Auckenthaler, V. Blum, H.-J. Bungartz, T. Huckle, R. Johanni, L. Kraemer,
    B. Lang, H. Lederer, and P. R. Willems,
    'Parallel solution of partial symmetric eigenvalue problems'
    'from  electronic structure calculations'
    Parallel Computing 37, 783-794 (2011).
    http://dx.doi.org/10.1016/j.parco.2011.05.002


  For the real-space grid partitioning and parallelization used in this calculation, please cite:

    Ville Havu, Volker Blum, Paula Havu, and Matthias Scheffler,
    'Efficient O(N) integration for all-electron electronic structure calculation'
    'using numerically tabulated basis functions'
    Journal of Computational Physics 228, 8367-8379 (2009).
    http://dx.doi.org/10.1016/j.jcp.2009.08.008

  Of course, there are many other important community references, e.g., those cited in the
  above references. Our list is limited to references that describe implementations in the
  FHI-aims code. The reason is purely practical (length of this list) - please credit others as well.

------------------------------------------------------------
          Leaving FHI-aims.
          Date     :  20170309, Time     :  180740.295

          Computational steps:
          | Number of self-consistency cycles          :           14

          Detailed time accounting                     :  max(cpu_time)    wall_clock(cpu1)
          | Total time                                 :       29.598 s          29.857 s
          | Preparation time                           :        0.232 s           0.232 s
          | Grid partitioning                          :        0.312 s           0.307 s
          | Preloading free-atom quantities on grid    :        0.028 s           0.031 s
          | Free-atom superposition energy             :        0.040 s           0.037 s
          | Total time for integrations                :       10.605 s          10.584 s
          | Total time for solution of K.-S. equations :        0.532 s           0.500 s
          | Total time for density & force components  :        9.365 s           9.341 s
          | Total time for mixing                      :        0.128 s           0.108 s
          | Total time for Hartree multipole update    :        0.072 s           0.061 s
          | Total time for Hartree multipole sum       :        6.376 s           6.353 s
          | Total time for total energy evaluation     :        0.024 s           0.022 s
          | Total time for vdW correction              :        0.124 s           0.121 s

          Have a nice day.
------------------------------------------------------------
