  MPI-parallelism will be employed.
------------------------------------------------------------
          Invoking FHI-aims ...
          Version 150427
          Git rev.: 9dd23e0 BL: Update Version stamp
          Compiled on 2015/11/03 at 22:05:20 on host eos03.

          When using FHI-aims, please cite the following reference:

          Volker Blum, Ralf Gehrke, Felix Hanke, Paula Havu,
          Ville Havu, Xinguo Ren, Karsten Reuter, and Matthias Scheffler,
          'Ab Initio Molecular Simulations with Numeric Atom-Centered Orbitals: FHI-aims',
          Computer Physics Communications 180, 2175-2196 (2009)

          For any questions about FHI-aims, please visit the aimsclub website
          with its forums and wiki. Contributions to both the forums and the
          wiki are warmly encouraged - they are for you, and everyone is welcome there.

------------------------------------------------------------

  Date     :  20170309, Time     :  185425.625
  Time zero on CPU 1             :   0.364022000000000E+00  s.
  Internal wall clock time zero  :           258317665.625  s.

  Using       32 parallel tasks.
  Task        0 on host eos306 reporting.
  Task        1 on host eos306 reporting.
  Task        2 on host eos306 reporting.
  Task        3 on host eos306 reporting.
  Task        4 on host eos306 reporting.
  Task        5 on host eos306 reporting.
  Task        6 on host eos306 reporting.
  Task        7 on host eos306 reporting.
  Task        8 on host eos306 reporting.
  Task        9 on host eos306 reporting.
  Task       10 on host eos306 reporting.
  Task       11 on host eos306 reporting.
  Task       12 on host eos306 reporting.
  Task       13 on host eos306 reporting.
  Task       14 on host eos306 reporting.
  Task       15 on host eos306 reporting.
  Task       16 on host eos306 reporting.
  Task       17 on host eos306 reporting.
  Task       18 on host eos306 reporting.
  Task       19 on host eos306 reporting.
  Task       20 on host eos306 reporting.
  Task       21 on host eos306 reporting.
  Task       22 on host eos306 reporting.
  Task       23 on host eos306 reporting.
  Task       24 on host eos306 reporting.
  Task       25 on host eos306 reporting.
  Task       26 on host eos306 reporting.
  Task       27 on host eos306 reporting.
  Task       28 on host eos306 reporting.
  Task       29 on host eos306 reporting.
  Task       30 on host eos306 reporting.
  Task       31 on host eos306 reporting.

  Performing system and environment tests:
  | Environment variable OMP_NUM_THREADS correctly set to 1.
  | Stacksize not measured: no C compiler
  | Checking for scalapack...
  | Testing pdtran()...
  | All pdtran() tests passed.

  Obtaining array dimensions for all initial allocations:
  
  -----------------------------------------------------------------------
  Parsing control.in (first pass over file, find array dimensions only).
  The contents of control.in will be repeated verbatim below
  unless switched off by setting 'verbatim_writeout .false.' .
  in the first line of control.in .
  -----------------------------------------------------------------------
  
  #########################################################################################
  #
  # Input for System
  #
  #########################################################################################
  #
  #
  #  Physical model
  #
    xc                 pbe
    vdw_correction_hirshfeld
    spin               none
    charge             0.
  #
  #  SCF convergence
  #
    occupation_type    gaussian 0.05
    mixer              pulay
      n_max_pulay        10
      charge_mix_param   0.5
    sc_accuracy_rho    1E-4
    sc_accuracy_eev    1E-2
    sc_accuracy_etot   1E-5
    sc_accuracy_forces 1E-4
    sc_iter_limit      1000
  #
  #  ESP charge
  #
    output esp
    esp equal_grid_n 80 80 80
  #
  #
  ################################################################################
  #
  #  FHI-aims code project
  # Volker Blum, Fritz Haber Institute Berlin, 2009
  #
  #  Suggested "tight" defaults for H atom (to be pasted into control.in file)
  #
  ################################################################################
    species        H
  #     global species definitions
      nucleus             1
      mass                1.00794
  #
      l_hartree           6
  #
      cut_pot             4.0  2.0  1.0
      basis_dep_cutoff    1e-4
  #
      radial_base         24 7.0
      radial_multiplier   2
      angular_grids       specified
        division   0.1930   50
        division   0.3175  110
        division   0.4293  194
        division   0.5066  302
        division   0.5626  434
  #      division   0.5922  590
  #      division   0.6227  974
  #      division   0.6868 1202
  #      outer_grid  770
        outer_grid  434
  ################################################################################
  #
  #  Definition of "minimal" basis
  #
  ################################################################################
  #     valence basis states
      valence      1  s   1.
  #     ion occupancy
      ion_occ      1  s   0.5
  ################################################################################
  #
  #  Suggested additional basis functions. For production calculations,
  #  uncomment them one after another (the most important basis functions are
  #  listed first).
  #
  #  Basis constructed for dimers: 0.5 A, 0.7 A, 1.0 A, 1.5 A, 2.5 A
  #
  ################################################################################
  #  "First tier" - improvements: -1014.90 meV to -62.69 meV
       hydro 2 s 2.1
       hydro 2 p 3.5
  #  "Second tier" - improvements: -12.89 meV to -1.83 meV
       hydro 1 s 0.85
       hydro 2 p 3.7
       hydro 2 s 1.2
       hydro 3 d 7
  #  "Third tier" - improvements: -0.25 meV to -0.12 meV
  #     hydro 4 f 11.2
  #     hydro 3 p 4.8
  #     hydro 4 d 9
  #     hydro 3 s 3.2
  ################################################################################
  #
  # For methods that use the localized form of the "resolution of identity" for
  # the two-electron Coulomb operator (RI_method LVL), particularly Hartree-Fock and
  # hybrid density functional calculations, the highest accuracy can be obtained by
  # uncommenting the line beginning with "for_aux"  below, thus adding an extra g radial
  # function to the construction of the product basis set for the expansion.
  # See Ref. New J. Phys. 17, 093020 (2015) for more information, particularly Figs. 1 and 6.
  #
  ################################################################################
  #
  # for_aux hydro 5 g 6.0
  ################################################################################
  #
  #  FHI-aims code project
  # Volker Blum, Fritz Haber Institute Berlin, 2009
  #
  #  Suggested "tight" defaults for C atom (to be pasted into control.in file)
  #
  ################################################################################
    species        C
  #     global species definitions
      nucleus             6
      mass                12.0107
  #
      l_hartree           6
  #
      cut_pot             4.0  2.0  1.0
      basis_dep_cutoff    1e-4
  #
      radial_base         34 7.0
      radial_multiplier   2
      angular_grids specified
        division   0.2187   50
        division   0.4416  110
        division   0.6335  194
        division   0.7727  302
        division   0.8772  434
  #      division   0.9334  590
  #      division   0.9924  770
  #      division   1.0230  974
  #      division   1.5020 1202
  #     outer_grid  974
        outer_grid  434
  ################################################################################
  #
  #  Definition of "minimal" basis
  #
  ################################################################################
  #     valence basis states
      valence      2  s   2.
      valence      2  p   2.
  #     ion occupancy
      ion_occ      2  s   1.
      ion_occ      2  p   1.
  ################################################################################
  #
  #  Suggested additional basis functions. For production calculations,
  #  uncomment them one after another (the most important basis functions are
  #  listed first).
  #
  #  Constructed for dimers: 1.0 A, 1.25 A, 1.5 A, 2.0 A, 3.0 A
  #
  ################################################################################
  #  "First tier" - improvements: -1214.57 meV to -155.61 meV
       hydro 2 p 1.7
       hydro 3 d 6
       hydro 2 s 4.9
  #  "Second tier" - improvements: -67.75 meV to -5.23 meV
       hydro 4 f 9.8
       hydro 3 p 5.2
       hydro 3 s 4.3
       hydro 5 g 14.4
       hydro 3 d 6.2
  #  "Third tier" - improvements: -2.43 meV to -0.60 meV
  #     hydro 2 p 5.6
  #     hydro 2 s 1.4
  #     hydro 3 d 4.9
  #     hydro 4 f 11.2
  #  "Fourth tier" - improvements: -0.39 meV to -0.18 meV
  #     hydro 2 p 2.1
  #     hydro 5 g 16.4
  #     hydro 4 d 13.2
  #     hydro 3 s 13.6
  #     hydro 4 f 17.6
  #  Further basis functions - improvements: -0.08 meV and below
  #     hydro 3 s 2
  #     hydro 3 p 6
  #     hydro 4 d 20
  ################################################################################
  #
  # For methods that use the localized form of the "resolution of identity" for
  # the two-electron Coulomb operator (RI_method LVL), particularly Hartree-Fock and
  # hybrid density functional calculations, the highest accuracy can be obtained by
  # uncommenting the line beginning with "for_aux"  below, thus adding an extra g radial
  # function to the construction of the product basis set for the expansion.
  # See Ref. New J. Phys. 17, 093020 (2015) for more information, particularly Figs. 1 and 6.
  #
  ################################################################################
  #
  # for_aux hydro 5 g 6.0
  ################################################################################
  #
  #  FHI-aims code project
  # Volker Blum, Fritz Haber Institute Berlin, 2009
  #
  #  Suggested "tight" defaults for N atom (to be pasted into control.in file)
  #
  ################################################################################
    species        N
  #     global species definitions
      nucleus             7
      mass                14.0067
  #
      l_hartree           6
  #
      cut_pot             4.0  2.0  1.0
      basis_dep_cutoff    1e-4
  #
      radial_base         35 7.0
      radial_multiplier   2
      angular_grids       specified
        division   0.1841   50
        division   0.3514  110
        division   0.5126  194
        division   0.6292  302
        division   0.6939  434
  #      division   0.7396  590
  #      division   0.7632  770
  #      division   0.8122  974
  #      division   1.1604 1202
  #      outer_grid  974
        outer_grid  434
  ################################################################################
  #
  #  Definition of "minimal" basis
  #
  ################################################################################
  #     valence basis states
      valence      2  s   2.
      valence      2  p   3.
  #     ion occupancy
      ion_occ      2  s   1.
      ion_occ      2  p   2.
  ################################################################################
  #
  #  Suggested additional basis functions. For production calculations,
  #  uncomment them one after another (the most important basis functions are
  #  listed first).
  #
  #  Constructed for dimers: 1.0 A, 1.1 A, 1.5 A, 2.0 A, 3.0 A
  #
  ################################################################################
  #  "First tier" - improvements: -1193.42 meV to -220.60 meV
       hydro 2 p 1.8
       hydro 3 d 6.8
       hydro 3 s 5.8
  #  "Second tier" - improvements: -80.21 meV to -6.86 meV
       hydro 4 f 10.8
       hydro 3 p 5.8
       hydro 1 s 0.8
       hydro 5 g 16
       hydro 3 d 4.9
  #  "Third tier" - improvements: -4.29 meV to -0.53 meV
  #     hydro 3 s 16
  #     ionic 2 p auto
  #     hydro 3 d 6.6
  #     hydro 4 f 11.6
  #  "Fourth tier" - improvements: -0.75 meV to -0.25 meV
  #     hydro 2 p 4.5
  #     hydro 2 s 2.4
  #     hydro 5 g 14.4
  #     hydro 4 d 14.4
  #     hydro 4 f 16.8
  # Further basis functions - -0.21 meV and below
  #     hydro 3 p 14.8
  #     hydro 3 s 4.4
  #     hydro 3 d 19.6
  #     hydro 5 g 12.8
  ################################################################################
  #
  # For methods that use the localized form of the "resolution of identity" for
  # the two-electron Coulomb operator (RI_method LVL), particularly Hartree-Fock and
  # hybrid density functional calculations, the highest accuracy can be obtained by
  # uncommenting the line beginning with "for_aux"  below, thus adding an extra g radial
  # function to the construction of the product basis set for the expansion.
  # See Ref. New J. Phys. 17, 093020 (2015) for more information, particularly Figs. 1 and 6.
  #
  ################################################################################
  #
  # for_aux hydro 5 g 6.0
  ################################################################################
  #
  #  FHI-aims code project
  # Volker Blum, Fritz Haber Institute Berlin, 2009
  #
  #  Suggested "tight" defaults for O atom (to be pasted into control.in file)
  #
  ################################################################################
    species        O
  #     global species definitions
      nucleus             8
      mass                15.9994
  #
      l_hartree           6
  #
      cut_pot             4.0  2.0  1.0
      basis_dep_cutoff    1e-4
  #
      radial_base         36 7.0
      radial_multiplier   2
       angular_grids specified
        division   0.1817   50
        division   0.3417  110
        division   0.4949  194
        division   0.6251  302
        division   0.8014  434
  #      division   0.8507  590
  #      division   0.8762  770
  #      division   0.9023  974
  #      division   1.2339 1202
  #      outer_grid 974
        outer_grid  434
  ################################################################################
  #
  #  Definition of "minimal" basis
  #
  ################################################################################
  #     valence basis states
      valence      2  s   2.
      valence      2  p   4.
  #     ion occupancy
      ion_occ      2  s   1.
      ion_occ      2  p   3.
  ################################################################################
  #
  #  Suggested additional basis functions. For production calculations,
  #  uncomment them one after another (the most important basis functions are
  #  listed first).
  #
  #  Constructed for dimers: 1.0 A, 1.208 A, 1.5 A, 2.0 A, 3.0 A
  #
  ################################################################################
  #  "First tier" - improvements: -699.05 meV to -159.38 meV
       hydro 2 p 1.8
       hydro 3 d 7.6
       hydro 3 s 6.4
  #  "Second tier" - improvements: -49.91 meV to -5.39 meV
       hydro 4 f 11.6
       hydro 3 p 6.2
       hydro 3 d 5.6
       hydro 5 g 17.6
       hydro 1 s 0.75
  #  "Third tier" - improvements: -2.83 meV to -0.50 meV
  #     ionic 2 p auto
  #     hydro 4 f 10.8
  #     hydro 4 d 4.7
  #     hydro 2 s 6.8
  #  "Fourth tier" - improvements: -0.40 meV to -0.12 meV
  #     hydro 3 p 5
  #     hydro 3 s 3.3
  #     hydro 5 g 15.6
  #     hydro 4 f 17.6
  #     hydro 4 d 14
  # Further basis functions - -0.08 meV and below
  #     hydro 3 s 2.1
  #     hydro 4 d 11.6
  #     hydro 3 p 16
  #     hydro 2 s 17.2
  ################################################################################
  #
  # For methods that use the localized form of the "resolution of identity" for
  # the two-electron Coulomb operator (RI_method LVL), particularly Hartree-Fock and
  # hybrid density functional calculations, the highest accuracy can be obtained by
  # uncommenting the line beginning with "for_aux"  below, thus adding an extra g radial
  # function to the construction of the product basis set for the expansion.
  # See Ref. New J. Phys. 17, 093020 (2015) for more information, particularly Figs. 1 and 6.
  #
  ################################################################################
  #
  # for_aux hydro 5 g 6.0
  
  -----------------------------------------------------------------------
  Completed first pass over input file control.in .
  -----------------------------------------------------------------------
  
  
  -----------------------------------------------------------------------
  Parsing geometry.in (first pass over file, find array dimensions only).
  The contents of geometry.in will be repeated verbatim below
  unless switched off by setting 'verbatim_writeout .false.' .
  in the first line of geometry.in .
  -----------------------------------------------------------------------
  
  #
  # This is the geometry file that corresponds to the current relaxation step.
  # If you do not want this file to be written, set the "write_restart_geometry" flag to .false.
  #
  atom       0.20267419     -0.17226767      0.50966379 C
  atom      -0.18555138      0.61285015      1.74576754 C
  atom       0.29020735      1.71999426      1.98123436 O
  atom       0.49796759     -1.19818686      0.75744523 H
  atom       1.04526081      0.34574390      0.04382056 H
  atom      -0.62914727     -0.20419174     -0.20726846 H
  atom      -1.14333565      0.10014114      2.60352891 N
  atom      -1.73430373     -1.22413848      2.73075574 C
  atom      -0.70204698     -2.25855566      3.25510099 C
  atom       0.50395705     -2.07570263      3.12555052 O
  atom      -1.23913431      0.69800189      3.41945638 H
  atom      -2.49682212     -1.10269249      3.51018599 H
  atom      -2.46195784     -1.71374666      1.46533754 C
  atom      -1.77050505     -2.10829234      0.71233250 H
  atom      -3.01435202     -0.87544845      1.02393769 H
  atom      -3.18354198     -2.50292744      1.70442828 H
  atom      -1.13989213     -3.40536298      3.88958970 N
  atom      -2.45611386     -3.99641323      4.16484570 C
  atom      -3.07680450     -4.76484385      2.96481391 C
  atom      -4.26596544     -5.07223351      2.96637422 O
  atom      -0.34135920     -3.94064426      4.22159071 H
  atom      -2.23669352     -4.78968893      4.89736290 H
  atom      -3.49116101     -3.07803182      4.82060331 C
  atom      -4.31382271     -3.68967519      5.20488449 H
  atom      -3.93605546     -2.36637568      4.11568810 H
  atom      -3.03607376     -2.52845984      5.65365762 H
  atom      -2.20220548     -5.11216626      1.98269095 N
  atom      -2.61478528     -5.81804618      0.78538201 C
  atom      -1.26418650     -4.73139296      2.03787116 H
  atom      -1.93105051     -6.64958699      0.57178661 H
  atom      -2.64441943     -5.14910306     -0.08808744 H
  atom      -3.62186187     -6.21224820      0.95798055 H
  
  -----------------------------------------------------------------------
  Completed first pass over input file geometry.in .
  -----------------------------------------------------------------------
  

  Basic array size parameters:
  | Number of species                 :        4
  | Number of atoms                   :       32
  | Max. basis fn. angular momentum   :        4
  | Max. atomic/ionic basis occupied n:        2
  | Max. number of basis fn. types    :        2
  | Max. radial fns per species/type  :        8
  | Max. logarithmic grid size        :     1301
  | Max. radial integration grid size :       73
  | Max. angular integration grid size:      434
  | Max. angular grid division number :        8
  | Radial grid for Hartree potential :     1301
  | Number of spin channels           :        1

------------------------------------------------------------
          Reading file control.in.
------------------------------------------------------------
  XC: Using PBE gradient-corrected functionals.
  Spin treatment: No spin polarisation.
  Charge =   0.000000E+00: Neutral system requested explicitly.
  Occupation type: Gaussian broadening, width =   0.500000E-01 eV.
  Using pulay charge density mixing.
  Pulay mixing - number of memorized iterations:   10
  Charge density mixing - mixing parameter:     0.5000
  Convergence accuracy of self-consistent charge density:  0.1000E-03
  Convergence accuracy of sum of eigenvalues:  0.1000E-01
  Convergence accuracy of total energy:  0.1000E-04
  Convergence accuracy of forces:  0.1000E-03
  Maximum number of s.-c. iterations  :  1000
  Fitting ESP-charges to Potential. 
  | Esp charge output options: 
  | ESP Grid method: 3, cubic grid
  | Number of points in x, ,y, z:  0080 0080 0080
  |
 
  Reading configuration options for species H                   .
  | Found nuclear charge :   1.0000
  | Found atomic mass :    1.00794000000000      amu
  | Found l_max for Hartree potential  :   6
  | Found cutoff potl. onset [A], width [A], scale factor :    4.00000    2.00000    1.00000
  | Threshold for basis-dependent cutoff potential is   0.100000E-03
  | Found data for basic radial integration grid :    24 points, outermost radius =    7.000 A
  | Found multiplier for basic radial grid :   2
  | Found angular grid specification: user-specified.
  | Specified grid contains     6 separate shells.
  | Check grid settings after all constraints further below.
  | Found free-atom valence shell :  1 s   1.000
  | No ionic wave fns used. Skipping ion_occ.
  | Found hydrogenic basis function :  2 s   2.100
  | Found hydrogenic basis function :  2 p   3.500
  | Found hydrogenic basis function :  1 s   0.850
  | Found hydrogenic basis function :  2 p   3.700
  | Found hydrogenic basis function :  2 s   1.200
  | Found hydrogenic basis function :  3 d   7.000
  Species H                   : Missing cutoff potential type.
  Defaulting to exp(1/x)/(1-x)^2 type cutoff potential.
  Species H : No 'logarithmic' tag. Using default grid for free atom:
  | Default logarithmic grid data [bohr] : 0.1000E-03 0.1000E+03 0.1012E+01
  Species H : On-site basis accuracy parameter (for Gram-Schmidt orthonormalisation) not specified.
  Using default value basis_acc =  0.1000000E-03.
  Species H                   : Using default innermost maximum threshold i_radial=  2 for radial functions.
  Species H                   : Default cutoff onset for free atom density etc. : 0.40000000E+01 AA.
  Species H                   : Basic radial grid will be enhanced according to radial_multiplier =   2, to contain    49 grid points.
 
  Reading configuration options for species C                   .
  | Found nuclear charge :   6.0000
  | Found atomic mass :    12.0107000000000      amu
  | Found l_max for Hartree potential  :   6
  | Found cutoff potl. onset [A], width [A], scale factor :    4.00000    2.00000    1.00000
  | Threshold for basis-dependent cutoff potential is   0.100000E-03
  | Found data for basic radial integration grid :    34 points, outermost radius =    7.000 A
  | Found multiplier for basic radial grid :   2
  | Found angular grid specification: user-specified.
  | Specified grid contains     6 separate shells.
  | Check grid settings after all constraints further below.
  | Found free-atom valence shell :  2 s   2.000
  | Found free-atom valence shell :  2 p   2.000
  | No ionic wave fns used. Skipping ion_occ.
  | No ionic wave fns used. Skipping ion_occ.
  | Found hydrogenic basis function :  2 p   1.700
  | Found hydrogenic basis function :  3 d   6.000
  | Found hydrogenic basis function :  2 s   4.900
  | Found hydrogenic basis function :  4 f   9.800
  | Found hydrogenic basis function :  3 p   5.200
  | Found hydrogenic basis function :  3 s   4.300
  | Found hydrogenic basis function :  5 g  14.400
  | Found hydrogenic basis function :  3 d   6.200
  Species C                   : Missing cutoff potential type.
  Defaulting to exp(1/x)/(1-x)^2 type cutoff potential.
  Species C : No 'logarithmic' tag. Using default grid for free atom:
  | Default logarithmic grid data [bohr] : 0.1000E-03 0.1000E+03 0.1012E+01
  Species C : On-site basis accuracy parameter (for Gram-Schmidt orthonormalisation) not specified.
  Using default value basis_acc =  0.1000000E-03.
  Species C                   : Using default innermost maximum threshold i_radial=  2 for radial functions.
  Species C                   : Default cutoff onset for free atom density etc. : 0.40000000E+01 AA.
  Species C                   : Basic radial grid will be enhanced according to radial_multiplier =   2, to contain    69 grid points.
 
  Reading configuration options for species N                   .
  | Found nuclear charge :   7.0000
  | Found atomic mass :    14.0067000000000      amu
  | Found l_max for Hartree potential  :   6
  | Found cutoff potl. onset [A], width [A], scale factor :    4.00000    2.00000    1.00000
  | Threshold for basis-dependent cutoff potential is   0.100000E-03
  | Found data for basic radial integration grid :    35 points, outermost radius =    7.000 A
  | Found multiplier for basic radial grid :   2
  | Found angular grid specification: user-specified.
  | Specified grid contains     6 separate shells.
  | Check grid settings after all constraints further below.
  | Found free-atom valence shell :  2 s   2.000
  | Found free-atom valence shell :  2 p   3.000
  | No ionic wave fns used. Skipping ion_occ.
  | No ionic wave fns used. Skipping ion_occ.
  | Found hydrogenic basis function :  2 p   1.800
  | Found hydrogenic basis function :  3 d   6.800
  | Found hydrogenic basis function :  3 s   5.800
  | Found hydrogenic basis function :  4 f  10.800
  | Found hydrogenic basis function :  3 p   5.800
  | Found hydrogenic basis function :  1 s   0.800
  | Found hydrogenic basis function :  5 g  16.000
  | Found hydrogenic basis function :  3 d   4.900
  Species N                   : Missing cutoff potential type.
  Defaulting to exp(1/x)/(1-x)^2 type cutoff potential.
  Species N : No 'logarithmic' tag. Using default grid for free atom:
  | Default logarithmic grid data [bohr] : 0.1000E-03 0.1000E+03 0.1012E+01
  Species N : On-site basis accuracy parameter (for Gram-Schmidt orthonormalisation) not specified.
  Using default value basis_acc =  0.1000000E-03.
  Species N                   : Using default innermost maximum threshold i_radial=  2 for radial functions.
  Species N                   : Default cutoff onset for free atom density etc. : 0.40000000E+01 AA.
  Species N                   : Basic radial grid will be enhanced according to radial_multiplier =   2, to contain    71 grid points.
 
  Reading configuration options for species O                   .
  | Found nuclear charge :   8.0000
  | Found atomic mass :    15.9994000000000      amu
  | Found l_max for Hartree potential  :   6
  | Found cutoff potl. onset [A], width [A], scale factor :    4.00000    2.00000    1.00000
  | Threshold for basis-dependent cutoff potential is   0.100000E-03
  | Found data for basic radial integration grid :    36 points, outermost radius =    7.000 A
  | Found multiplier for basic radial grid :   2
  | Found angular grid specification: user-specified.
  | Specified grid contains     6 separate shells.
  | Check grid settings after all constraints further below.
  | Found free-atom valence shell :  2 s   2.000
  | Found free-atom valence shell :  2 p   4.000
  | No ionic wave fns used. Skipping ion_occ.
  | No ionic wave fns used. Skipping ion_occ.
  | Found hydrogenic basis function :  2 p   1.800
  | Found hydrogenic basis function :  3 d   7.600
  | Found hydrogenic basis function :  3 s   6.400
  | Found hydrogenic basis function :  4 f  11.600
  | Found hydrogenic basis function :  3 p   6.200
  | Found hydrogenic basis function :  3 d   5.600
  | Found hydrogenic basis function :  5 g  17.600
  | Found hydrogenic basis function :  1 s   0.750
  Species O                   : Missing cutoff potential type.
  Defaulting to exp(1/x)/(1-x)^2 type cutoff potential.
  Species O : No 'logarithmic' tag. Using default grid for free atom:
  | Default logarithmic grid data [bohr] : 0.1000E-03 0.1000E+03 0.1012E+01
  Species O : On-site basis accuracy parameter (for Gram-Schmidt orthonormalisation) not specified.
  Using default value basis_acc =  0.1000000E-03.
  Species O                   : Using default innermost maximum threshold i_radial=  2 for radial functions.
  Species O                   : Default cutoff onset for free atom density etc. : 0.40000000E+01 AA.
  Species O                   : Basic radial grid will be enhanced according to radial_multiplier =   2, to contain    73 grid points.
 
  Finished reading input file 'control.in'. Consistency checks are next.
 
  Target number of points in a grid batch is not set. Defaulting to  100
  Method for grid partitioning is not set. Defaulting to parallel hash+maxmin partitioning.
  Batch size limit is not set. Defaulting to    200
  By default, will store active basis functions for each batch.
  If in need of memory, prune_basis_once .false. can be used to disable this option.
  communication_type for Hartree potential was not specified.
  Defaulting to calc_hartree .
  Pulay mixer: Number of initial linear mixing iterations not set.
  Defaulting to    0 iterations.
  Work space size for distributed Hartree potential not set.
  Defaulting to   0.200000E+03 MB.
  Algorithm-dependent basis array size parameters:
  | n_max_pulay                         :       10
  Geometry relaxation not requested: no relaxation will be performed.
  Handling of forces: Unphysical translation and rotation will be removed from forces.
  No accuracy limit for integral partition fn. given. Defaulting to  0.1000E-14.
  No threshold value for u(r) in integrations given. Defaulting to  0.1000E-05.
  No accuracy for occupation numbers given. Defaulting to  0.1000E-07.
  No threshold value for occupation numbers given. Defaulting to  0.0000E+00.
  No accuracy for fermi level given. Defaulting to  0.1000E-19.
  Maximum # of iterations to find E_F not set. Defaulting to  200.
  Preferred method for the eigenvalue solver ('KS_method') not specified in 'control.in'.
  Calling blacs routine to test compilation state
  Since scalapack support is enabled, defaulting to 'elpa'.
  Preferred method for the MBD eigenvalue solver ('mbd_eigensolver') not specified in 'control.in'.
  Calling blacs routine to test compilation state
  Since scalapack support is enabled, defaulting to 'scaLAPACK'.
  Will not use alltoall communication since running on < 1024 CPUs.
  Threshold for basis singularities not set.
  Default threshold for basis singularities:  0.1000E-04
  partition_type (choice of integration weights) for integrals was not specified.
  | Using a version of the partition function of Stratmann and coworkers ('stratmann_smoother').
  | At each grid point, the set of atoms used to build the partition table is smoothly restricted to
  | only those atoms whose free-atom density would be non-zero at that grid point.
  Partitioning for Hartree potential was not defined. Using partition_type for integrals.
  | Adjusted default value of keyword multip_moments_threshold to:       0.10000000E-11
  | This value may affect high angular momentum components of the Hartree potential in periodic systems.
  No q(lm)/r^(l+1) cutoff set for long-range Hartree potential.
  | Using default value of  0.100000E-09 .
  | Verify using the multipole_threshold keyword.
  Defaulting to new monopole extrapolation.
  Density update method: automatic selection selected.
------------------------------------------------------------


------------------------------------------------------------
          Reading geometry description geometry.in.
------------------------------------------------------------
 * Warning! You did not set the 'relativistic' flag in input file 'control.in'.
 * Since you are not attempting to treat any elements beyond Ca(Z=20), FHI-aims
 * will default to 'relativistic none'.
 * You must ensure that this is really what you want!!
 * For example, DO NOT compute total-energy differences between results from
 * different settings of the 'relativistic' flag.
  Input structure read successfully.
  The structure contains       32 atoms,  and a total of        116.000 electrons.

  Input geometry:
  | No unit cell requested.
  | Atomic structure:
  |       Atom                x [A]            y [A]            z [A]
  |    1: Species C              0.202674        -0.172268         0.509664
  |    2: Species C             -0.185551         0.612850         1.745768
  |    3: Species O              0.290207         1.719994         1.981234
  |    4: Species H              0.497968        -1.198187         0.757445
  |    5: Species H              1.045261         0.345744         0.043821
  |    6: Species H             -0.629147        -0.204192        -0.207268
  |    7: Species N             -1.143336         0.100141         2.603529
  |    8: Species C             -1.734304        -1.224138         2.730756
  |    9: Species C             -0.702047        -2.258556         3.255101
  |   10: Species O              0.503957        -2.075703         3.125551
  |   11: Species H             -1.239134         0.698002         3.419456
  |   12: Species H             -2.496822        -1.102692         3.510186
  |   13: Species C             -2.461958        -1.713747         1.465338
  |   14: Species H             -1.770505        -2.108292         0.712333
  |   15: Species H             -3.014352        -0.875448         1.023938
  |   16: Species H             -3.183542        -2.502927         1.704428
  |   17: Species N             -1.139892        -3.405363         3.889590
  |   18: Species C             -2.456114        -3.996413         4.164846
  |   19: Species C             -3.076805        -4.764844         2.964814
  |   20: Species O             -4.265965        -5.072234         2.966374
  |   21: Species H             -0.341359        -3.940644         4.221591
  |   22: Species H             -2.236694        -4.789689         4.897363
  |   23: Species C             -3.491161        -3.078032         4.820603
  |   24: Species H             -4.313823        -3.689675         5.204884
  |   25: Species H             -3.936055        -2.366376         4.115688
  |   26: Species H             -3.036074        -2.528460         5.653658
  |   27: Species N             -2.202205        -5.112166         1.982691
  |   28: Species C             -2.614785        -5.818046         0.785382
  |   29: Species H             -1.264187        -4.731393         2.037871
  |   30: Species H             -1.931051        -6.649587         0.571787
  |   31: Species H             -2.644419        -5.149103        -0.088087
  |   32: Species H             -3.621862        -6.212248         0.957981
  |

  | The smallest distance between any two atoms is         1.01386033 AA.
  |
  | The first atom of this pair is atom number                     27 .
  | The second atom of this pair is atom number                    29 .

  Number of empty states per atom not set in control.in - providing a guess from actual geometry.
  | Total number of empty states used during s.c.f. cycle:       71
  If you use a very high smearing, use empty_states (per atom!) in control.in to increase this value.

  Structure-dependent array size parameters: 
  | Maximum number of distinct radial functions  :       40
  | Maximum number of basis functions            :      840
  | Number of Kohn-Sham states (occupied + empty):      129
------------------------------------------------------------

------------------------------------------------------------
          Preparing all fixed parts of the calculation.
------------------------------------------------------------
  Determining machine precision:
    2.225073858507201E-308
  Setting up grids for atomic and cluster calculations.

  Creating wave function, potential, and density for free atoms.

  Species: H

  List of occupied orbitals and eigenvalues:
    n    l              occ      energy [Ha]    energy [eV]
    1    0           1.0000        -0.238382        -6.4867


  Species: C

  List of occupied orbitals and eigenvalues:
    n    l              occ      energy [Ha]    energy [eV]
    1    0           2.0000       -10.041232      -273.2358
    2    0           2.0000        -0.504327       -13.7234
    2    1           2.0000        -0.193750        -5.2722


  Species: N

  List of occupied orbitals and eigenvalues:
    n    l              occ      energy [Ha]    energy [eV]
    1    0           2.0000       -14.129007      -384.4699
    2    0           2.0000        -0.681802       -18.5528
    2    1           3.0000        -0.260543        -7.0897


  Species: O

  List of occupied orbitals and eigenvalues:
    n    l              occ      energy [Ha]    energy [eV]
    1    0           2.0000       -18.898576      -514.2564
    2    0           2.0000        -0.878795       -23.9132
    2    1           4.0000        -0.332075        -9.0362

  Creating fixed part of basis set: Ionic, confined, hydrogenic.
 
  H                    hydrogenic:
 
  List of hydrogenic basis orbitals: 
    n    l      effective z      eigenvalue [eV]  inner max. [A]     outer max. [A]     outer radius [A]   
    2    0         2.100000       -14.9965           0.193243           1.317208           5.373006
    2    1         3.500000       -41.6672           0.602369           0.602369           4.056063
    1    0         0.850000        -9.8292           0.624871           0.624871           5.373006
    2    1         3.700000       -46.5653           0.573622           0.573622           3.910002
    2    0         1.200000        -4.5995           0.334980           2.228188           5.505995
    3    2         7.000000       -74.0753           0.680699           0.680699           3.769201
 
 
  C                    hydrogenic:
 
  List of hydrogenic basis orbitals: 
    n    l      effective z      eigenvalue [eV]  inner max. [A]     outer max. [A]     outer radius [A]   
    2    1         1.700000        -9.8152           1.245706           1.245706           5.401630
    3    2         6.000000       -54.4226           0.792453           0.792453           4.178599
    2    0         4.900000       -81.6681           0.082559           0.562749           3.353238
    4    3         9.800000       -81.6681           0.863254           0.863254           4.028125
    3    1         5.200000       -40.8774           0.305389           1.215618           4.898362
    3    0         4.300000       -27.9508           0.091041           1.610311           5.401630
    5    4        14.400000      -112.8510           0.917666           0.917666           3.883070
    3    2         6.200000       -58.1113           0.763917           0.763917           4.077671
 
 
  N                    hydrogenic:
 
  List of hydrogenic basis orbitals: 
    n    l      effective z      eigenvalue [eV]  inner max. [A]     outer max. [A]     outer radius [A]   
    2    1         1.800000       -11.0118           1.177451           1.177451           5.427479
    3    2         6.800000       -69.9029           0.704619           0.704619           3.854246
    3    0         5.800000       -50.8549           0.067388           1.191934           4.629968
    4    3        10.800000       -99.1854           0.786571           0.786571           3.761152
    3    1         5.800000       -50.8549           0.274880           1.094176           4.518138
    1    0         0.800000        -8.7059           0.662839           0.662839           5.361532
    5    4        16.000000      -139.3222           0.825990           0.825990           3.625711
    3    2         4.900000       -36.2967           0.968267           0.968267           4.862000
 
 
  O                    hydrogenic:
 
  List of hydrogenic basis orbitals: 
    n    l      effective z      eigenvalue [eV]  inner max. [A]     outer max. [A]     outer radius [A]   
    2    1         1.800000       -11.0118           1.178562           1.178562           5.432602
    3    2         7.600000       -87.3182           0.624125           0.624125           3.541477
    3    0         6.400000       -61.9209           0.061167           1.081902           4.306578
    4    3        11.600000      -114.4238           0.731631           0.731631           3.585037
    3    1         6.200000       -58.1113           0.255680           1.030270           4.306578
    3    2         5.600000       -47.4081           0.847233           0.847233           4.413171
    5    4        17.600000      -168.5799           0.749740           0.749740           3.372465
    1    0         0.750000        -7.6499           0.705284           0.705284           5.366593
 

  Adding cutoff potential to free-atom effective potential.
  Creating atomic-like basis functions for current effective potential.

  Species H                   :

  List of atomic basis orbitals and eigenvalues:
    n    l      energy [Ha]    energy [eV]    outer radius [A]
    1    0        -0.238382        -6.4867       5.373006


  Species C                   :

  List of atomic basis orbitals and eigenvalues:
    n    l      energy [Ha]    energy [eV]    outer radius [A]
    1    0       -10.041232      -273.2358       1.934409
    2    0        -0.504327       -13.7234       5.271162
    2    1        -0.193750        -5.2722       5.401630


  Species N                   :

  List of atomic basis orbitals and eigenvalues:
    n    l      energy [Ha]    energy [eV]    outer radius [A]
    1    0       -14.129007      -384.4699       1.637919
    2    0        -0.681802       -18.5528       5.168461
    2    1        -0.260543        -7.0897       5.361532


  Species O                   :

  List of atomic basis orbitals and eigenvalues:
    n    l      energy [Ha]    energy [eV]    outer radius [A]
    1    0       -18.898576      -514.2564       1.415765
    2    0        -0.878795       -23.9132       5.048385
    2    1        -0.332075        -9.0362       5.301386

  Assembling full basis from fixed parts.
  | Species H :   atomic orbital   1 s accepted.
  | Species H :    hydro orbital   2 s accepted.
  | Species H :    hydro orbital   1 s accepted.
  | Species H :    hydro orbital   2 s accepted.
  | Species H :    hydro orbital   2 p accepted.
  | Species H :    hydro orbital   2 p accepted.
  | Species H :    hydro orbital   3 d accepted.
  | Species C :   atomic orbital   1 s accepted.
  | Species C :    hydro orbital   2 s accepted.
  | Species C :   atomic orbital   2 s accepted.
  | Species C :    hydro orbital   3 s accepted.
  | Species C :    hydro orbital   3 p accepted.
  | Species C :   atomic orbital   2 p accepted.
  | Species C :    hydro orbital   2 p accepted.
  | Species C :    hydro orbital   3 d accepted.
  | Species C :    hydro orbital   3 d accepted.
  | Species C :    hydro orbital   4 f accepted.
  | Species C :    hydro orbital   5 g accepted.
  | Species N :   atomic orbital   1 s accepted.
  | Species N :    hydro orbital   3 s accepted.
  | Species N :   atomic orbital   2 s accepted.
  | Species N :    hydro orbital   1 s accepted.
  | Species N :    hydro orbital   3 p accepted.
  | Species N :   atomic orbital   2 p accepted.
  | Species N :    hydro orbital   2 p accepted.
  | Species N :    hydro orbital   3 d accepted.
  | Species N :    hydro orbital   3 d accepted.
  | Species N :    hydro orbital   4 f accepted.
  | Species N :    hydro orbital   5 g accepted.
  | Species O :   atomic orbital   1 s accepted.
  | Species O :    hydro orbital   3 s accepted.
  | Species O :   atomic orbital   2 s accepted.
  | Species O :    hydro orbital   1 s accepted.
  | Species O :    hydro orbital   3 p accepted.
  | Species O :   atomic orbital   2 p accepted.
  | Species O :    hydro orbital   2 p accepted.
  | Species O :    hydro orbital   3 d accepted.
  | Species O :    hydro orbital   3 d accepted.
  | Species O :    hydro orbital   4 f accepted.
  | Species O :    hydro orbital   5 g accepted.
 
  Basis size parameters after reduction:
  | Total number of radial functions:       40
  | Total number of basis functions :      840
 
  Testing on-site integration grid accuracy.
  |  Species  Function  <phi|h_atom|phi> (log., in eV)  <phi|h_atom|phi> (rad., in eV)
           1        1                 -6.4869821809                 -6.4870742227
           1        2                 13.5044133542                 13.5041049177
           1        3                 32.7854418792                 32.7779770519
           1        4                 33.7995553101                 33.7152624900 ***
           1        5                 28.8558651799                 28.8558652046
           1        6                 59.6361831893                 59.6362535845
           1        7                 60.2733718049                 60.2733715484
           2        8               -273.2358277112               -273.2358261765
           2        9                -10.7624923123                -10.7625144012
           2       10                 17.4634079027                 17.4634252127
           2       11                 53.0363661832                 53.0366180446
           2       12                 15.0981351967                 15.0981317714
           2       13                  3.8522181899                  3.8522770949
           2       14                 12.1181835661                 12.1206868578
           2       15                 29.4320778347                 29.4320780959
           2       16                 54.8753777694                 54.8752901936
           2       17                 59.3533975461                 59.3533974833
           2       18                 93.4537491195                 93.4537492066
           3       19               -384.4698526889               -384.4698499465
           3       20                 12.5691022037                 12.5690910168
           3       21                -15.7489097511                -15.7489165588
           3       22                 27.0978334940                 27.0985589490
           3       23                 18.5949116966                 18.5949125562
           3       24                  1.2212828291                  1.2212855301
           3       25                 13.4428926797                 13.4434051125
           3       26                 35.9380614500                 35.9380613666
           3       27                 39.9231532098                 39.9231654735
           3       28                 72.9957335806                 72.9957336833
           3       29                116.4231321147                116.4231321431
           4       30               -514.2564144315               -514.2564099626
           4       31                 15.1726678541                 15.1726530877
           4       32                -21.5447785304                -21.5447874973
           4       33                 14.4944558459                 14.4944698284
           4       34                 20.8882174564                 20.8882178906
           4       35                 -2.4850315908                 -2.4850322289
           4       36                 13.8600193195                 13.8599826966
           4       37                 45.8243383616                 45.8243383675
           4       38                 52.1840606465                 52.1840622440
           4       39                 85.4074185510                 85.4074185819
           4       40                142.0983717302                142.0983717339
 * Note: Onsite integrals marked "***" above are less accurate than
 * onsite_accuracy_threshold =    0.03000 eV. Usually, this is harmless.
 * When in doubt, tighten the "radial" and/or "radial_multiplier" flags to check.

  Preparing densities etc. for the partition functions (integrals / Hartree potential).

  Preparations completed.
  max(cpu_time)          :      0.240 s.
  Wall clock time (cpu1) :      0.236 s.
------------------------------------------------------------

------------------------------------------------------------
          Begin self-consistency loop: Initialization.

          Date     :  20170309, Time     :  185426.686
------------------------------------------------------------

  Initializing index lists of integration centers etc. from given atomic structure:
  | Number of centers in hartree potential         :        32
  | Number of centers in hartree multipole         :        32
  | Number of centers in electron density summation:        32
  | Number of centers in basis integrals           :        32
  | Number of centers in integrals                 :        32
  | Number of centers in hamiltonian               :        32
  Using modified Scalapack Eigenvalue solver (ELPA)
  * Using 32 tasks for Scalapack Eigenvalue solver.
  Detailed listing of tasks and assigned k-points:
  (for non-periodic systems, the "k-point" denotes an internal label only)
   Task     0 k-point     1 on eos306
   Task     1 k-point     1 on eos306
   Task     2 k-point     1 on eos306
   Task     3 k-point     1 on eos306
   Task     4 k-point     1 on eos306
   Task     5 k-point     1 on eos306
   Task     6 k-point     1 on eos306
   Task     7 k-point     1 on eos306
   Task     8 k-point     1 on eos306
   Task     9 k-point     1 on eos306
   Task    10 k-point     1 on eos306
   Task    11 k-point     1 on eos306
   Task    12 k-point     1 on eos306
   Task    13 k-point     1 on eos306
   Task    14 k-point     1 on eos306
   Task    15 k-point     1 on eos306
   Task    16 k-point     1 on eos306
   Task    17 k-point     1 on eos306
   Task    18 k-point     1 on eos306
   Task    19 k-point     1 on eos306
   Task    20 k-point     1 on eos306
   Task    21 k-point     1 on eos306
   Task    22 k-point     1 on eos306
   Task    23 k-point     1 on eos306
   Task    24 k-point     1 on eos306
   Task    25 k-point     1 on eos306
   Task    26 k-point     1 on eos306
   Task    27 k-point     1 on eos306
   Task    28 k-point     1 on eos306
   Task    29 k-point     1 on eos306
   Task    30 k-point     1 on eos306
   Task    31 k-point     1 on eos306
  Tasks:    32 split into      8 X      4 BLACS grid
  Calculating blocksize based on n_basis =          840 max_nprow =            8 max_npcol =            4
  Scalapack blocksize set to:           16
  Required Scalapack workspace - INTEGER:            1 REAL:             1
  Partitioning the integration grid into batches with parallel hashing+maxmin method.
  | Number of batches:     4961
  | Maximal batch size:     200
  | Minimal batch size:      46
  | Average batch size:     106.375
  | Standard deviation of batch sizes:      32.407

  Integration load balanced across    32 MPI tasks.
  Work distribution over tasks is as follows:
  Task     0 has      16496 integration points.
  Task     1 has      16516 integration points.
  Task     2 has      16519 integration points.
  Task     3 has      16541 integration points.
  Task     4 has      16508 integration points.
  Task     5 has      16552 integration points.
  Task     6 has      16439 integration points.
  Task     7 has      16464 integration points.
  Task     8 has      16503 integration points.
  Task     9 has      16512 integration points.
  Task    10 has      16481 integration points.
  Task    11 has      16443 integration points.
  Task    12 has      16527 integration points.
  Task    13 has      16519 integration points.
  Task    14 has      16530 integration points.
  Task    15 has      16436 integration points.
  Task    16 has      16492 integration points.
  Task    17 has      16498 integration points.
  Task    18 has      16454 integration points.
  Task    19 has      16438 integration points.
  Task    20 has      16436 integration points.
  Task    21 has      16452 integration points.
  Task    22 has      16520 integration points.
  Task    23 has      16440 integration points.
  Task    24 has      16551 integration points.
  Task    25 has      16515 integration points.
  Task    26 has      16498 integration points.
  Task    27 has      16476 integration points.
  Task    28 has      16521 integration points.
  Task    29 has      16556 integration points.
  Task    30 has      16457 integration points.
  Task    31 has      16438 integration points.
  Initializing partition tables, free-atom densities, potentials, etc. across the integration grid (initialize_grid_storage).
  | initialize_grid_storage: Actual outermost partition radius vs. multipole_radius_free
  | (-- VB: in principle, multipole_radius_free should be larger, hence this output)
  | Species        1: Confinement radius =              6.000000000000000 AA, multipole_radius_free =              6.071692442739658 AA.
  | Species        1: outer_partition_radius set to              6.071692442739658 AA .
  | Species        2: Confinement radius =              6.000000000000000 AA, multipole_radius_free =              6.029870734432609 AA.
  | Species        2: outer_partition_radius set to              6.029870734432609 AA .
  | Species        3: Confinement radius =              6.000000000000000 AA, multipole_radius_free =              6.058726835495003 AA.
  | Species        3: outer_partition_radius set to              6.058726835495003 AA .
  | Species        4: Confinement radius =              6.000000000000000 AA, multipole_radius_free =              6.064445521808699 AA.
  | Species        4: outer_partition_radius set to              6.064445521808699 AA .
  | Original list of interatomic distances with          32 x         32 entries is created.
  | Net number of integration points:   527728
  | of which are non-zero points    :   413573
  Obtaining max. number of non-zero basis functions in each batch (get_n_compute_maxes).
  | Maximal number of non-zero basis functions:      789 in task     0
  | Maximal number of non-zero basis functions:      765 in task     1
  | Maximal number of non-zero basis functions:      787 in task     2
  | Maximal number of non-zero basis functions:      778 in task     3
  | Maximal number of non-zero basis functions:      782 in task     4
  | Maximal number of non-zero basis functions:      772 in task     5
  | Maximal number of non-zero basis functions:      792 in task     6
  | Maximal number of non-zero basis functions:      786 in task     7
  | Maximal number of non-zero basis functions:      785 in task     8
  | Maximal number of non-zero basis functions:      773 in task     9
  | Maximal number of non-zero basis functions:      784 in task    10
  | Maximal number of non-zero basis functions:      776 in task    11
  | Maximal number of non-zero basis functions:      765 in task    12
  | Maximal number of non-zero basis functions:      778 in task    13
  | Maximal number of non-zero basis functions:      776 in task    14
  | Maximal number of non-zero basis functions:      769 in task    15
  | Maximal number of non-zero basis functions:      773 in task    16
  | Maximal number of non-zero basis functions:      782 in task    17
  | Maximal number of non-zero basis functions:      771 in task    18
  | Maximal number of non-zero basis functions:      786 in task    19
  | Maximal number of non-zero basis functions:      778 in task    20
  | Maximal number of non-zero basis functions:      791 in task    21
  | Maximal number of non-zero basis functions:      786 in task    22
  | Maximal number of non-zero basis functions:      783 in task    23
  | Maximal number of non-zero basis functions:      761 in task    24
  | Maximal number of non-zero basis functions:      776 in task    25
  | Maximal number of non-zero basis functions:      774 in task    26
  | Maximal number of non-zero basis functions:      776 in task    27
  | Maximal number of non-zero basis functions:      782 in task    28
  | Maximal number of non-zero basis functions:      788 in task    29
  | Maximal number of non-zero basis functions:      771 in task    30
  | Maximal number of non-zero basis functions:      774 in task    31
  Selecting the method for density update.
  Loop over occupied states selected for charge density update.
  Integrating Hamiltonian matrix: batch-based integration.
  Time summed over all CPUs for integration: real work       22.337 s, elapsed       23.160 s
  Integrating overlap matrix.
  Time summed over all CPUs for integration: real work       13.589 s, elapsed       13.944 s
  Deallocating overlap matrix.

  Updating Kohn-Sham eigenvalues, eigenvectors, occupation numbers, and Fermi level.
  Solving generalized eigenproblem
  Solving real symmetric generalised eigenvalue problem by standard ScaLAPACK.
  Transforming overlap matrix with ScaLAPACK and checking for singularities.
  : Overlap matrix is nonsingular, using Cholesky decomposition
  | Lowest eigenvalue:  0.922247E-04
  Factoring overlap matrix with Cholesky decomposition
  Using Cholesky factor for transformation
  Using 1-stage real ELPA solver
  Determining occupation numbers for Kohn-Sham eigenstates.
  | Chemical potential (Fermi level) in eV                 : -.95569468E+01
  | Error in electron count due to remaining E_F inaccuracy: 0.00000000E+00
  | Maximum occupation number of highest empty state:  0.00E+00

  Writing Kohn-Sham eigenvalues.

  State    Occupation    Eigenvalue [Ha]    Eigenvalue [eV]
      1       2.00000         -18.974949         -516.33463
      2       2.00000         -18.974569         -516.32430
      3       2.00000         -18.974373         -516.31895
      4       2.00000         -14.256813         -387.94761
      5       2.00000         -14.251808         -387.81142
      6       2.00000         -14.250840         -387.78508
      7       2.00000         -10.171671         -276.78526
      8       2.00000         -10.171562         -276.78228
      9       2.00000         -10.170799         -276.76152
     10       2.00000         -10.166870         -276.65460
     11       2.00000         -10.147582         -276.12976
     12       2.00000         -10.146669         -276.10492
     13       2.00000         -10.135033         -275.78827
     14       2.00000         -10.134487         -275.77342
     15       2.00000         -10.131863         -275.70203
     16       2.00000          -1.135298          -30.89304
     17       2.00000          -1.132229          -30.80951
     18       2.00000          -1.130651          -30.76658
     19       2.00000          -1.020096          -27.75821
     20       2.00000          -1.008563          -27.44440
     21       2.00000          -1.000394          -27.22212
     22       2.00000          -0.880533          -23.96053
     23       2.00000          -0.874971          -23.80917
     24       2.00000          -0.850025          -23.13035
     25       2.00000          -0.823066          -22.39676
     26       2.00000          -0.776633          -21.13327
     27       2.00000          -0.758856          -20.64952
     28       2.00000          -0.700268          -19.05527
     29       2.00000          -0.684895          -18.63695
     30       2.00000          -0.664882          -18.09237
     31       2.00000          -0.644078          -17.52627
     32       2.00000          -0.621559          -16.91348
     33       2.00000          -0.613083          -16.68283
     34       2.00000          -0.602584          -16.39716
     35       2.00000          -0.594990          -16.19051
     36       2.00000          -0.582364          -15.84693
     37       2.00000          -0.563932          -15.34538
     38       2.00000          -0.561508          -15.27940
     39       2.00000          -0.559520          -15.22533
     40       2.00000          -0.556680          -15.14803
     41       2.00000          -0.548576          -14.92752
     42       2.00000          -0.539794          -14.68855
     43       2.00000          -0.536704          -14.60445
     44       2.00000          -0.529283          -14.40252
     45       2.00000          -0.519026          -14.12341
     46       2.00000          -0.516739          -14.06118
     47       2.00000          -0.513283          -13.96715
     48       2.00000          -0.499958          -13.60454
     49       2.00000          -0.493960          -13.44133
     50       2.00000          -0.484018          -13.17081
     51       2.00000          -0.479886          -13.05836
     52       2.00000          -0.473154          -12.87516
     53       2.00000          -0.418592          -11.39046
     54       2.00000          -0.405790          -11.04210
     55       2.00000          -0.401987          -10.93863
     56       2.00000          -0.386336          -10.51274
     57       2.00000          -0.382391          -10.40538
     58       2.00000          -0.376933          -10.25686
     59       0.00000          -0.169197           -4.60408
     60       0.00000          -0.157573           -4.28779
     61       0.00000          -0.152617           -4.15292
     62       0.00000          -0.083396           -2.26931
     63       0.00000          -0.072699           -1.97824
     64       0.00000          -0.062601           -1.70345
     65       0.00000          -0.053239           -1.44870
     66       0.00000          -0.046115           -1.25484
     67       0.00000          -0.043269           -1.17741
     68       0.00000          -0.034898           -0.94961
     69       0.00000          -0.026511           -0.72140
     70       0.00000          -0.024751           -0.67352
     71       0.00000          -0.018062           -0.49150
     72       0.00000          -0.017433           -0.47438
     73       0.00000          -0.012126           -0.32997
     74       0.00000          -0.009761           -0.26562
     75       0.00000          -0.004237           -0.11529
     76       0.00000           0.001319            0.03590
     77       0.00000           0.002103            0.05724
     78       0.00000           0.009423            0.25640
     79       0.00000           0.012363            0.33641
     80       0.00000           0.015913            0.43300
     81       0.00000           0.019923            0.54213
     82       0.00000           0.027470            0.74749
     83       0.00000           0.029707            0.80837
     84       0.00000           0.033831            0.92059
     85       0.00000           0.045222            1.23055
     86       0.00000           0.052226            1.42113
     87       0.00000           0.058316            1.58687
     88       0.00000           0.063755            1.73486
     89       0.00000           0.067229            1.82938
     90       0.00000           0.071896            1.95638
     91       0.00000           0.074564            2.02900
     92       0.00000           0.083476            2.27149
     93       0.00000           0.091600            2.49257
     94       0.00000           0.098714            2.68616
     95       0.00000           0.103147            2.80678
     96       0.00000           0.108733            2.95876
     97       0.00000           0.113987            3.10175
     98       0.00000           0.114668            3.12028
     99       0.00000           0.122170            3.32442
    100       0.00000           0.123670            3.36524
    101       0.00000           0.125466            3.41411
    102       0.00000           0.135951            3.69942
    103       0.00000           0.141722            3.85644
    104       0.00000           0.146177            3.97768
    105       0.00000           0.149273            4.06193
    106       0.00000           0.153537            4.17794
    107       0.00000           0.155150            4.22185
    108       0.00000           0.159560            4.34184
    109       0.00000           0.162667            4.42640
    110       0.00000           0.168038            4.57255
    111       0.00000           0.175708            4.78127
    112       0.00000           0.179561            4.88611
    113       0.00000           0.185767            5.05497
    114       0.00000           0.187903            5.11311
    115       0.00000           0.192503            5.23829
    116       0.00000           0.193639            5.26919
    117       0.00000           0.209283            5.69489
    118       0.00000           0.213182            5.80097
    119       0.00000           0.213927            5.82125
    120       0.00000           0.220649            6.00416
    121       0.00000           0.224338            6.10455
    122       0.00000           0.229670            6.24965
    123       0.00000           0.235022            6.39526
    124       0.00000           0.240752            6.55119
    125       0.00000           0.243778            6.63354
    126       0.00000           0.255113            6.94197
    127       0.00000           0.261105            7.10503
    128       0.00000           0.262846            7.15240
    129       0.00000           0.270705            7.36626

  Highest occupied state (VBM) at    -10.25686451 eV
  | Occupation number:      2.00000000

  Lowest unoccupied state (CBM) at    -4.60408078 eV
  | Occupation number:      0.00000000

  Overall HOMO-LUMO gap:      5.65278373 eV.
  Calculating total energy contributions from superposition of free atom densities.

  Total energy components:
  | Sum of eigenvalues            :        -437.81591207 Ha      -11913.57712345 eV
  | XC energy correction          :         -98.81800421 Ha       -2688.97470803 eV
  | XC potential correction       :         127.01943465 Ha        3456.37467511 eV
  | Free-atom electrostatic energy:        -333.65949435 Ha       -9079.33679290 eV
  | Hartree energy correction     :           0.00000000 Ha           0.00000000 eV
  | vdW energy correction         :           0.00000000 Ha           0.00000000 eV
  | Entropy correction            :          -0.00000000 Ha          -0.00000000 eV
  | ---------------------------
  | Total energy                  :        -743.27397598 Ha      -20225.51394927 eV
  | Total energy, T -> 0          :        -743.27397598 Ha      -20225.51394927 eV  <-- do not rely on this value for anything but (periodic) metals
  | Electronic free energy        :        -743.27397598 Ha      -20225.51394927 eV

  Derived energy quantities:
  | Kinetic energy                :         735.15190093 Ha       20004.50104200 eV
  | Electrostatic energy          :       -1379.60787270 Ha      -37541.04028324 eV
  | Energy correction for multipole
  | error in Hartree potential    :           0.00000000 Ha           0.00000000 eV
  | Sum of eigenvalues per atom                           :        -372.29928511 eV
  | Total energy (T->0) per atom                          :        -632.04731091 eV  <-- do not rely on this value for anything but (periodic) metals
  | Electronic free energy per atom                       :        -632.04731091 eV
  Initialize hartree_potential_storage
  Max. number of atoms included in rho_multipole:           32

  End scf initialization - timings             :  max(cpu_time)    wall_clock(cpu1)
  | Time for scf. initialization               :        1.928 s           1.927 s
  | Boundary condition initialization          :        0.000 s           0.000 s
  | Integration                                :        1.184 s           1.181 s
  | Solution of K.-S. eqns.                    :        0.076 s           0.075 s
  | Grid partitioning                          :        0.308 s           0.301 s
  | Preloading free-atom quantities on grid    :        0.028 s           0.028 s
  | Free-atom superposition energy             :        0.040 s           0.039 s
  | Total energy evaluation                    :        0.004 s           0.001 s
------------------------------------------------------------

------------------------------------------------------------
          Begin self-consistency iteration #    1

  Date     :  20170309, Time     :  185428.613
------------------------------------------------------------
  Evaluating new KS density.
  Integration grid: deviation in total charge (<rho> - N_e) =   4.263256E-14
  Pulay mixing of updated and previous charge densities.

  Evaluating partitioned Hartree potential by multipole expansion.
  | Analytical far-field extrapolation by fixed multipoles:
  | Hartree multipole sum: apparent total charge =   0.226098E-04
  Summing up the Hartree potential.
  Time summed over all CPUs for potential: real work        9.577 s, elapsed        9.793 s
  | RMS charge density error from multipole expansion :   0.106884E-01

  Integrating Hamiltonian matrix: batch-based integration.
  Time summed over all CPUs for integration: real work       22.161 s, elapsed       23.031 s

  Updating Kohn-Sham eigenvalues, eigenvectors, occupation numbers, and Fermi level.
  Solving generalized eigenproblem
  Solving real symmetric generalised eigenvalue problem by standard ScaLAPACK.
  Using Cholesky factor for transformation
  Using 2-stage real ELPA solver
  K-Point:    1, Trafo times: 1-stage=     0.021 s, 2-stage=     0.019 s ==> Using 2-stage solver
  Determining occupation numbers for Kohn-Sham eigenstates.
  | Chemical potential (Fermi level) in eV                 : -.38944748E+01
  | Error in electron count due to remaining E_F inaccuracy: 0.00000000E+00
  | Maximum occupation number of highest empty state:  0.00E+00

  Writing Kohn-Sham eigenvalues.

  State    Occupation    Eigenvalue [Ha]    Eigenvalue [eV]
      1       2.00000         -18.632869         -507.02617
      2       2.00000         -18.620153         -506.68014
      3       2.00000         -18.598138         -506.08109
      4       2.00000         -14.016453         -381.40709
      5       2.00000         -13.995506         -380.83709
      6       2.00000         -13.976149         -380.31037
      7       2.00000         -10.078399         -274.24718
      8       2.00000         -10.059391         -273.72996
      9       2.00000         -10.037683         -273.13925
     10       2.00000          -9.985891         -271.72992
     11       2.00000          -9.977915         -271.51289
     12       2.00000          -9.888913         -269.09101
     13       2.00000          -9.850683         -268.05074
     14       2.00000          -9.846318         -267.93194
     15       2.00000          -9.834221         -267.60277
     16       2.00000          -0.983054          -26.75025
     17       2.00000          -0.965577          -26.27468
     18       2.00000          -0.944382          -25.69793
     19       2.00000          -0.885787          -24.10348
     20       2.00000          -0.864214          -23.51646
     21       2.00000          -0.855156          -23.26997
     22       2.00000          -0.744892          -20.26954
     23       2.00000          -0.732210          -19.92444
     24       2.00000          -0.687580          -18.71002
     25       2.00000          -0.683042          -18.58652
     26       2.00000          -0.645353          -17.56095
     27       2.00000          -0.625354          -17.01673
     28       2.00000          -0.583008          -15.86445
     29       2.00000          -0.561725          -15.28531
     30       2.00000          -0.538898          -14.66415
     31       2.00000          -0.521943          -14.20280
     32       2.00000          -0.499067          -13.58030
     33       2.00000          -0.483030          -13.14391
     34       2.00000          -0.477304          -12.98810
     35       2.00000          -0.446888          -12.16045
     36       2.00000          -0.440095          -11.97559
     37       2.00000          -0.433179          -11.78740
     38       2.00000          -0.421517          -11.47006
     39       2.00000          -0.415531          -11.30717
     40       2.00000          -0.401743          -10.93199
     41       2.00000          -0.398081          -10.83232
     42       2.00000          -0.395067          -10.75033
     43       2.00000          -0.387602          -10.54719
     44       2.00000          -0.385263          -10.48353
     45       2.00000          -0.377418          -10.27007
     46       2.00000          -0.375213          -10.21006
     47       2.00000          -0.362673           -9.86883
     48       2.00000          -0.358742           -9.76187
     49       2.00000          -0.352089           -9.58082
     50       2.00000          -0.344004           -9.36082
     51       2.00000          -0.341889           -9.30327
     52       2.00000          -0.330309           -8.98818
     53       2.00000          -0.263854           -7.17984
     54       2.00000          -0.239735           -6.52352
     55       2.00000          -0.232319           -6.32173
     56       2.00000          -0.221860           -6.03711
     57       2.00000          -0.213572           -5.81158
     58       2.00000          -0.196098           -5.33609
     59       0.00000          -0.068779           -1.87158
     60       0.00000          -0.058712           -1.59764
     61       0.00000          -0.039328           -1.07017
     62       0.00000          -0.033985           -0.92477
     63       0.00000          -0.027351           -0.74426
     64       0.00000          -0.023568           -0.64132
     65       0.00000          -0.006173           -0.16798
     66       0.00000          -0.000559           -0.01521
     67       0.00000           0.008398            0.22853
     68       0.00000           0.014166            0.38548
     69       0.00000           0.020695            0.56315
     70       0.00000           0.026320            0.71621
     71       0.00000           0.030132            0.81994
     72       0.00000           0.039641            1.07870
     73       0.00000           0.045250            1.23131
     74       0.00000           0.046287            1.25954
     75       0.00000           0.056946            1.54958
     76       0.00000           0.060635            1.64997
     77       0.00000           0.068578            1.86609
     78       0.00000           0.073588            2.00243
     79       0.00000           0.075856            2.06415
     80       0.00000           0.081818            2.22637
     81       0.00000           0.085479            2.32600
     82       0.00000           0.089265            2.42903
     83       0.00000           0.094205            2.56346
     84       0.00000           0.098133            2.67034
     85       0.00000           0.106331            2.89341
     86       0.00000           0.110932            3.01862
     87       0.00000           0.114604            3.11854
     88       0.00000           0.120838            3.28817
     89       0.00000           0.122876            3.34363
     90       0.00000           0.134067            3.64815
     91       0.00000           0.140699            3.82862
     92       0.00000           0.146826            3.99535
     93       0.00000           0.149157            4.05876
     94       0.00000           0.161634            4.39829
     95       0.00000           0.167973            4.57079
     96       0.00000           0.169425            4.61030
     97       0.00000           0.174385            4.74525
     98       0.00000           0.177882            4.84041
     99       0.00000           0.178547            4.85852
    100       0.00000           0.187182            5.09348
    101       0.00000           0.195129            5.30974
    102       0.00000           0.198182            5.39281
    103       0.00000           0.200853            5.46548
    104       0.00000           0.204458            5.56358
    105       0.00000           0.208008            5.66018
    106       0.00000           0.209993            5.71421
    107       0.00000           0.214990            5.85019
    108       0.00000           0.218505            5.94583
    109       0.00000           0.219144            5.96320
    110       0.00000           0.226385            6.16025
    111       0.00000           0.229683            6.24998
    112       0.00000           0.235526            6.40898
    113       0.00000           0.242684            6.60378
    114       0.00000           0.250355            6.81251
    115       0.00000           0.253671            6.90275
    116       0.00000           0.261040            7.10326
    117       0.00000           0.267054            7.26690
    118       0.00000           0.274806            7.47784
    119       0.00000           0.276786            7.53172
    120       0.00000           0.281417            7.65776
    121       0.00000           0.288627            7.85395
    122       0.00000           0.293954            7.99889
    123       0.00000           0.296503            8.06826
    124       0.00000           0.302345            8.22724
    125       0.00000           0.315053            8.57302
    126       0.00000           0.319365            8.69037
    127       0.00000           0.326504            8.88464
    128       0.00000           0.327819            8.92041
    129       0.00000           0.335031            9.11666

  Highest occupied state (VBM) at     -5.33609014 eV
  | Occupation number:      2.00000000

  Lowest unoccupied state (CBM) at    -1.87158317 eV
  | Occupation number:      0.00000000

  Overall HOMO-LUMO gap:      3.46450697 eV.

  Total energy components:
  | Sum of eigenvalues            :        -418.02999002 Ha      -11375.17479104 eV
  | XC energy correction          :        -100.74667692 Ha       -2741.45656268 eV
  | XC potential correction       :         129.52020579 Ha        3524.42412031 eV
  | Free-atom electrostatic energy:        -333.65949435 Ha       -9079.33679290 eV
  | Hartree energy correction     :         -19.78980505 Ha        -538.50799433 eV
  | vdW energy correction         :           0.00000000 Ha           0.00000000 eV
  | Entropy correction            :           0.00000000 Ha           0.00000000 eV
  | ---------------------------
  | Total energy                  :        -742.70576055 Ha      -20210.05202064 eV
  | Total energy, T -> 0          :        -742.70576055 Ha      -20210.05202064 eV  <-- do not rely on this value for anything but (periodic) metals
  | Electronic free energy        :        -742.70576055 Ha      -20210.05202064 eV

  Derived energy quantities:
  | Kinetic energy                :         744.00823121 Ha       20245.49405054 eV
  | Electrostatic energy          :       -1385.96731484 Ha      -37714.08950850 eV
  | Energy correction for multipole
  | error in Hartree potential    :          -0.04183726 Ha          -1.13844964 eV
  | Sum of eigenvalues per atom                           :        -355.47421222 eV
  | Total energy (T->0) per atom                          :        -631.56412565 eV  <-- do not rely on this value for anything but (periodic) metals
  | Electronic free energy per atom                       :        -631.56412565 eV

  Self-consistency convergence accuracy:
  | Change of charge density      :  0.9039E+00
  | Change of sum of eigenvalues  :  0.5384E+03 eV
  | Change of total energy        :  0.1546E+02 eV

  End self-consistency iteration #     1       :  max(cpu_time)    wall_clock(cpu1)
  | Time for this iteration                    :        1.580 s           1.579 s
  | Charge density update                      :        0.500 s           0.499 s
[...]
   ----------------------------------------------------------------
   Total forces(  20)            :  0.842729E-03  0.394949E-03 -0.860054E-03
  atom #   21
   Hellmann-Feynman              :  0.573214E-02  0.613418E-01 -0.225988E-01
   Ionic forces                  :  0.000000E+00  0.000000E+00  0.000000E+00
   Multipole                     : -0.334900E-01 -0.279898E-01  0.603983E-02
   Pulay + GGA                   :  0.381381E-01 -0.420341E-01  0.178548E-01
   Van der Waals                 : -0.896711E-02  0.863011E-02 -0.102711E-02
   ----------------------------------------------------------------
   Total forces(  21)            :  0.141317E-02 -0.520141E-04  0.268783E-03
  atom #   22
   Hellmann-Feynman              : -0.311130E-01  0.526321E-01 -0.331218E-01
   Ionic forces                  :  0.000000E+00  0.000000E+00  0.000000E+00
   Multipole                     : -0.103082E-01 -0.779558E-02 -0.391059E-02
   Pulay + GGA                   :  0.315170E-01 -0.461250E-01  0.417085E-01
   Van der Waals                 :  0.970281E-02  0.131817E-02 -0.357822E-02
   ----------------------------------------------------------------
   Total forces(  22)            : -0.201408E-03  0.296770E-04  0.109791E-02
  atom #   23
   Hellmann-Feynman              : -0.958500E+00  0.509623E+00  0.744262E+00
   Ionic forces                  :  0.000000E+00  0.000000E+00  0.000000E+00
   Multipole                     :  0.252960E+00 -0.186066E+00 -0.104612E+00
   Pulay + GGA                   :  0.707547E+00 -0.318079E+00 -0.637074E+00
   Van der Waals                 : -0.169181E-02 -0.341739E-02 -0.127412E-02
   ----------------------------------------------------------------
   Total forces(  23)            :  0.315819E-03  0.206094E-02  0.130217E-02
  atom #   24
   Hellmann-Feynman              :  0.442472E-01 -0.183237E-01 -0.561603E-01
   Ionic forces                  :  0.000000E+00  0.000000E+00  0.000000E+00
   Multipole                     : -0.880554E-02  0.305213E-01  0.581602E-02
   Pulay + GGA                   : -0.359318E-01 -0.225689E-01  0.448588E-01
   Van der Waals                 :  0.146823E-03  0.967834E-02  0.499918E-02
   ----------------------------------------------------------------
   Total forces(  24)            : -0.343336E-03 -0.692901E-03 -0.486309E-03
  atom #   25
   Hellmann-Feynman              : -0.121702E-01 -0.543386E-01  0.101350E-01
   Ionic forces                  :  0.000000E+00  0.000000E+00  0.000000E+00
   Multipole                     :  0.194290E-01 -0.478955E-02  0.211842E-01
   Pulay + GGA                   : -0.539215E-02  0.545480E-01 -0.400775E-01
   Van der Waals                 : -0.222413E-02  0.406507E-02  0.836292E-02
   ----------------------------------------------------------------
   Total forces(  25)            : -0.357527E-03 -0.515093E-03 -0.395399E-03
  atom #   26
   Hellmann-Feynman              :  0.103168E-01 -0.491062E-01 -0.271508E-01
   Ionic forces                  :  0.000000E+00  0.000000E+00  0.000000E+00
   Multipole                     : -0.313508E-01  0.118049E-01 -0.768221E-02
   Pulay + GGA                   :  0.204186E-01  0.336751E-01  0.397525E-01
   Van der Waals                 : -0.221190E-03  0.363681E-02 -0.527855E-02
   ----------------------------------------------------------------
   Total forces(  26)            : -0.836634E-03  0.105720E-04 -0.359011E-03
  atom #   27
   Hellmann-Feynman              :  0.426356E+00 -0.499329E+00  0.143759E+01
   Ionic forces                  :  0.000000E+00  0.000000E+00  0.000000E+00
   Multipole                     : -0.208308E+00  0.169309E-01  0.205266E+00
   Pulay + GGA                   : -0.218799E+00  0.467585E+00 -0.164531E+01
   Van der Waals                 :  0.331095E-02  0.143561E-01  0.212686E-02
   ----------------------------------------------------------------
   Total forces(  27)            :  0.255997E-02 -0.456264E-03 -0.323502E-03
  atom #   28
   Hellmann-Feynman              : -0.961698E+00 -0.131873E+01 -0.178270E+01
   Ionic forces                  :  0.000000E+00  0.000000E+00  0.000000E+00
   Multipole                     :  0.788748E-01  0.761675E-01  0.139845E+00
   Pulay + GGA                   :  0.874873E+00  0.122282E+01  0.163385E+01
   Van der Waals                 :  0.737809E-02  0.193698E-01  0.790036E-02
   ----------------------------------------------------------------
   Total forces(  28)            : -0.572149E-03 -0.376699E-03 -0.110465E-02
  atom #   29
   Hellmann-Feynman              : -0.328722E-01 -0.128920E-02  0.227940E-01
   Ionic forces                  :  0.000000E+00  0.000000E+00  0.000000E+00
   Multipole                     : -0.115354E-01 -0.315849E-01 -0.328520E-01
   Pulay + GGA                   :  0.503237E-01  0.212451E-01  0.110890E-01
   Van der Waals                 : -0.648581E-02  0.117576E-01 -0.802685E-04
   ----------------------------------------------------------------
   Total forces(  29)            : -0.569672E-03  0.128486E-03  0.950670E-03
  atom #   30
   Hellmann-Feynman              : -0.105392E-01  0.336547E-01  0.407015E-01
   Ionic forces                  :  0.000000E+00  0.000000E+00  0.000000E+00
   Multipole                     : -0.273923E-01  0.136572E-01 -0.218516E-01
   Pulay + GGA                   :  0.417787E-01 -0.473416E-01 -0.211431E-01
   Van der Waals                 : -0.334320E-02  0.323295E-03  0.212212E-02
   ----------------------------------------------------------------
   Total forces(  30)            :  0.503909E-03  0.293530E-03 -0.171054E-03
  atom #   31
   Hellmann-Feynman              : -0.888746E-04 -0.123030E-01  0.497935E-01
   Ionic forces                  :  0.000000E+00  0.000000E+00  0.000000E+00
   Multipole                     :  0.147889E-03 -0.309559E-01  0.606573E-02
   Pulay + GGA                   :  0.345570E-02  0.356857E-01 -0.588544E-01
   Van der Waals                 : -0.306333E-02  0.818628E-02  0.295019E-02
   ----------------------------------------------------------------
   Total forces(  31)            :  0.451381E-03  0.613093E-03 -0.448890E-04
  atom #   32
   Hellmann-Feynman              :  0.205573E-01  0.398570E-01  0.537190E-01
   Ionic forces                  :  0.000000E+00  0.000000E+00  0.000000E+00
   Multipole                     :  0.268511E-01 -0.841447E-02 -0.441541E-01
   Pulay + GGA                   : -0.501283E-01 -0.331405E-01 -0.903603E-02
   Van der Waals                 :  0.281459E-02  0.206890E-02 -0.717144E-03
   ----------------------------------------------------------------
   Total forces(  32)            :  0.947482E-04  0.370886E-03 -0.188229E-03

  Timings for VdW correction (Tkatchenko-Scheffler 2009 or later):
  | CPU time:        0.124 s, Wall clock time:        0.124 s.
  Removing unitary transformations (pure translations, rotations) from forces on atoms.
  Atomic forces before filtering:
  | Net force on center of mass :  -0.356608E-03 -0.160377E-03  0.264635E-03 eV/A
  | Net torque on center of mass:  -0.201764E-03  0.704065E-03  0.127737E-02 eV
  Atomic forces after filtering:
  | Net force on center of mass :   0.838457E-18 -0.274404E-17  0.217781E-18 eV/A
  | Net torque on center of mass:  -0.165952E-17 -0.613102E-17 -0.562394E-17 eV

  Energy and forces in a compact form:
  | Total energy uncorrected      :         -0.202083435429533E+05 eV
  | Total energy corrected        :         -0.202083435429533E+05 eV  <-- do not rely on this value for anything but (periodic) metals
  | Electronic free energy        :         -0.202083435429533E+05 eV
  Total atomic forces (unitary forces cleaned) [eV/Ang]:
  |   1         -0.631275365721864E-03         -0.205075979889274E-03         -0.186064034750495E-02
  |   2         -0.364954810740499E-02         -0.363061267978419E-02          0.277943593795877E-02
  |   3          0.118376374329968E-02          0.988419028833662E-03         -0.250418442591758E-03
  |   4          0.125312962073999E-02         -0.913594858784070E-03         -0.276288967597475E-03
  |   5          0.249331868942103E-03          0.201277194146892E-02         -0.734608123218728E-03
  |   6         -0.614566895891318E-03         -0.996178451779143E-04         -0.260034895713973E-03
  |   7          0.332361540633559E-02          0.225854985807236E-02          0.885037131765048E-03
  |   8         -0.154190864632773E-02          0.389100425104832E-02          0.272632996046217E-03
  |   9          0.132003870821040E-02         -0.472009987196858E-02          0.303452036690877E-02
  |  10         -0.864415928892115E-03          0.802865607579123E-03         -0.133962117794986E-03
  |  11          0.585890631231772E-03         -0.253643536618280E-03         -0.119106141029427E-02
  |  12         -0.911821489480787E-03          0.373964404963314E-03         -0.183548944383938E-03
  |  13         -0.265364173087418E-03         -0.121889371371154E-02         -0.267526700670823E-02
  |  14         -0.814816469714528E-03         -0.116237682477122E-02          0.721387443366015E-03
  |  15         -0.260515216826100E-03          0.232150452227106E-03         -0.625151891222917E-03
  |  16         -0.102509286632776E-02          0.693927850336439E-03          0.132233252558296E-02
  |  17          0.360620818130230E-02         -0.711623376492229E-03         -0.188572385839612E-02
  |  18         -0.170567767184391E-02         -0.628290698772833E-03          0.751816347218563E-03
  |  19         -0.251772363852012E-02          0.352659278565942E-03          0.790549553104896E-03
  |  20          0.838161229396887E-03          0.413088747434957E-03         -0.879047226261144E-03
  |  21          0.140995327678624E-02         -0.561230741250363E-04          0.265616414480012E-03
  |  22         -0.211922984020819E-03          0.356573382473490E-04          0.108694857404404E-02
  |  23          0.315026336308177E-03          0.207386212374143E-02          0.128720550320971E-02
  |  24         -0.348989892171229E-03         -0.675642686407517E-03         -0.504781259753844E-03
  |  25         -0.351663307089734E-03         -0.499357046524761E-03         -0.411727327706625E-03
  |  26         -0.837637801930506E-03          0.205667496901692E-04         -0.371925450169981E-03
  |  27          0.255900163388464E-02         -0.448983812304122E-03         -0.334497384011809E-03
  |  28         -0.572349619546872E-03         -0.366535400055836E-03         -0.111760796608482E-02
  |  29         -0.568755818799034E-03          0.130573576991759E-03          0.943513986890754E-03
  |  30          0.499960639082910E-03          0.300038244823623E-03         -0.181781606483320E-03
  |  31          0.458257508267020E-03          0.623866356698140E-03         -0.576209254770879E-04
  |  32          0.917071098091234E-04          0.386505594664787E-03         -0.205301629199772E-03

  ------------------------------------ 
  Start decomposition of the XC Energy 
  ------------------------------------ 
  Hartree-Fock part   :          0.000000000 Ha              0.000000000 eV
  ------------------------------------ 
  X Energy            :        -96.980359391 Ha          -2638.969848347 eV
  C Energy GGA        :         -3.870058870 Ha           -105.309659936 eV
  Total XC Energy     :       -100.850418261 Ha          -2744.279508283 eV
  LDA X and C from self-consistent density 
  X Energy LDA        :        -87.998999343 Ha          -2394.574606730 eV
  C Energy LDA        :         -7.532276827 Ha           -204.963680906 eV
  ------------------------------------ 
  End decomposition of the XC Energy 
  ------------------------------------ 
   
  ESP charge fitting starts.
  | Calculation :  00000001  of  00000001
  | Full density
  Computing multipole expansion for total density.
  Generating points for esp charges.
  Partitioning the integration grid into batches with parallel hashing+maxmin method.
  | Number of batches:     3925
  | Maximal batch size:     197
  | Minimal batch size:      52
  | Average batch size:     124.193
  | Standard deviation of batch sizes:      16.237

  Integration load balanced across    32 MPI tasks.
  Work distribution over tasks is as follows:
  Initializing partition tables, free-atom densities, potentials, etc. across the integration grid (initialize_grid_storage).
  | Original list of interatomic distances with          32 x         32 entries is created.
  | Net number of integration points:   487456
  | of which are non-zero points    :   487456
  Summing up potential from multipole expanded  density.
  Summing up the Hartree potential.
  Time summed over all CPUs for potential: real work        6.373 s, elapsed        6.787 s
  Fitting esp charges to potential.
  |
  | ESP charges fitted to the electrostatic potential :
  |
  | Atom         1: C, ESP charge:      0.72044443
  |
  | Atom         2: C, ESP charge:     -0.92928771
  |
  | Atom         3: O, ESP charge:      0.59337964
  |
  | Atom         4: H, ESP charge:     -0.21880799
  |
  | Atom         5: H, ESP charge:     -0.18160458
  |
  | Atom         6: H, ESP charge:     -0.17560126
  |
  | Atom         7: N, ESP charge:      0.89382235
  |
  | Atom         8: C, ESP charge:     -0.54351678
  |
  | Atom         9: C, ESP charge:     -0.44433771
  |
  | Atom        10: O, ESP charge:      0.52036819
  |
  | Atom        11: H, ESP charge:     -0.34150742
  |
  | Atom        12: H, ESP charge:     -0.05275315
  |
  | Atom        13: C, ESP charge:      0.51740593
  |
  | Atom        14: H, ESP charge:     -0.13676066
  |
  | Atom        15: H, ESP charge:     -0.14233608
  |
  | Atom        16: H, ESP charge:     -0.14749492
  |
  | Atom        17: N, ESP charge:      0.46892725
  |
  | Atom        18: C, ESP charge:     -0.05890629
  |
  | Atom        19: C, ESP charge:     -0.34706416
  |
  | Atom        20: O, ESP charge:      0.46338090
  |
  | Atom        21: H, ESP charge:     -0.27741519
  |
  | Atom        22: H, ESP charge:     -0.10695596
  |
  | Atom        23: C, ESP charge:      0.16805763
  |
  | Atom        24: H, ESP charge:     -0.08482135
  |
  | Atom        25: H, ESP charge:     -0.02999582
  |
  | Atom        26: H, ESP charge:     -0.04906239
  |
  | Atom        27: N, ESP charge:      0.22885289
  |
  | Atom        28: C, ESP charge:      0.36474479
  |
  | Atom        29: H, ESP charge:     -0.22190049
  |
  | Atom        30: H, ESP charge:     -0.14937147
  |
  | Atom        31: H, ESP charge:     -0.12738863
  |
  | Atom        32: H, ESP charge:     -0.17249399

  RRMS:       0.00350532

  Done.

------------------------------------------------------------------------------
  Final output of selected total energy values:

  The following output summarizes some interesting total energy values
  at the end of a run (AFTER all relaxation, molecular dynamics, etc.).

  | Total energy of the DFT / Hartree-Fock s.c.f. calculation      :         -20208.343542953 eV
  | Final zero-broadening corrected energy (caution - metals only) :         -20208.343542953 eV
  | For reference only, the value of 1 Hartree used in FHI-aims is :             27.211384500 eV

  Before relying on these values, please be sure to understand exactly which
  total energy value is referred to by a given number. Different objects may
  all carry the same name 'total energy'. Definitions:

  Total energy of the DFT / Hartree-Fock s.c.f. calculation:
  | Note that this energy does not include ANY quantities calculated after the
  | s.c.f. cycle, in particular not ANY RPA, MP2, etc. many-body perturbation terms.

  Final zero-broadening corrected energy:
  | For metallic systems only, a broadening of the occupation numbers at the Fermi
  | level can be extrapolated back to zero broadening by an electron-gas inspired
  | formula. For all systems that are not real metals, this value can be
  | meaningless and should be avoided.

------------------------------------------------------------------------------
  Methods described in the following list of references were used in this FHI-aims run.
  If you publish the results, please make sure to cite these reference if they apply.
  FHI-aims is an academic code, and for our developers (often, Ph.D. students
  and postdocs), scientific credit in the community is essential.
  Thank you for helping us!

  For any use of FHI-aims, please cite:

    Volker Blum, Ralf Gehrke, Felix Hanke, Paula Havu, Ville Havu,
    Xinguo Ren, Karsten Reuter, and Matthias Scheffler
    'Ab initio molecular simulations with numeric atom-centered orbitals'
    Computer Physics Communications 180, 2175-2196 (2009)
    http://dx.doi.org/10.1016/j.cpc.2009.06.022


  The scalable eigensolver library ELPA was used in your run.
  ELPA is essential especially for large systems on hundreds or thousands of CPUs.
  For ELPA, please cite:

    Andreas Marek, Volker Blum, Rainer Johanni, Ville Havu, Bruno Lang,
    Thomas Auckenthaler, Alexander Heinecke, Hans-Joachim Bungartz, and Hermann Lederer,
    'The ELPA Library - Scalable Parallel Eigenvalue Solutions
    for Electronic Structure Theory and Computational Science'
    The Journal of Physics: Condensed Matter 26, 213201 (2014).
    http://dx.doi.org/10.1088/0953-8984/26/21/213201


  For ELPA's efficient two-stage tridiagonalization used in your run, please cite:

    T. Auckenthaler, V. Blum, H.-J. Bungartz, T. Huckle, R. Johanni, L. Kraemer,
    B. Lang, H. Lederer, and P. R. Willems,
    'Parallel solution of partial symmetric eigenvalue problems'
    'from  electronic structure calculations'
    Parallel Computing 37, 783-794 (2011).
    http://dx.doi.org/10.1016/j.parco.2011.05.002


  For the real-space grid partitioning and parallelization used in this calculation, please cite:

    Ville Havu, Volker Blum, Paula Havu, and Matthias Scheffler,
    'Efficient O(N) integration for all-electron electronic structure calculation'
    'using numerically tabulated basis functions'
    Journal of Computational Physics 228, 8367-8379 (2009).
    http://dx.doi.org/10.1016/j.jcp.2009.08.008

  Of course, there are many other important community references, e.g., those cited in the
  above references. Our list is limited to references that describe implementations in the
  FHI-aims code. The reason is purely practical (length of this list) - please credit others as well.

------------------------------------------------------------
          Leaving FHI-aims.
          Date     :  20170309, Time     :  185456.849

          Computational steps:
          | Number of self-consistency cycles          :           14

          Detailed time accounting                     :  max(cpu_time)    wall_clock(cpu1)
          | Total time                                 :       31.074 s          31.224 s
          | Preparation time                           :        0.240 s           0.236 s
          | Grid partitioning                          :        0.308 s           0.301 s
          | Preloading free-atom quantities on grid    :        0.028 s           0.028 s
          | Free-atom superposition energy             :        0.040 s           0.039 s
          | Total time for integrations                :       11.421 s          11.400 s
          | Total time for solution of K.-S. equations :        0.528 s           0.494 s
          | Total time for density & force components  :        9.865 s           9.845 s
          | Total time for mixing                      :        0.132 s           0.106 s
          | Total time for Hartree multipole update    :        0.060 s           0.059 s
          | Total time for Hartree multipole sum       :        6.320 s           6.301 s
          | Total time for total energy evaluation     :        0.020 s           0.020 s
          | Total time for vdW correction              :        0.124 s           0.124 s

          Have a nice day.
------------------------------------------------------------
