  MPI-parallelism will be employed.
------------------------------------------------------------
          Invoking FHI-aims ...
          Version 150427
          Git rev.: 9dd23e0 BL: Update Version stamp
          Compiled on 2015/11/03 at 22:05:20 on host eos03.

          When using FHI-aims, please cite the following reference:

          Volker Blum, Ralf Gehrke, Felix Hanke, Paula Havu,
          Ville Havu, Xinguo Ren, Karsten Reuter, and Matthias Scheffler,
          'Ab Initio Molecular Simulations with Numeric Atom-Centered Orbitals: FHI-aims',
          Computer Physics Communications 180, 2175-2196 (2009)

          For any questions about FHI-aims, please visit the aimsclub website
          with its forums and wiki. Contributions to both the forums and the
          wiki are warmly encouraged - they are for you, and everyone is welcome there.

------------------------------------------------------------

  Date     :  20170309, Time     :  160740.823
  Time zero on CPU 1             :   0.324020000000000E+00  s.
  Internal wall clock time zero  :           258307660.823  s.

  Using       32 parallel tasks.
  Task        0 on host eos085 reporting.
  Task        1 on host eos085 reporting.
  Task        2 on host eos085 reporting.
  Task        3 on host eos085 reporting.
  Task        4 on host eos085 reporting.
  Task        5 on host eos085 reporting.
  Task        6 on host eos085 reporting.
  Task        7 on host eos085 reporting.
  Task        8 on host eos085 reporting.
  Task        9 on host eos085 reporting.
  Task       10 on host eos085 reporting.
  Task       11 on host eos085 reporting.
  Task       12 on host eos085 reporting.
  Task       13 on host eos085 reporting.
  Task       14 on host eos085 reporting.
  Task       15 on host eos085 reporting.
  Task       16 on host eos085 reporting.
  Task       17 on host eos085 reporting.
  Task       18 on host eos085 reporting.
  Task       19 on host eos085 reporting.
  Task       20 on host eos085 reporting.
  Task       21 on host eos085 reporting.
  Task       22 on host eos085 reporting.
  Task       23 on host eos085 reporting.
  Task       24 on host eos085 reporting.
  Task       25 on host eos085 reporting.
  Task       26 on host eos085 reporting.
  Task       27 on host eos085 reporting.
  Task       28 on host eos085 reporting.
  Task       29 on host eos085 reporting.
  Task       30 on host eos085 reporting.
  Task       31 on host eos085 reporting.

  Performing system and environment tests:
  | Environment variable OMP_NUM_THREADS correctly set to 1.
  | Stacksize not measured: no C compiler
  | Checking for scalapack...
  | Testing pdtran()...
  | All pdtran() tests passed.

  Obtaining array dimensions for all initial allocations:
  
  -----------------------------------------------------------------------
  Parsing control.in (first pass over file, find array dimensions only).
  The contents of control.in will be repeated verbatim below
  unless switched off by setting 'verbatim_writeout .false.' .
  in the first line of control.in .
  -----------------------------------------------------------------------
  
  #########################################################################################
  #
  # Input for System
  #
  #########################################################################################
  #
  #
  #  Physical model
  #
    xc                 pbe
    vdw_correction_hirshfeld
    spin               none
    charge             0.
  #
  #  SCF convergence
  #
    occupation_type    gaussian 0.05
    mixer              pulay
      n_max_pulay        10
      charge_mix_param   0.5
    sc_accuracy_rho    1E-4
    sc_accuracy_eev    1E-2
    sc_accuracy_etot   1E-5
    sc_accuracy_forces 1E-4
    sc_iter_limit      1000
  #
  #  ESP charge
  #
    output esp
    esp equal_grid_n 80 80 80
  #
  #
  ################################################################################
  #
  #  FHI-aims code project
  # Volker Blum, Fritz Haber Institute Berlin, 2009
  #
  #  Suggested "tight" defaults for H atom (to be pasted into control.in file)
  #
  ################################################################################
    species        H
  #     global species definitions
      nucleus             1
      mass                1.00794
  #
      l_hartree           6
  #
      cut_pot             4.0  2.0  1.0
      basis_dep_cutoff    1e-4
  #
      radial_base         24 7.0
      radial_multiplier   2
      angular_grids       specified
        division   0.1930   50
        division   0.3175  110
        division   0.4293  194
        division   0.5066  302
        division   0.5626  434
  #      division   0.5922  590
  #      division   0.6227  974
  #      division   0.6868 1202
  #      outer_grid  770
        outer_grid  434
  ################################################################################
  #
  #  Definition of "minimal" basis
  #
  ################################################################################
  #     valence basis states
      valence      1  s   1.
  #     ion occupancy
      ion_occ      1  s   0.5
  ################################################################################
  #
  #  Suggested additional basis functions. For production calculations,
  #  uncomment them one after another (the most important basis functions are
  #  listed first).
  #
  #  Basis constructed for dimers: 0.5 A, 0.7 A, 1.0 A, 1.5 A, 2.5 A
  #
  ################################################################################
  #  "First tier" - improvements: -1014.90 meV to -62.69 meV
       hydro 2 s 2.1
       hydro 2 p 3.5
  #  "Second tier" - improvements: -12.89 meV to -1.83 meV
       hydro 1 s 0.85
       hydro 2 p 3.7
       hydro 2 s 1.2
       hydro 3 d 7
  #  "Third tier" - improvements: -0.25 meV to -0.12 meV
  #     hydro 4 f 11.2
  #     hydro 3 p 4.8
  #     hydro 4 d 9
  #     hydro 3 s 3.2
  ################################################################################
  #
  # For methods that use the localized form of the "resolution of identity" for
  # the two-electron Coulomb operator (RI_method LVL), particularly Hartree-Fock and
  # hybrid density functional calculations, the highest accuracy can be obtained by
  # uncommenting the line beginning with "for_aux"  below, thus adding an extra g radial
  # function to the construction of the product basis set for the expansion.
  # See Ref. New J. Phys. 17, 093020 (2015) for more information, particularly Figs. 1 and 6.
  #
  ################################################################################
  #
  # for_aux hydro 5 g 6.0
  ################################################################################
  #
  #  FHI-aims code project
  # Volker Blum, Fritz Haber Institute Berlin, 2009
  #
  #  Suggested "tight" defaults for C atom (to be pasted into control.in file)
  #
  ################################################################################
    species        C
  #     global species definitions
      nucleus             6
      mass                12.0107
  #
      l_hartree           6
  #
      cut_pot             4.0  2.0  1.0
      basis_dep_cutoff    1e-4
  #
      radial_base         34 7.0
      radial_multiplier   2
      angular_grids specified
        division   0.2187   50
        division   0.4416  110
        division   0.6335  194
        division   0.7727  302
        division   0.8772  434
  #      division   0.9334  590
  #      division   0.9924  770
  #      division   1.0230  974
  #      division   1.5020 1202
  #     outer_grid  974
        outer_grid  434
  ################################################################################
  #
  #  Definition of "minimal" basis
  #
  ################################################################################
  #     valence basis states
      valence      2  s   2.
      valence      2  p   2.
  #     ion occupancy
      ion_occ      2  s   1.
      ion_occ      2  p   1.
  ################################################################################
  #
  #  Suggested additional basis functions. For production calculations,
  #  uncomment them one after another (the most important basis functions are
  #  listed first).
  #
  #  Constructed for dimers: 1.0 A, 1.25 A, 1.5 A, 2.0 A, 3.0 A
  #
  ################################################################################
  #  "First tier" - improvements: -1214.57 meV to -155.61 meV
       hydro 2 p 1.7
       hydro 3 d 6
       hydro 2 s 4.9
  #  "Second tier" - improvements: -67.75 meV to -5.23 meV
       hydro 4 f 9.8
       hydro 3 p 5.2
       hydro 3 s 4.3
       hydro 5 g 14.4
       hydro 3 d 6.2
  #  "Third tier" - improvements: -2.43 meV to -0.60 meV
  #     hydro 2 p 5.6
  #     hydro 2 s 1.4
  #     hydro 3 d 4.9
  #     hydro 4 f 11.2
  #  "Fourth tier" - improvements: -0.39 meV to -0.18 meV
  #     hydro 2 p 2.1
  #     hydro 5 g 16.4
  #     hydro 4 d 13.2
  #     hydro 3 s 13.6
  #     hydro 4 f 17.6
  #  Further basis functions - improvements: -0.08 meV and below
  #     hydro 3 s 2
  #     hydro 3 p 6
  #     hydro 4 d 20
  ################################################################################
  #
  # For methods that use the localized form of the "resolution of identity" for
  # the two-electron Coulomb operator (RI_method LVL), particularly Hartree-Fock and
  # hybrid density functional calculations, the highest accuracy can be obtained by
  # uncommenting the line beginning with "for_aux"  below, thus adding an extra g radial
  # function to the construction of the product basis set for the expansion.
  # See Ref. New J. Phys. 17, 093020 (2015) for more information, particularly Figs. 1 and 6.
  #
  ################################################################################
  #
  # for_aux hydro 5 g 6.0
  ################################################################################
  #
  #  FHI-aims code project
  # Volker Blum, Fritz Haber Institute Berlin, 2009
  #
  #  Suggested "tight" defaults for N atom (to be pasted into control.in file)
  #
  ################################################################################
    species        N
  #     global species definitions
      nucleus             7
      mass                14.0067
  #
      l_hartree           6
  #
      cut_pot             4.0  2.0  1.0
      basis_dep_cutoff    1e-4
  #
      radial_base         35 7.0
      radial_multiplier   2
      angular_grids       specified
        division   0.1841   50
        division   0.3514  110
        division   0.5126  194
        division   0.6292  302
        division   0.6939  434
  #      division   0.7396  590
  #      division   0.7632  770
  #      division   0.8122  974
  #      division   1.1604 1202
  #      outer_grid  974
        outer_grid  434
  ################################################################################
  #
  #  Definition of "minimal" basis
  #
  ################################################################################
  #     valence basis states
      valence      2  s   2.
      valence      2  p   3.
  #     ion occupancy
      ion_occ      2  s   1.
      ion_occ      2  p   2.
  ################################################################################
  #
  #  Suggested additional basis functions. For production calculations,
  #  uncomment them one after another (the most important basis functions are
  #  listed first).
  #
  #  Constructed for dimers: 1.0 A, 1.1 A, 1.5 A, 2.0 A, 3.0 A
  #
  ################################################################################
  #  "First tier" - improvements: -1193.42 meV to -220.60 meV
       hydro 2 p 1.8
       hydro 3 d 6.8
       hydro 3 s 5.8
  #  "Second tier" - improvements: -80.21 meV to -6.86 meV
       hydro 4 f 10.8
       hydro 3 p 5.8
       hydro 1 s 0.8
       hydro 5 g 16
       hydro 3 d 4.9
  #  "Third tier" - improvements: -4.29 meV to -0.53 meV
  #     hydro 3 s 16
  #     ionic 2 p auto
  #     hydro 3 d 6.6
  #     hydro 4 f 11.6
  #  "Fourth tier" - improvements: -0.75 meV to -0.25 meV
  #     hydro 2 p 4.5
  #     hydro 2 s 2.4
  #     hydro 5 g 14.4
  #     hydro 4 d 14.4
  #     hydro 4 f 16.8
  # Further basis functions - -0.21 meV and below
  #     hydro 3 p 14.8
  #     hydro 3 s 4.4
  #     hydro 3 d 19.6
  #     hydro 5 g 12.8
  ################################################################################
  #
  # For methods that use the localized form of the "resolution of identity" for
  # the two-electron Coulomb operator (RI_method LVL), particularly Hartree-Fock and
  # hybrid density functional calculations, the highest accuracy can be obtained by
  # uncommenting the line beginning with "for_aux"  below, thus adding an extra g radial
  # function to the construction of the product basis set for the expansion.
  # See Ref. New J. Phys. 17, 093020 (2015) for more information, particularly Figs. 1 and 6.
  #
  ################################################################################
  #
  # for_aux hydro 5 g 6.0
  ################################################################################
  #
  #  FHI-aims code project
  # Volker Blum, Fritz Haber Institute Berlin, 2009
  #
  #  Suggested "tight" defaults for O atom (to be pasted into control.in file)
  #
  ################################################################################
    species        O
  #     global species definitions
      nucleus             8
      mass                15.9994
  #
      l_hartree           6
  #
      cut_pot             4.0  2.0  1.0
      basis_dep_cutoff    1e-4
  #
      radial_base         36 7.0
      radial_multiplier   2
       angular_grids specified
        division   0.1817   50
        division   0.3417  110
        division   0.4949  194
        division   0.6251  302
        division   0.8014  434
  #      division   0.8507  590
  #      division   0.8762  770
  #      division   0.9023  974
  #      division   1.2339 1202
  #      outer_grid 974
        outer_grid  434
  ################################################################################
  #
  #  Definition of "minimal" basis
  #
  ################################################################################
  #     valence basis states
      valence      2  s   2.
      valence      2  p   4.
  #     ion occupancy
      ion_occ      2  s   1.
      ion_occ      2  p   3.
  ################################################################################
  #
  #  Suggested additional basis functions. For production calculations,
  #  uncomment them one after another (the most important basis functions are
  #  listed first).
  #
  #  Constructed for dimers: 1.0 A, 1.208 A, 1.5 A, 2.0 A, 3.0 A
  #
  ################################################################################
  #  "First tier" - improvements: -699.05 meV to -159.38 meV
       hydro 2 p 1.8
       hydro 3 d 7.6
       hydro 3 s 6.4
  #  "Second tier" - improvements: -49.91 meV to -5.39 meV
       hydro 4 f 11.6
       hydro 3 p 6.2
       hydro 3 d 5.6
       hydro 5 g 17.6
       hydro 1 s 0.75
  #  "Third tier" - improvements: -2.83 meV to -0.50 meV
  #     ionic 2 p auto
  #     hydro 4 f 10.8
  #     hydro 4 d 4.7
  #     hydro 2 s 6.8
  #  "Fourth tier" - improvements: -0.40 meV to -0.12 meV
  #     hydro 3 p 5
  #     hydro 3 s 3.3
  #     hydro 5 g 15.6
  #     hydro 4 f 17.6
  #     hydro 4 d 14
  # Further basis functions - -0.08 meV and below
  #     hydro 3 s 2.1
  #     hydro 4 d 11.6
  #     hydro 3 p 16
  #     hydro 2 s 17.2
  ################################################################################
  #
  # For methods that use the localized form of the "resolution of identity" for
  # the two-electron Coulomb operator (RI_method LVL), particularly Hartree-Fock and
  # hybrid density functional calculations, the highest accuracy can be obtained by
  # uncommenting the line beginning with "for_aux"  below, thus adding an extra g radial
  # function to the construction of the product basis set for the expansion.
  # See Ref. New J. Phys. 17, 093020 (2015) for more information, particularly Figs. 1 and 6.
  #
  ################################################################################
  #
  # for_aux hydro 5 g 6.0
  
  -----------------------------------------------------------------------
  Completed first pass over input file control.in .
  -----------------------------------------------------------------------
  
  
  -----------------------------------------------------------------------
  Parsing geometry.in (first pass over file, find array dimensions only).
  The contents of geometry.in will be repeated verbatim below
  unless switched off by setting 'verbatim_writeout .false.' .
  in the first line of geometry.in .
  -----------------------------------------------------------------------
  
  #
  # This is the geometry file that corresponds to the current relaxation step.
  # If you do not want this file to be written, set the "write_restart_geometry" flag to .false.
  #
  atom      -1.04104074     -0.48211518      0.21532939 C
  atom      -0.38698639     -0.21980811      1.56271741 C
  atom       0.76930487      0.17112008      1.65815651 O
  atom      -0.27550642     -0.81532015     -0.49233649 H
  atom      -1.45824634      0.46580230     -0.15327019 H
  atom      -1.85044216     -1.22273467      0.25733336 H
  atom      -1.21010037     -0.48382375      2.64127675 N
  atom      -1.01258698      0.00545203      3.99896938 C
  atom      -1.46204336      1.48831523      4.09753905 C
  atom      -1.54155174      2.20755502      3.11142295 O
  atom      -2.18350144     -0.63655310      2.39945826 H
  atom      -1.69374852     -0.59472470      4.62295411 H
  atom       0.41597027     -0.19889303      4.52805715 C
  atom       1.12633538      0.44637687      4.00551278 H
  atom       0.72378963     -1.24038256      4.37253611 H
  atom       0.45907445      0.01483460      5.60428171 H
  atom      -1.74594578      1.97641207      5.35370518 N
  atom      -2.00542459      1.22954432      6.57148845 C
  atom      -3.24016001      0.30027702      6.44169443 C
  atom      -4.22374019      0.60800165      5.77822187 O
  atom      -2.13563609      2.91530192      5.31308250 H
  atom      -1.12238218      0.61601716      6.81597794 H
  atom      -2.24020268      2.21524015      7.72209722 C
  atom      -2.40937540      1.68170435      8.66532911 H
  atom      -3.12712864      2.83093793      7.51824622 H
  atom      -1.37044756      2.87311468      7.84523384 H
  atom      -3.13545919     -0.86153493      7.15311200 N
  atom      -4.21090491     -1.83238656      7.24040898 C
  atom      -2.27189121     -1.04280509      7.65147947 H
  atom      -4.56164115     -1.94970951      8.27536661 H
  atom      -3.89283271     -2.81254552      6.85916472 H
  atom      -5.03727284     -1.46159553      6.62455721 H
  
  -----------------------------------------------------------------------
  Completed first pass over input file geometry.in .
  -----------------------------------------------------------------------
  

  Basic array size parameters:
  | Number of species                 :        4
  | Number of atoms                   :       32
  | Max. basis fn. angular momentum   :        4
  | Max. atomic/ionic basis occupied n:        2
  | Max. number of basis fn. types    :        2
  | Max. radial fns per species/type  :        8
  | Max. logarithmic grid size        :     1301
  | Max. radial integration grid size :       73
  | Max. angular integration grid size:      434
  | Max. angular grid division number :        8
  | Radial grid for Hartree potential :     1301
  | Number of spin channels           :        1

------------------------------------------------------------
          Reading file control.in.
------------------------------------------------------------
  XC: Using PBE gradient-corrected functionals.
  Spin treatment: No spin polarisation.
  Charge =   0.000000E+00: Neutral system requested explicitly.
  Occupation type: Gaussian broadening, width =   0.500000E-01 eV.
  Using pulay charge density mixing.
  Pulay mixing - number of memorized iterations:   10
  Charge density mixing - mixing parameter:     0.5000
  Convergence accuracy of self-consistent charge density:  0.1000E-03
  Convergence accuracy of sum of eigenvalues:  0.1000E-01
  Convergence accuracy of total energy:  0.1000E-04
  Convergence accuracy of forces:  0.1000E-03
  Maximum number of s.-c. iterations  :  1000
  Fitting ESP-charges to Potential. 
  | Esp charge output options: 
  | ESP Grid method: 3, cubic grid
  | Number of points in x, ,y, z:  0080 0080 0080
  |
 
  Reading configuration options for species H                   .
  | Found nuclear charge :   1.0000
  | Found atomic mass :    1.00794000000000      amu
  | Found l_max for Hartree potential  :   6
  | Found cutoff potl. onset [A], width [A], scale factor :    4.00000    2.00000    1.00000
  | Threshold for basis-dependent cutoff potential is   0.100000E-03
  | Found data for basic radial integration grid :    24 points, outermost radius =    7.000 A
  | Found multiplier for basic radial grid :   2
  | Found angular grid specification: user-specified.
  | Specified grid contains     6 separate shells.
  | Check grid settings after all constraints further below.
  | Found free-atom valence shell :  1 s   1.000
  | No ionic wave fns used. Skipping ion_occ.
  | Found hydrogenic basis function :  2 s   2.100
  | Found hydrogenic basis function :  2 p   3.500
  | Found hydrogenic basis function :  1 s   0.850
  | Found hydrogenic basis function :  2 p   3.700
  | Found hydrogenic basis function :  2 s   1.200
  | Found hydrogenic basis function :  3 d   7.000
  Species H                   : Missing cutoff potential type.
  Defaulting to exp(1/x)/(1-x)^2 type cutoff potential.
  Species H : No 'logarithmic' tag. Using default grid for free atom:
  | Default logarithmic grid data [bohr] : 0.1000E-03 0.1000E+03 0.1012E+01
  Species H : On-site basis accuracy parameter (for Gram-Schmidt orthonormalisation) not specified.
  Using default value basis_acc =  0.1000000E-03.
  Species H                   : Using default innermost maximum threshold i_radial=  2 for radial functions.
  Species H                   : Default cutoff onset for free atom density etc. : 0.40000000E+01 AA.
  Species H                   : Basic radial grid will be enhanced according to radial_multiplier =   2, to contain    49 grid points.
 
  Reading configuration options for species C                   .
  | Found nuclear charge :   6.0000
  | Found atomic mass :    12.0107000000000      amu
  | Found l_max for Hartree potential  :   6
  | Found cutoff potl. onset [A], width [A], scale factor :    4.00000    2.00000    1.00000
  | Threshold for basis-dependent cutoff potential is   0.100000E-03
  | Found data for basic radial integration grid :    34 points, outermost radius =    7.000 A
  | Found multiplier for basic radial grid :   2
  | Found angular grid specification: user-specified.
  | Specified grid contains     6 separate shells.
  | Check grid settings after all constraints further below.
  | Found free-atom valence shell :  2 s   2.000
  | Found free-atom valence shell :  2 p   2.000
  | No ionic wave fns used. Skipping ion_occ.
  | No ionic wave fns used. Skipping ion_occ.
  | Found hydrogenic basis function :  2 p   1.700
  | Found hydrogenic basis function :  3 d   6.000
  | Found hydrogenic basis function :  2 s   4.900
  | Found hydrogenic basis function :  4 f   9.800
  | Found hydrogenic basis function :  3 p   5.200
  | Found hydrogenic basis function :  3 s   4.300
  | Found hydrogenic basis function :  5 g  14.400
  | Found hydrogenic basis function :  3 d   6.200
  Species C                   : Missing cutoff potential type.
  Defaulting to exp(1/x)/(1-x)^2 type cutoff potential.
  Species C : No 'logarithmic' tag. Using default grid for free atom:
  | Default logarithmic grid data [bohr] : 0.1000E-03 0.1000E+03 0.1012E+01
  Species C : On-site basis accuracy parameter (for Gram-Schmidt orthonormalisation) not specified.
  Using default value basis_acc =  0.1000000E-03.
  Species C                   : Using default innermost maximum threshold i_radial=  2 for radial functions.
  Species C                   : Default cutoff onset for free atom density etc. : 0.40000000E+01 AA.
  Species C                   : Basic radial grid will be enhanced according to radial_multiplier =   2, to contain    69 grid points.
 
  Reading configuration options for species N                   .
  | Found nuclear charge :   7.0000
  | Found atomic mass :    14.0067000000000      amu
  | Found l_max for Hartree potential  :   6
  | Found cutoff potl. onset [A], width [A], scale factor :    4.00000    2.00000    1.00000
  | Threshold for basis-dependent cutoff potential is   0.100000E-03
  | Found data for basic radial integration grid :    35 points, outermost radius =    7.000 A
  | Found multiplier for basic radial grid :   2
  | Found angular grid specification: user-specified.
  | Specified grid contains     6 separate shells.
  | Check grid settings after all constraints further below.
  | Found free-atom valence shell :  2 s   2.000
  | Found free-atom valence shell :  2 p   3.000
  | No ionic wave fns used. Skipping ion_occ.
  | No ionic wave fns used. Skipping ion_occ.
  | Found hydrogenic basis function :  2 p   1.800
  | Found hydrogenic basis function :  3 d   6.800
  | Found hydrogenic basis function :  3 s   5.800
  | Found hydrogenic basis function :  4 f  10.800
  | Found hydrogenic basis function :  3 p   5.800
  | Found hydrogenic basis function :  1 s   0.800
  | Found hydrogenic basis function :  5 g  16.000
  | Found hydrogenic basis function :  3 d   4.900
  Species N                   : Missing cutoff potential type.
  Defaulting to exp(1/x)/(1-x)^2 type cutoff potential.
  Species N : No 'logarithmic' tag. Using default grid for free atom:
  | Default logarithmic grid data [bohr] : 0.1000E-03 0.1000E+03 0.1012E+01
  Species N : On-site basis accuracy parameter (for Gram-Schmidt orthonormalisation) not specified.
  Using default value basis_acc =  0.1000000E-03.
  Species N                   : Using default innermost maximum threshold i_radial=  2 for radial functions.
  Species N                   : Default cutoff onset for free atom density etc. : 0.40000000E+01 AA.
  Species N                   : Basic radial grid will be enhanced according to radial_multiplier =   2, to contain    71 grid points.
 
  Reading configuration options for species O                   .
  | Found nuclear charge :   8.0000
  | Found atomic mass :    15.9994000000000      amu
  | Found l_max for Hartree potential  :   6
  | Found cutoff potl. onset [A], width [A], scale factor :    4.00000    2.00000    1.00000
  | Threshold for basis-dependent cutoff potential is   0.100000E-03
  | Found data for basic radial integration grid :    36 points, outermost radius =    7.000 A
  | Found multiplier for basic radial grid :   2
  | Found angular grid specification: user-specified.
  | Specified grid contains     6 separate shells.
  | Check grid settings after all constraints further below.
  | Found free-atom valence shell :  2 s   2.000
  | Found free-atom valence shell :  2 p   4.000
  | No ionic wave fns used. Skipping ion_occ.
  | No ionic wave fns used. Skipping ion_occ.
  | Found hydrogenic basis function :  2 p   1.800
  | Found hydrogenic basis function :  3 d   7.600
  | Found hydrogenic basis function :  3 s   6.400
  | Found hydrogenic basis function :  4 f  11.600
  | Found hydrogenic basis function :  3 p   6.200
  | Found hydrogenic basis function :  3 d   5.600
  | Found hydrogenic basis function :  5 g  17.600
  | Found hydrogenic basis function :  1 s   0.750
  Species O                   : Missing cutoff potential type.
  Defaulting to exp(1/x)/(1-x)^2 type cutoff potential.
  Species O : No 'logarithmic' tag. Using default grid for free atom:
  | Default logarithmic grid data [bohr] : 0.1000E-03 0.1000E+03 0.1012E+01
  Species O : On-site basis accuracy parameter (for Gram-Schmidt orthonormalisation) not specified.
  Using default value basis_acc =  0.1000000E-03.
  Species O                   : Using default innermost maximum threshold i_radial=  2 for radial functions.
  Species O                   : Default cutoff onset for free atom density etc. : 0.40000000E+01 AA.
  Species O                   : Basic radial grid will be enhanced according to radial_multiplier =   2, to contain    73 grid points.
 
  Finished reading input file 'control.in'. Consistency checks are next.
 
  Target number of points in a grid batch is not set. Defaulting to  100
  Method for grid partitioning is not set. Defaulting to parallel hash+maxmin partitioning.
  Batch size limit is not set. Defaulting to    200
  By default, will store active basis functions for each batch.
  If in need of memory, prune_basis_once .false. can be used to disable this option.
  communication_type for Hartree potential was not specified.
  Defaulting to calc_hartree .
  Pulay mixer: Number of initial linear mixing iterations not set.
  Defaulting to    0 iterations.
  Work space size for distributed Hartree potential not set.
  Defaulting to   0.200000E+03 MB.
  Algorithm-dependent basis array size parameters:
  | n_max_pulay                         :       10
  Geometry relaxation not requested: no relaxation will be performed.
  Handling of forces: Unphysical translation and rotation will be removed from forces.
  No accuracy limit for integral partition fn. given. Defaulting to  0.1000E-14.
  No threshold value for u(r) in integrations given. Defaulting to  0.1000E-05.
  No accuracy for occupation numbers given. Defaulting to  0.1000E-07.
  No threshold value for occupation numbers given. Defaulting to  0.0000E+00.
  No accuracy for fermi level given. Defaulting to  0.1000E-19.
  Maximum # of iterations to find E_F not set. Defaulting to  200.
  Preferred method for the eigenvalue solver ('KS_method') not specified in 'control.in'.
  Calling blacs routine to test compilation state
  Since scalapack support is enabled, defaulting to 'elpa'.
  Preferred method for the MBD eigenvalue solver ('mbd_eigensolver') not specified in 'control.in'.
  Calling blacs routine to test compilation state
  Since scalapack support is enabled, defaulting to 'scaLAPACK'.
  Will not use alltoall communication since running on < 1024 CPUs.
  Threshold for basis singularities not set.
  Default threshold for basis singularities:  0.1000E-04
  partition_type (choice of integration weights) for integrals was not specified.
  | Using a version of the partition function of Stratmann and coworkers ('stratmann_smoother').
  | At each grid point, the set of atoms used to build the partition table is smoothly restricted to
  | only those atoms whose free-atom density would be non-zero at that grid point.
  Partitioning for Hartree potential was not defined. Using partition_type for integrals.
  | Adjusted default value of keyword multip_moments_threshold to:       0.10000000E-11
  | This value may affect high angular momentum components of the Hartree potential in periodic systems.
  No q(lm)/r^(l+1) cutoff set for long-range Hartree potential.
  | Using default value of  0.100000E-09 .
  | Verify using the multipole_threshold keyword.
  Defaulting to new monopole extrapolation.
  Density update method: automatic selection selected.
------------------------------------------------------------


------------------------------------------------------------
          Reading geometry description geometry.in.
------------------------------------------------------------
 * Warning! You did not set the 'relativistic' flag in input file 'control.in'.
 * Since you are not attempting to treat any elements beyond Ca(Z=20), FHI-aims
 * will default to 'relativistic none'.
 * You must ensure that this is really what you want!!
 * For example, DO NOT compute total-energy differences between results from
 * different settings of the 'relativistic' flag.
  Input structure read successfully.
  The structure contains       32 atoms,  and a total of        116.000 electrons.

  Input geometry:
  | No unit cell requested.
  | Atomic structure:
  |       Atom                x [A]            y [A]            z [A]
  |    1: Species C             -1.041041        -0.482115         0.215329
  |    2: Species C             -0.386986        -0.219808         1.562717
  |    3: Species O              0.769305         0.171120         1.658157
  |    4: Species H             -0.275506        -0.815320        -0.492336
  |    5: Species H             -1.458246         0.465802        -0.153270
  |    6: Species H             -1.850442        -1.222735         0.257333
  |    7: Species N             -1.210100        -0.483824         2.641277
  |    8: Species C             -1.012587         0.005452         3.998969
  |    9: Species C             -1.462043         1.488315         4.097539
  |   10: Species O             -1.541552         2.207555         3.111423
  |   11: Species H             -2.183501        -0.636553         2.399458
  |   12: Species H             -1.693749        -0.594725         4.622954
  |   13: Species C              0.415970        -0.198893         4.528057
  |   14: Species H              1.126335         0.446377         4.005513
  |   15: Species H              0.723790        -1.240383         4.372536
  |   16: Species H              0.459074         0.014835         5.604282
  |   17: Species N             -1.745946         1.976412         5.353705
  |   18: Species C             -2.005425         1.229544         6.571488
  |   19: Species C             -3.240160         0.300277         6.441694
  |   20: Species O             -4.223740         0.608002         5.778222
  |   21: Species H             -2.135636         2.915302         5.313083
  |   22: Species H             -1.122382         0.616017         6.815978
  |   23: Species C             -2.240203         2.215240         7.722097
  |   24: Species H             -2.409375         1.681704         8.665329
  |   25: Species H             -3.127129         2.830938         7.518246
  |   26: Species H             -1.370448         2.873115         7.845234
  |   27: Species N             -3.135459        -0.861535         7.153112
  |   28: Species C             -4.210905        -1.832387         7.240409
  |   29: Species H             -2.271891        -1.042805         7.651479
  |   30: Species H             -4.561641        -1.949710         8.275367
  |   31: Species H             -3.892833        -2.812546         6.859165
  |   32: Species H             -5.037273        -1.461596         6.624557
  |

  | The smallest distance between any two atoms is         1.01339956 AA.
  |
  | The first atom of this pair is atom number                     27 .
  | The second atom of this pair is atom number                    29 .

  Number of empty states per atom not set in control.in - providing a guess from actual geometry.
  | Total number of empty states used during s.c.f. cycle:       71
  If you use a very high smearing, use empty_states (per atom!) in control.in to increase this value.

  Structure-dependent array size parameters: 
  | Maximum number of distinct radial functions  :       40
  | Maximum number of basis functions            :      840
  | Number of Kohn-Sham states (occupied + empty):      129
------------------------------------------------------------

------------------------------------------------------------
          Preparing all fixed parts of the calculation.
------------------------------------------------------------
  Determining machine precision:
    2.225073858507201E-308
  Setting up grids for atomic and cluster calculations.

  Creating wave function, potential, and density for free atoms.

  Species: H

  List of occupied orbitals and eigenvalues:
    n    l              occ      energy [Ha]    energy [eV]
    1    0           1.0000        -0.238382        -6.4867


  Species: C

  List of occupied orbitals and eigenvalues:
    n    l              occ      energy [Ha]    energy [eV]
    1    0           2.0000       -10.041232      -273.2358
    2    0           2.0000        -0.504327       -13.7234
    2    1           2.0000        -0.193750        -5.2722


  Species: N

  List of occupied orbitals and eigenvalues:
    n    l              occ      energy [Ha]    energy [eV]
    1    0           2.0000       -14.129007      -384.4699
    2    0           2.0000        -0.681802       -18.5528
    2    1           3.0000        -0.260543        -7.0897


  Species: O

  List of occupied orbitals and eigenvalues:
    n    l              occ      energy [Ha]    energy [eV]
    1    0           2.0000       -18.898576      -514.2564
    2    0           2.0000        -0.878795       -23.9132
    2    1           4.0000        -0.332075        -9.0362

  Creating fixed part of basis set: Ionic, confined, hydrogenic.
 
  H                    hydrogenic:
 
  List of hydrogenic basis orbitals: 
    n    l      effective z      eigenvalue [eV]  inner max. [A]     outer max. [A]     outer radius [A]   
    2    0         2.100000       -14.9965           0.193243           1.317208           5.373006
    2    1         3.500000       -41.6672           0.602369           0.602369           4.056063
    1    0         0.850000        -9.8292           0.624871           0.624871           5.373006
    2    1         3.700000       -46.5653           0.573622           0.573622           3.910002
    2    0         1.200000        -4.5995           0.334980           2.228188           5.505995
    3    2         7.000000       -74.0753           0.680699           0.680699           3.769201
 
 
  C                    hydrogenic:
 
  List of hydrogenic basis orbitals: 
    n    l      effective z      eigenvalue [eV]  inner max. [A]     outer max. [A]     outer radius [A]   
    2    1         1.700000        -9.8152           1.245706           1.245706           5.401630
    3    2         6.000000       -54.4226           0.792453           0.792453           4.178599
    2    0         4.900000       -81.6681           0.082559           0.562749           3.353238
    4    3         9.800000       -81.6681           0.863254           0.863254           4.028125
    3    1         5.200000       -40.8774           0.305389           1.215618           4.898362
    3    0         4.300000       -27.9508           0.091041           1.610311           5.401630
    5    4        14.400000      -112.8510           0.917666           0.917666           3.883070
    3    2         6.200000       -58.1113           0.763917           0.763917           4.077671
 
 
  N                    hydrogenic:
 
  List of hydrogenic basis orbitals: 
    n    l      effective z      eigenvalue [eV]  inner max. [A]     outer max. [A]     outer radius [A]   
    2    1         1.800000       -11.0118           1.177451           1.177451           5.427479
    3    2         6.800000       -69.9029           0.704619           0.704619           3.854246
    3    0         5.800000       -50.8549           0.067388           1.191934           4.629968
    4    3        10.800000       -99.1854           0.786571           0.786571           3.761152
    3    1         5.800000       -50.8549           0.274880           1.094176           4.518138
    1    0         0.800000        -8.7059           0.662839           0.662839           5.361532
    5    4        16.000000      -139.3222           0.825990           0.825990           3.625711
    3    2         4.900000       -36.2967           0.968267           0.968267           4.862000
 
 
  O                    hydrogenic:
 
  List of hydrogenic basis orbitals: 
    n    l      effective z      eigenvalue [eV]  inner max. [A]     outer max. [A]     outer radius [A]   
    2    1         1.800000       -11.0118           1.178562           1.178562           5.432602
    3    2         7.600000       -87.3182           0.624125           0.624125           3.541477
    3    0         6.400000       -61.9209           0.061167           1.081902           4.306578
    4    3        11.600000      -114.4238           0.731631           0.731631           3.585037
    3    1         6.200000       -58.1113           0.255680           1.030270           4.306578
    3    2         5.600000       -47.4081           0.847233           0.847233           4.413171
    5    4        17.600000      -168.5799           0.749740           0.749740           3.372465
    1    0         0.750000        -7.6499           0.705284           0.705284           5.366593
 

  Adding cutoff potential to free-atom effective potential.
  Creating atomic-like basis functions for current effective potential.

  Species H                   :

  List of atomic basis orbitals and eigenvalues:
    n    l      energy [Ha]    energy [eV]    outer radius [A]
    1    0        -0.238382        -6.4867       5.373006


  Species C                   :

  List of atomic basis orbitals and eigenvalues:
    n    l      energy [Ha]    energy [eV]    outer radius [A]
    1    0       -10.041232      -273.2358       1.934409
    2    0        -0.504327       -13.7234       5.271162
    2    1        -0.193750        -5.2722       5.401630


  Species N                   :

  List of atomic basis orbitals and eigenvalues:
    n    l      energy [Ha]    energy [eV]    outer radius [A]
    1    0       -14.129007      -384.4699       1.637919
    2    0        -0.681802       -18.5528       5.168461
    2    1        -0.260543        -7.0897       5.361532


  Species O                   :

  List of atomic basis orbitals and eigenvalues:
    n    l      energy [Ha]    energy [eV]    outer radius [A]
    1    0       -18.898576      -514.2564       1.415765
    2    0        -0.878795       -23.9132       5.048385
    2    1        -0.332075        -9.0362       5.301386

  Assembling full basis from fixed parts.
  | Species H :   atomic orbital   1 s accepted.
  | Species H :    hydro orbital   2 s accepted.
  | Species H :    hydro orbital   1 s accepted.
  | Species H :    hydro orbital   2 s accepted.
  | Species H :    hydro orbital   2 p accepted.
  | Species H :    hydro orbital   2 p accepted.
  | Species H :    hydro orbital   3 d accepted.
  | Species C :   atomic orbital   1 s accepted.
  | Species C :    hydro orbital   2 s accepted.
  | Species C :   atomic orbital   2 s accepted.
  | Species C :    hydro orbital   3 s accepted.
  | Species C :    hydro orbital   3 p accepted.
  | Species C :   atomic orbital   2 p accepted.
  | Species C :    hydro orbital   2 p accepted.
  | Species C :    hydro orbital   3 d accepted.
  | Species C :    hydro orbital   3 d accepted.
  | Species C :    hydro orbital   4 f accepted.
  | Species C :    hydro orbital   5 g accepted.
  | Species N :   atomic orbital   1 s accepted.
  | Species N :    hydro orbital   3 s accepted.
  | Species N :   atomic orbital   2 s accepted.
  | Species N :    hydro orbital   1 s accepted.
  | Species N :    hydro orbital   3 p accepted.
  | Species N :   atomic orbital   2 p accepted.
  | Species N :    hydro orbital   2 p accepted.
  | Species N :    hydro orbital   3 d accepted.
  | Species N :    hydro orbital   3 d accepted.
  | Species N :    hydro orbital   4 f accepted.
  | Species N :    hydro orbital   5 g accepted.
  | Species O :   atomic orbital   1 s accepted.
  | Species O :    hydro orbital   3 s accepted.
  | Species O :   atomic orbital   2 s accepted.
  | Species O :    hydro orbital   1 s accepted.
  | Species O :    hydro orbital   3 p accepted.
  | Species O :   atomic orbital   2 p accepted.
  | Species O :    hydro orbital   2 p accepted.
  | Species O :    hydro orbital   3 d accepted.
  | Species O :    hydro orbital   3 d accepted.
  | Species O :    hydro orbital   4 f accepted.
  | Species O :    hydro orbital   5 g accepted.
 
  Basis size parameters after reduction:
  | Total number of radial functions:       40
  | Total number of basis functions :      840
 
  Testing on-site integration grid accuracy.
  |  Species  Function  <phi|h_atom|phi> (log., in eV)  <phi|h_atom|phi> (rad., in eV)
           1        1                 -6.4869821809                 -6.4870742227
           1        2                 13.5044133542                 13.5041049177
           1        3                 32.7854418792                 32.7779770519
           1        4                 33.7995553101                 33.7152624900 ***
           1        5                 28.8558651799                 28.8558652046
           1        6                 59.6361831893                 59.6362535845
           1        7                 60.2733718049                 60.2733715484
           2        8               -273.2358277112               -273.2358261765
           2        9                -10.7624923123                -10.7625144012
           2       10                 17.4634079027                 17.4634252127
           2       11                 53.0363661832                 53.0366180446
           2       12                 15.0981351967                 15.0981317714
           2       13                  3.8522181899                  3.8522770949
           2       14                 12.1181835661                 12.1206868578
           2       15                 29.4320778347                 29.4320780959
           2       16                 54.8753777694                 54.8752901936
           2       17                 59.3533975461                 59.3533974833
           2       18                 93.4537491195                 93.4537492066
           3       19               -384.4698526889               -384.4698499465
           3       20                 12.5691022037                 12.5690910168
           3       21                -15.7489097511                -15.7489165588
           3       22                 27.0978334940                 27.0985589490
           3       23                 18.5949116966                 18.5949125562
           3       24                  1.2212828291                  1.2212855301
           3       25                 13.4428926797                 13.4434051125
           3       26                 35.9380614500                 35.9380613666
           3       27                 39.9231532098                 39.9231654735
           3       28                 72.9957335806                 72.9957336833
           3       29                116.4231321147                116.4231321431
           4       30               -514.2564144315               -514.2564099626
           4       31                 15.1726678541                 15.1726530877
           4       32                -21.5447785304                -21.5447874973
           4       33                 14.4944558459                 14.4944698284
           4       34                 20.8882174564                 20.8882178906
           4       35                 -2.4850315908                 -2.4850322289
           4       36                 13.8600193195                 13.8599826966
           4       37                 45.8243383616                 45.8243383675
           4       38                 52.1840606465                 52.1840622440
           4       39                 85.4074185510                 85.4074185819
           4       40                142.0983717302                142.0983717339
 * Note: Onsite integrals marked "***" above are less accurate than
 * onsite_accuracy_threshold =    0.03000 eV. Usually, this is harmless.
 * When in doubt, tighten the "radial" and/or "radial_multiplier" flags to check.

  Preparing densities etc. for the partition functions (integrals / Hartree potential).

  Preparations completed.
  max(cpu_time)          :      0.240 s.
  Wall clock time (cpu1) :      0.238 s.
------------------------------------------------------------

------------------------------------------------------------
          Begin self-consistency loop: Initialization.

          Date     :  20170309, Time     :  160741.894
------------------------------------------------------------

  Initializing index lists of integration centers etc. from given atomic structure:
  | Number of centers in hartree potential         :        32
  | Number of centers in hartree multipole         :        32
  | Number of centers in electron density summation:        32
  | Number of centers in basis integrals           :        32
  | Number of centers in integrals                 :        32
  | Number of centers in hamiltonian               :        32
  Using modified Scalapack Eigenvalue solver (ELPA)
  * Using 32 tasks for Scalapack Eigenvalue solver.
  Detailed listing of tasks and assigned k-points:
  (for non-periodic systems, the "k-point" denotes an internal label only)
   Task     0 k-point     1 on eos085
   Task     1 k-point     1 on eos085
   Task     2 k-point     1 on eos085
   Task     3 k-point     1 on eos085
   Task     4 k-point     1 on eos085
   Task     5 k-point     1 on eos085
   Task     6 k-point     1 on eos085
   Task     7 k-point     1 on eos085
   Task     8 k-point     1 on eos085
   Task     9 k-point     1 on eos085
   Task    10 k-point     1 on eos085
   Task    11 k-point     1 on eos085
   Task    12 k-point     1 on eos085
   Task    13 k-point     1 on eos085
   Task    14 k-point     1 on eos085
   Task    15 k-point     1 on eos085
   Task    16 k-point     1 on eos085
   Task    17 k-point     1 on eos085
   Task    18 k-point     1 on eos085
   Task    19 k-point     1 on eos085
   Task    20 k-point     1 on eos085
   Task    21 k-point     1 on eos085
   Task    22 k-point     1 on eos085
   Task    23 k-point     1 on eos085
   Task    24 k-point     1 on eos085
   Task    25 k-point     1 on eos085
   Task    26 k-point     1 on eos085
   Task    27 k-point     1 on eos085
   Task    28 k-point     1 on eos085
   Task    29 k-point     1 on eos085
   Task    30 k-point     1 on eos085
   Task    31 k-point     1 on eos085
  Tasks:    32 split into      8 X      4 BLACS grid
  Calculating blocksize based on n_basis =          840 max_nprow =            8 max_npcol =            4
  Scalapack blocksize set to:           16
  Required Scalapack workspace - INTEGER:            1 REAL:             1
  Partitioning the integration grid into batches with parallel hashing+maxmin method.
  | Number of batches:     4858
  | Maximal batch size:     200
  | Minimal batch size:      22
  | Average batch size:     108.631
  | Standard deviation of batch sizes:      36.088

  Integration load balanced across    32 MPI tasks.
  Work distribution over tasks is as follows:
  Task     0 has      16509 integration points.
  Task     1 has      16477 integration points.
  Task     2 has      16497 integration points.
  Task     3 has      16488 integration points.
  Task     4 has      16534 integration points.
  Task     5 has      16555 integration points.
  Task     6 has      16484 integration points.
  Task     7 has      16454 integration points.
  Task     8 has      16490 integration points.
  Task     9 has      16443 integration points.
  Task    10 has      16482 integration points.
  Task    11 has      16483 integration points.
  Task    12 has      16446 integration points.
  Task    13 has      16464 integration points.
  Task    14 has      16449 integration points.
  Task    15 has      16560 integration points.
  Task    16 has      16474 integration points.
  Task    17 has      16481 integration points.
  Task    18 has      16530 integration points.
  Task    19 has      16478 integration points.
  Task    20 has      16479 integration points.
  Task    21 has      16505 integration points.
  Task    22 has      16466 integration points.
  Task    23 has      16474 integration points.
  Task    24 has      16487 integration points.
  Task    25 has      16541 integration points.
  Task    26 has      16485 integration points.
  Task    27 has      16493 integration points.
  Task    28 has      16529 integration points.
  Task    29 has      16466 integration points.
  Task    30 has      16471 integration points.
  Task    31 has      16554 integration points.
  Initializing partition tables, free-atom densities, potentials, etc. across the integration grid (initialize_grid_storage).
  | initialize_grid_storage: Actual outermost partition radius vs. multipole_radius_free
  | (-- VB: in principle, multipole_radius_free should be larger, hence this output)
  | Species        1: Confinement radius =              6.000000000000000 AA, multipole_radius_free =              6.071692442739658 AA.
  | Species        1: outer_partition_radius set to              6.071692442739658 AA .
  | Species        2: Confinement radius =              6.000000000000000 AA, multipole_radius_free =              6.029870734432609 AA.
  | Species        2: outer_partition_radius set to              6.029870734432609 AA .
  | Species        3: Confinement radius =              6.000000000000000 AA, multipole_radius_free =              6.058726835495003 AA.
  | Species        3: outer_partition_radius set to              6.058726835495003 AA .
  | Species        4: Confinement radius =              6.000000000000000 AA, multipole_radius_free =              6.064445521808699 AA.
  | Species        4: outer_partition_radius set to              6.064445521808699 AA .
  | Original list of interatomic distances with          32 x         32 entries is created.
  | Net number of integration points:   527728
  | of which are non-zero points    :   415181
  Obtaining max. number of non-zero basis functions in each batch (get_n_compute_maxes).
  | Maximal number of non-zero basis functions:      757 in task     0
  | Maximal number of non-zero basis functions:      735 in task     1
  | Maximal number of non-zero basis functions:      744 in task     2
  | Maximal number of non-zero basis functions:      739 in task     3
  | Maximal number of non-zero basis functions:      739 in task     4
  | Maximal number of non-zero basis functions:      753 in task     5
  | Maximal number of non-zero basis functions:      738 in task     6
  | Maximal number of non-zero basis functions:      728 in task     7
  | Maximal number of non-zero basis functions:      741 in task     8
  | Maximal number of non-zero basis functions:      730 in task     9
  | Maximal number of non-zero basis functions:      738 in task    10
  | Maximal number of non-zero basis functions:      734 in task    11
  | Maximal number of non-zero basis functions:      734 in task    12
  | Maximal number of non-zero basis functions:      722 in task    13
  | Maximal number of non-zero basis functions:      735 in task    14
  | Maximal number of non-zero basis functions:      720 in task    15
  | Maximal number of non-zero basis functions:      725 in task    16
  | Maximal number of non-zero basis functions:      750 in task    17
  | Maximal number of non-zero basis functions:      737 in task    18
  | Maximal number of non-zero basis functions:      752 in task    19
  | Maximal number of non-zero basis functions:      744 in task    20
  | Maximal number of non-zero basis functions:      737 in task    21
  | Maximal number of non-zero basis functions:      733 in task    22
  | Maximal number of non-zero basis functions:      735 in task    23
  | Maximal number of non-zero basis functions:      736 in task    24
  | Maximal number of non-zero basis functions:      740 in task    25
  | Maximal number of non-zero basis functions:      751 in task    26
  | Maximal number of non-zero basis functions:      730 in task    27
  | Maximal number of non-zero basis functions:      738 in task    28
  | Maximal number of non-zero basis functions:      737 in task    29
  | Maximal number of non-zero basis functions:      741 in task    30
  | Maximal number of non-zero basis functions:      726 in task    31
  Selecting the method for density update.
  Loop over occupied states selected for charge density update.
  Integrating Hamiltonian matrix: batch-based integration.
  Time summed over all CPUs for integration: real work       20.506 s, elapsed       21.178 s
  Integrating overlap matrix.
  Time summed over all CPUs for integration: real work       12.435 s, elapsed       12.709 s
  Deallocating overlap matrix.

  Updating Kohn-Sham eigenvalues, eigenvectors, occupation numbers, and Fermi level.
  Solving generalized eigenproblem
  Solving real symmetric generalised eigenvalue problem by standard ScaLAPACK.
  Transforming overlap matrix with ScaLAPACK and checking for singularities.
  : Overlap matrix is nonsingular, using Cholesky decomposition
  | Lowest eigenvalue:  0.956446E-04
  Factoring overlap matrix with Cholesky decomposition
  Using Cholesky factor for transformation
  Using 1-stage real ELPA solver
  Determining occupation numbers for Kohn-Sham eigenstates.
  | Chemical potential (Fermi level) in eV                 : -.96405376E+01
  | Error in electron count due to remaining E_F inaccuracy: 0.00000000E+00
  | Maximum occupation number of highest empty state:  0.00E+00

  Writing Kohn-Sham eigenvalues.

  State    Occupation    Eigenvalue [Ha]    Eigenvalue [eV]
      1       2.00000         -18.975504         -516.34973
      2       2.00000         -18.975484         -516.34918
      3       2.00000         -18.974949         -516.33463
      4       2.00000         -14.255756         -387.91887
      5       2.00000         -14.253208         -387.84951
      6       2.00000         -14.252508         -387.83047
      7       2.00000         -10.170949         -276.76560
      8       2.00000         -10.170918         -276.76476
      9       2.00000         -10.170660         -276.75774
     10       2.00000         -10.166728         -276.65075
     11       2.00000         -10.148459         -276.15362
     12       2.00000         -10.147429         -276.12560
     13       2.00000         -10.135298         -275.79549
     14       2.00000         -10.134421         -275.77163
     15       2.00000         -10.133007         -275.73316
     16       2.00000          -1.136976          -30.93869
     17       2.00000          -1.132638          -30.82064
     18       2.00000          -1.129960          -30.74777
     19       2.00000          -1.016440          -27.65875
     20       2.00000          -1.013390          -27.57573
     21       2.00000          -1.011138          -27.51446
     22       2.00000          -0.887842          -24.15940
     23       2.00000          -0.877125          -23.86779
     24       2.00000          -0.840278          -22.86513
     25       2.00000          -0.819836          -22.30887
     26       2.00000          -0.770256          -20.95973
     27       2.00000          -0.756442          -20.58384
     28       2.00000          -0.705095          -19.18662
     29       2.00000          -0.687250          -18.70101
     30       2.00000          -0.664716          -18.08785
     31       2.00000          -0.643997          -17.52405
     32       2.00000          -0.622528          -16.93984
     33       2.00000          -0.613770          -16.70153
     34       2.00000          -0.600060          -16.32846
     35       2.00000          -0.594273          -16.17099
     36       2.00000          -0.586724          -15.96558
     37       2.00000          -0.564917          -15.37216
     38       2.00000          -0.562089          -15.29523
     39       2.00000          -0.557584          -15.17263
     40       2.00000          -0.553644          -15.06542
     41       2.00000          -0.549692          -14.95789
     42       2.00000          -0.537794          -14.63412
     43       2.00000          -0.531795          -14.47087
     44       2.00000          -0.528286          -14.37539
     45       2.00000          -0.523083          -14.23380
     46       2.00000          -0.514882          -14.01064
     47       2.00000          -0.512349          -13.94173
     48       2.00000          -0.504062          -13.71623
     49       2.00000          -0.499113          -13.58156
     50       2.00000          -0.484690          -13.18909
     51       2.00000          -0.481934          -13.11409
     52       2.00000          -0.476894          -12.97696
     53       2.00000          -0.410840          -11.17952
     54       2.00000          -0.408928          -11.12749
     55       2.00000          -0.402161          -10.94337
     56       2.00000          -0.385627          -10.49343
     57       2.00000          -0.384482          -10.46228
     58       2.00000          -0.378708          -10.30518
     59       0.00000          -0.169434           -4.61054
     60       0.00000          -0.160929           -4.37909
     61       0.00000          -0.151670           -4.12715
     62       0.00000          -0.086806           -2.36210
     63       0.00000          -0.066842           -1.81887
     64       0.00000          -0.056592           -1.53994
     65       0.00000          -0.049497           -1.34689
     66       0.00000          -0.045671           -1.24278
     67       0.00000          -0.041555           -1.13078
     68       0.00000          -0.035439           -0.96434
     69       0.00000          -0.027618           -0.75153
     70       0.00000          -0.023341           -0.63515
     71       0.00000          -0.020514           -0.55821
     72       0.00000          -0.015786           -0.42955
     73       0.00000          -0.014012           -0.38130
     74       0.00000          -0.006840           -0.18613
     75       0.00000          -0.003100           -0.08435
     76       0.00000          -0.000710           -0.01932
     77       0.00000           0.001678            0.04567
     78       0.00000           0.002934            0.07984
     79       0.00000           0.006500            0.17687
     80       0.00000           0.013638            0.37111
     81       0.00000           0.017251            0.46942
     82       0.00000           0.025989            0.70719
     83       0.00000           0.036422            0.99110
     84       0.00000           0.041213            1.12145
     85       0.00000           0.044488            1.21058
     86       0.00000           0.049164            1.33783
     87       0.00000           0.052140            1.41881
     88       0.00000           0.057762            1.57180
     89       0.00000           0.065833            1.79141
     90       0.00000           0.072660            1.97717
     91       0.00000           0.076964            2.09430
     92       0.00000           0.079800            2.17147
     93       0.00000           0.086420            2.35161
     94       0.00000           0.090114            2.45213
     95       0.00000           0.096751            2.63272
     96       0.00000           0.099543            2.70869
     97       0.00000           0.107470            2.92442
     98       0.00000           0.114722            3.12174
     99       0.00000           0.116359            3.16629
    100       0.00000           0.122214            3.32561
    101       0.00000           0.132370            3.60197
    102       0.00000           0.136896            3.72512
    103       0.00000           0.139223            3.78846
    104       0.00000           0.141500            3.85040
    105       0.00000           0.149749            4.07487
    106       0.00000           0.151307            4.11728
    107       0.00000           0.160799            4.37558
    108       0.00000           0.163406            4.44651
    109       0.00000           0.164296            4.47072
    110       0.00000           0.168460            4.58404
    111       0.00000           0.174581            4.75060
    112       0.00000           0.177275            4.82391
    113       0.00000           0.180696            4.91698
    114       0.00000           0.186664            5.07938
    115       0.00000           0.191556            5.21250
    116       0.00000           0.195236            5.31265
    117       0.00000           0.199488            5.42833
    118       0.00000           0.206554            5.62063
    119       0.00000           0.209643            5.70467
    120       0.00000           0.210986            5.74123
    121       0.00000           0.217115            5.90801
    122       0.00000           0.219967            5.98560
    123       0.00000           0.223355            6.07779
    124       0.00000           0.229849            6.25452
    125       0.00000           0.235177            6.39949
    126       0.00000           0.246370            6.70406
    127       0.00000           0.256689            6.98486
    128       0.00000           0.259658            7.06565
    129       0.00000           0.268069            7.29454

  Highest occupied state (VBM) at    -10.30517918 eV
  | Occupation number:      2.00000000

  Lowest unoccupied state (CBM) at    -4.61054307 eV
  | Occupation number:      0.00000000

  Overall HOMO-LUMO gap:      5.69463611 eV.
  Calculating total energy contributions from superposition of free atom densities.

  Total energy components:
  | Sum of eigenvalues            :        -437.85912558 Ha      -11914.75302291 eV
  | XC energy correction          :         -98.80863864 Ha       -2688.71985785 eV
  | XC potential correction       :         127.00505233 Ha        3455.98331241 eV
  | Free-atom electrostatic energy:        -333.62579286 Ha       -9078.41972850 eV
  | Hartree energy correction     :           0.00000000 Ha           0.00000000 eV
  | vdW energy correction         :           0.00000000 Ha           0.00000000 eV
  | Entropy correction            :          -0.00000000 Ha          -0.00000000 eV
  | ---------------------------
  | Total energy                  :        -743.28850474 Ha      -20225.90929686 eV
  | Total energy, T -> 0          :        -743.28850474 Ha      -20225.90929686 eV  <-- do not rely on this value for anything but (periodic) metals
  | Electronic free energy        :        -743.28850474 Ha      -20225.90929686 eV

  Derived energy quantities:
  | Kinetic energy                :         735.13593948 Ha       20004.06670907 eV
  | Electrostatic energy          :       -1379.61580559 Ha      -37541.25614807 eV
  | Energy correction for multipole
  | error in Hartree potential    :           0.00000000 Ha           0.00000000 eV
  | Sum of eigenvalues per atom                           :        -372.33603197 eV
  | Total energy (T->0) per atom                          :        -632.05966553 eV  <-- do not rely on this value for anything but (periodic) metals
  | Electronic free energy per atom                       :        -632.05966553 eV
  Initialize hartree_potential_storage
  Max. number of atoms included in rho_multipole:           32

  End scf initialization - timings             :  max(cpu_time)    wall_clock(cpu1)
  | Time for scf. initialization               :        1.772 s           1.769 s
  | Boundary condition initialization          :        0.000 s           0.000 s
  | Integration                                :        1.084 s           1.082 s
  | Solution of K.-S. eqns.                    :        0.076 s           0.075 s
  | Grid partitioning                          :        0.280 s           0.277 s
  | Preloading free-atom quantities on grid    :        0.028 s           0.028 s
  | Free-atom superposition energy             :        0.040 s           0.038 s
  | Total energy evaluation                    :        0.004 s           0.001 s
------------------------------------------------------------

------------------------------------------------------------
          Begin self-consistency iteration #    1

  Date     :  20170309, Time     :  160743.663
------------------------------------------------------------
  Evaluating new KS density.
  Integration grid: deviation in total charge (<rho> - N_e) =   4.263256E-14
  Pulay mixing of updated and previous charge densities.

  Evaluating partitioned Hartree potential by multipole expansion.
  | Analytical far-field extrapolation by fixed multipoles:
  | Hartree multipole sum: apparent total charge =  -0.298762E-04
  Summing up the Hartree potential.
  Time summed over all CPUs for potential: real work        9.475 s, elapsed        9.810 s
  | RMS charge density error from multipole expansion :   0.105848E-01

  Integrating Hamiltonian matrix: batch-based integration.
  Time summed over all CPUs for integration: real work       20.333 s, elapsed       20.934 s

  Updating Kohn-Sham eigenvalues, eigenvectors, occupation numbers, and Fermi level.
  Solving generalized eigenproblem
  Solving real symmetric generalised eigenvalue problem by standard ScaLAPACK.
  Using Cholesky factor for transformation
  Using 2-stage real ELPA solver
  K-Point:    1, Trafo times: 1-stage=     0.021 s, 2-stage=     0.019 s ==> Using 2-stage solver
  Determining occupation numbers for Kohn-Sham eigenstates.
  | Chemical potential (Fermi level) in eV                 : -.23366332E+01
  | Error in electron count due to remaining E_F inaccuracy: 0.00000000E+00
  | Maximum occupation number of highest empty state:  0.00E+00

  Writing Kohn-Sham eigenvalues.

  State    Occupation    Eigenvalue [Ha]    Eigenvalue [eV]
      1       2.00000         -18.621379         -506.71351
      2       2.00000         -18.610199         -506.40929
      3       2.00000         -18.595069         -505.99758
      4       2.00000         -14.002688         -381.03251
      5       2.00000         -13.983680         -380.51528
      6       2.00000         -13.972696         -380.21641
      7       2.00000         -10.059741         -273.73949
      8       2.00000         -10.050437         -273.48631
      9       2.00000         -10.032318         -272.99327
     10       2.00000          -9.978052         -271.51661
     11       2.00000          -9.959578         -271.01391
     12       2.00000          -9.892005         -269.17515
     13       2.00000          -9.852076         -268.08862
     14       2.00000          -9.834078         -267.59889
     15       2.00000          -9.830223         -267.49397
     16       2.00000          -0.969925          -26.39301
     17       2.00000          -0.957088          -26.04368
     18       2.00000          -0.935818          -25.46491
     19       2.00000          -0.872152          -23.73245
     20       2.00000          -0.865152          -23.54197
     21       2.00000          -0.852167          -23.18865
     22       2.00000          -0.742552          -20.20587
     23       2.00000          -0.728001          -19.80991
     24       2.00000          -0.682361          -18.56799
     25       2.00000          -0.673065          -18.31503
     26       2.00000          -0.623916          -16.97762
     27       2.00000          -0.622228          -16.93169
     28       2.00000          -0.573913          -15.61698
     29       2.00000          -0.566425          -15.41320
     30       2.00000          -0.527527          -14.35474
     31       2.00000          -0.518020          -14.09605
     32       2.00000          -0.488484          -13.29232
     33       2.00000          -0.481010          -13.08894
     34       2.00000          -0.460321          -12.52597
     35       2.00000          -0.450410          -12.25627
     36       2.00000          -0.435466          -11.84963
     37       2.00000          -0.425951          -11.59073
     38       2.00000          -0.411835          -11.20660
     39       2.00000          -0.404992          -11.02040
     40       2.00000          -0.403293          -10.97417
     41       2.00000          -0.396081          -10.77790
     42       2.00000          -0.390022          -10.61303
     43       2.00000          -0.387807          -10.55275
     44       2.00000          -0.377584          -10.27460
     45       2.00000          -0.368997          -10.04093
     46       2.00000          -0.364595           -9.92114
     47       2.00000          -0.359063           -9.77061
     48       2.00000          -0.351768           -9.57211
     49       2.00000          -0.345706           -9.40715
     50       2.00000          -0.339219           -9.23062
     51       2.00000          -0.334327           -9.09750
     52       2.00000          -0.319228           -8.68664
     53       2.00000          -0.242946           -6.61089
     54       2.00000          -0.237280           -6.45672
     55       2.00000          -0.227291           -6.18491
     56       2.00000          -0.218778           -5.95326
     57       2.00000          -0.204370           -5.56119
     58       2.00000          -0.187700           -5.10756
     59       0.00000          -0.057080           -1.55324
     60       0.00000          -0.052709           -1.43429
     61       0.00000          -0.038971           -1.06046
     62       0.00000          -0.024650           -0.67077
     63       0.00000          -0.023957           -0.65191
     64       0.00000          -0.014482           -0.39406
     65       0.00000          -0.012986           -0.35336
     66       0.00000           0.001472            0.04005
     67       0.00000           0.009057            0.24646
     68       0.00000           0.012670            0.34476
     69       0.00000           0.021316            0.58003
     70       0.00000           0.025979            0.70693
     71       0.00000           0.035856            0.97569
     72       0.00000           0.040728            1.10826
     73       0.00000           0.045971            1.25093
     74       0.00000           0.049736            1.35338
     75       0.00000           0.053582            1.45803
     76       0.00000           0.054991            1.49638
     77       0.00000           0.058965            1.60452
     78       0.00000           0.072586            1.97517
     79       0.00000           0.074229            2.01989
     80       0.00000           0.075426            2.05244
     81       0.00000           0.078973            2.14898
     82       0.00000           0.096205            2.61787
     83       0.00000           0.100345            2.73054
     84       0.00000           0.103354            2.81241
     85       0.00000           0.108858            2.96216
     86       0.00000           0.117129            3.18724
     87       0.00000           0.120518            3.27948
     88       0.00000           0.126190            3.43380
     89       0.00000           0.130345            3.54688
     90       0.00000           0.133838            3.64191
     91       0.00000           0.138469            3.76794
     92       0.00000           0.141133            3.84042
     93       0.00000           0.148834            4.04997
     94       0.00000           0.160643            4.37132
     95       0.00000           0.165410            4.50104
     96       0.00000           0.167646            4.56187
     97       0.00000           0.175623            4.77895
     98       0.00000           0.187018            5.08903
     99       0.00000           0.190311            5.17861
    100       0.00000           0.196804            5.35532
    101       0.00000           0.198758            5.40847
    102       0.00000           0.202396            5.50747
    103       0.00000           0.204583            5.56698
    104       0.00000           0.207750            5.65315
    105       0.00000           0.208959            5.68606
    106       0.00000           0.213109            5.79898
    107       0.00000           0.219569            5.97477
    108       0.00000           0.228384            6.21465
    109       0.00000           0.230144            6.26255
    110       0.00000           0.233269            6.34757
    111       0.00000           0.235949            6.42049
    112       0.00000           0.240632            6.54794
    113       0.00000           0.243099            6.61507
    114       0.00000           0.249120            6.77891
    115       0.00000           0.250832            6.82549
    116       0.00000           0.258627            7.03759
    117       0.00000           0.265739            7.23114
    118       0.00000           0.267114            7.26853
    119       0.00000           0.273320            7.43741
    120       0.00000           0.274265            7.46313
    121       0.00000           0.287378            7.81995
    122       0.00000           0.288276            7.84439
    123       0.00000           0.295118            8.03056
    124       0.00000           0.297016            8.08222
    125       0.00000           0.309673            8.42664
    126       0.00000           0.315084            8.57387
    127       0.00000           0.327913            8.92296
    128       0.00000           0.330433            8.99153
    129       0.00000           0.337041            9.17135

  Highest occupied state (VBM) at     -5.10756428 eV
  | Occupation number:      2.00000000

  Lowest unoccupied state (CBM) at    -1.55323846 eV
  | Occupation number:      0.00000000

  Overall HOMO-LUMO gap:      3.55432583 eV.

  Total energy components:
  | Sum of eigenvalues            :        -417.19811251 Ha      -11352.53825222 eV
  | XC energy correction          :        -100.75089887 Ha       -2741.57144786 eV
  | XC potential correction       :         129.52452654 Ha        3524.54169396 eV
  | Free-atom electrostatic energy:        -333.62579286 Ha       -9078.41972850 eV
  | Hartree energy correction     :         -20.66469780 Ha        -562.31503735 eV
  | vdW energy correction         :           0.00000000 Ha           0.00000000 eV
  | Entropy correction            :          -0.00000000 Ha          -0.00000000 eV
  | ---------------------------
  | Total energy                  :        -742.71497549 Ha      -20210.30277198 eV
  | Total energy, T -> 0          :        -742.71497549 Ha      -20210.30277198 eV  <-- do not rely on this value for anything but (periodic) metals
  | Electronic free energy        :        -742.71497549 Ha      -20210.30277198 eV

  Derived energy quantities:
  | Kinetic energy                :         744.05297258 Ha       20246.71152532 eV
  | Electrostatic energy          :       -1386.01704920 Ha      -37715.44284944 eV
  | Energy correction for multipole
  | error in Hartree potential    :          -0.04095762 Ha          -1.11451366 eV
  | Sum of eigenvalues per atom                           :        -354.76682038 eV
  | Total energy (T->0) per atom                          :        -631.57196162 eV  <-- do not rely on this value for anything but (periodic) metals
  | Electronic free energy per atom                       :        -631.57196162 eV

  Self-consistency convergence accuracy:
  | Change of charge density      :  0.9036E+00
  | Change of sum of eigenvalues  :  0.5622E+03 eV
  | Change of total energy        :  0.1561E+02 eV

  End self-consistency iteration #     1       :  max(cpu_time)    wall_clock(cpu1)
  | Time for this iteration                    :        1.484 s           1.486 s
  | Charge density update                      :        0.472 s           0.467 s
[...]
   ----------------------------------------------------------------
   Total forces(  20)            : -0.108127E-02 -0.129016E-03  0.453125E-03
  atom #   21
   Hellmann-Feynman              :  0.756386E-02 -0.584376E-01 -0.443790E-01
   Ionic forces                  :  0.000000E+00  0.000000E+00  0.000000E+00
   Multipole                     :  0.754832E-02  0.660078E-03  0.377982E-01
   Pulay + GGA                   : -0.198527E-01  0.640569E-01  0.180195E-01
   Van der Waals                 :  0.440065E-02 -0.659530E-02 -0.108643E-01
   ----------------------------------------------------------------
   Total forces(  21)            : -0.339851E-03 -0.315907E-03  0.574422E-03
  atom #   22
   Hellmann-Feynman              : -0.276598E-01  0.646033E-01 -0.323074E-01
   Ionic forces                  :  0.000000E+00  0.000000E+00  0.000000E+00
   Multipole                     : -0.771038E-02 -0.452527E-02 -0.649795E-02
   Pulay + GGA                   :  0.363017E-01 -0.614052E-01  0.266283E-01
   Van der Waals                 : -0.135188E-02  0.138979E-02  0.125408E-01
   ----------------------------------------------------------------
   Total forces(  22)            : -0.420410E-03  0.625624E-04  0.363821E-03
  atom #   23
   Hellmann-Feynman              : -0.995967E-01  0.789381E+00  0.728955E+00
   Ionic forces                  :  0.000000E+00  0.000000E+00  0.000000E+00
   Multipole                     :  0.482677E-01 -0.179585E+00 -0.158449E+00
   Pulay + GGA                   :  0.431399E-01 -0.605689E+00 -0.567369E+00
   Van der Waals                 :  0.844933E-02 -0.452101E-02 -0.412628E-02
   ----------------------------------------------------------------
   Total forces(  23)            :  0.260306E-03 -0.413893E-03 -0.989436E-03
  atom #   24
   Hellmann-Feynman              :  0.499965E-02  0.180302E-02 -0.468348E-01
   Ionic forces                  :  0.000000E+00  0.000000E+00  0.000000E+00
   Multipole                     : -0.153661E-02  0.358875E-01 -0.452296E-02
   Pulay + GGA                   : -0.211106E-02 -0.372397E-01  0.520220E-01
   Van der Waals                 : -0.171609E-02 -0.692804E-03 -0.677138E-03
   ----------------------------------------------------------------
   Total forces(  24)            : -0.364108E-03 -0.242038E-03 -0.128733E-04
  atom #   25
   Hellmann-Feynman              :  0.132451E-01 -0.460692E-01 -0.110256E-01
   Ionic forces                  :  0.000000E+00  0.000000E+00  0.000000E+00
   Multipole                     :  0.254299E-01 -0.368862E-03  0.156026E-01
   Pulay + GGA                   : -0.359668E-01  0.448751E-01 -0.127476E-01
   Van der Waals                 : -0.273605E-02  0.156265E-02  0.822989E-02
   ----------------------------------------------------------------
   Total forces(  25)            : -0.278376E-04 -0.245955E-06  0.592502E-04
  atom #   26
   Hellmann-Feynman              : -0.122543E-01 -0.404475E-01 -0.355392E-01
   Ionic forces                  :  0.000000E+00  0.000000E+00  0.000000E+00
   Multipole                     : -0.315466E-01  0.393416E-02  0.172501E-01
   Pulay + GGA                   :  0.443341E-01  0.358877E-01  0.124137E-01
   Van der Waals                 : -0.832921E-03  0.569607E-03  0.642579E-02
   ----------------------------------------------------------------
   Total forces(  26)            : -0.299647E-03 -0.560517E-04  0.550367E-03
  atom #   27
   Hellmann-Feynman              :  0.630668E+00  0.797606E+00 -0.531712E+00
   Ionic forces                  :  0.000000E+00  0.000000E+00  0.000000E+00
   Multipole                     : -0.123197E+00  0.145546E+00 -0.112992E+00
   Pulay + GGA                   : -0.514869E+00 -0.949614E+00  0.651894E+00
   Van der Waals                 :  0.634702E-02  0.635758E-02 -0.841429E-02
   ----------------------------------------------------------------
   Total forces(  27)            : -0.105066E-02 -0.104063E-03 -0.122422E-02
  atom #   28
   Hellmann-Feynman              : -0.197143E+01 -0.141253E+01 -0.577651E-01
   Ionic forces                  :  0.000000E+00  0.000000E+00  0.000000E+00
   Multipole                     :  0.140054E+00  0.116923E+00 -0.127129E-01
   Pulay + GGA                   :  0.182248E+01  0.129181E+01  0.718705E-01
   Van der Waals                 :  0.111868E-01  0.587148E-02 -0.150459E-02
   ----------------------------------------------------------------
   Total forces(  28)            :  0.229273E-02  0.207849E-02 -0.112088E-03
  atom #   29
   Hellmann-Feynman              : -0.246815E-01  0.746588E-02 -0.226995E-01
   Ionic forces                  :  0.000000E+00  0.000000E+00  0.000000E+00
   Multipole                     : -0.381884E-01 -0.184455E-01  0.123229E-03
   Pulay + GGA                   :  0.573287E-01 -0.333352E-02  0.302847E-01
   Van der Waals                 :  0.531499E-02  0.132913E-01 -0.773631E-02
   ----------------------------------------------------------------
   Total forces(  29)            : -0.226232E-03 -0.102193E-02 -0.278952E-04
  atom #   30
   Hellmann-Feynman              :  0.229635E-01  0.315485E-01 -0.287382E-01
   Ionic forces                  :  0.000000E+00  0.000000E+00  0.000000E+00
   Multipole                     : -0.587097E-03 -0.171578E-01 -0.317726E-01
   Pulay + GGA                   : -0.204490E-01 -0.173653E-01  0.623900E-01
   Van der Waals                 : -0.190814E-02  0.338106E-02 -0.179802E-02
   ----------------------------------------------------------------
   Total forces(  30)            :  0.192414E-04  0.406496E-03  0.811581E-04
  atom #   31
   Hellmann-Feynman              :  0.901551E-02  0.470169E-01  0.163523E-02
   Ionic forces                  :  0.000000E+00  0.000000E+00  0.000000E+00
   Multipole                     : -0.251484E-01  0.136085E-01  0.187344E-01
   Pulay + GGA                   :  0.168541E-01 -0.636113E-01 -0.159322E-01
   Van der Waals                 : -0.742160E-03  0.298630E-02 -0.415448E-02
   ----------------------------------------------------------------
   Total forces(  31)            : -0.209599E-04  0.354724E-06  0.282896E-03
  atom #   32
   Hellmann-Feynman              :  0.530302E-01  0.417348E-01  0.188997E-03
   Ionic forces                  :  0.000000E+00  0.000000E+00  0.000000E+00
   Multipole                     : -0.247732E-02 -0.424631E-01  0.270465E-01
   Pulay + GGA                   : -0.533165E-01  0.107815E-02 -0.278765E-01
   Van der Waals                 :  0.287908E-02 -0.563195E-03  0.644810E-03
   ----------------------------------------------------------------
   Total forces(  32)            :  0.115422E-03 -0.213335E-03  0.378513E-05

  Timings for VdW correction (Tkatchenko-Scheffler 2009 or later):
  | CPU time:        0.120 s, Wall clock time:        0.121 s.
  Removing unitary transformations (pure translations, rotations) from forces on atoms.
  Atomic forces before filtering:
  | Net force on center of mass :   0.287816E-03 -0.794560E-03  0.671608E-03 eV/A
  | Net torque on center of mass:   0.864698E-04  0.785747E-03 -0.122805E-02 eV
  Atomic forces after filtering:
  | Net force on center of mass :  -0.762233E-18  0.522674E-18  0.160613E-18 eV/A
  | Net torque on center of mass:   0.921958E-19  0.230489E-18  0.507077E-18 eV

  Energy and forces in a compact form:
  | Total energy uncorrected      :         -0.202084609793095E+05 eV
  | Total energy corrected        :         -0.202084609793095E+05 eV  <-- do not rely on this value for anything but (periodic) metals
  | Electronic free energy        :         -0.202084609793095E+05 eV
  Total atomic forces (unitary forces cleaned) [eV/Ang]:
  |   1          0.157468668080070E-03         -0.387948601461714E-03          0.834251392784383E-03
  |   2          0.743729534955279E-03          0.616685272485907E-03         -0.177623678679957E-02
  |   3         -0.773140667902900E-03         -0.660388991492627E-03          0.442227299773524E-03
  |   4          0.486675099622911E-05          0.697192458212611E-04         -0.281170686301160E-03
  |   5         -0.213969474982447E-03          0.300914978553303E-03         -0.494453386597209E-04
  |   6         -0.357342756598307E-03          0.978901397738307E-04         -0.352652143662505E-03
  |   7         -0.493487805086291E-03         -0.311218820253382E-03          0.956945919807166E-03
  |   8          0.811386135231453E-03          0.196369463773241E-02          0.129447146438477E-02
  |   9          0.128841339856757E-02         -0.296087157198629E-02         -0.337028828167540E-02
  |  10          0.359432412476803E-03          0.296272364551846E-03          0.156138827050258E-02
  |  11          0.253589008880347E-03         -0.465149913517661E-03         -0.140543801343415E-03
  |  12          0.109150892493334E-04          0.330848696976446E-03         -0.249380564285669E-03
  |  13         -0.174887197572935E-02         -0.237449968852356E-03         -0.732744423418877E-03
  |  14          0.380838045020413E-04         -0.211329306177155E-04          0.503042109660576E-03
  |  15          0.154894288935825E-04          0.332882296708406E-03          0.161249661334468E-03
  |  16          0.144095750887636E-04          0.100705802772822E-03          0.203646448155564E-04
  |  17          0.422722547405872E-04          0.274535186897574E-04          0.881384257078433E-03
  |  18         -0.172574450289931E-02          0.130198289877399E-03          0.612095399982340E-03
  |  19          0.290946692507476E-02          0.474251821466258E-03         -0.638324532397703E-05
  |  20         -0.109610181489542E-02         -0.124093137813986E-03          0.425920533539324E-03
  |  21         -0.374949177188489E-03         -0.292963128133594E-03          0.545653752001955E-03
  |  22         -0.437515112986359E-03          0.987318880443397E-04          0.343154906714254E-03
  |  23          0.226558524749885E-03         -0.385668571998563E-03         -0.101661128220554E-02
  |  24         -0.394937085947572E-03         -0.212926189712012E-03         -0.390232251192349E-04
  |  25         -0.668231058776633E-04          0.192837102069830E-04          0.286038257524319E-04
  |  26         -0.339712293992325E-03         -0.194989352718868E-04          0.523326735065775E-03
  |  27         -0.105487302023437E-02         -0.855563848674442E-04         -0.124531437698715E-02
  |  28          0.229727499364981E-02          0.208731572883131E-02         -0.132940386407964E-03
  |  29         -0.229829470343453E-03         -0.994175334485042E-03         -0.466933476801746E-04
  |  30          0.226751718174051E-04          0.414778863944214E-03          0.598677462859084E-04
  |  31         -0.658587915035401E-05          0.111256135614743E-04          0.265256158893088E-03
  |  32          0.117852466860690E-03         -0.213710389533690E-03         -0.197761885061755E-04

  ------------------------------------ 
  Start decomposition of the XC Energy 
  ------------------------------------ 
  Hartree-Fock part   :          0.000000000 Ha              0.000000000 eV
  ------------------------------------ 
  X Energy            :        -96.980795842 Ha          -2638.981724769 eV
  C Energy GGA        :         -3.866720333 Ha           -105.218813746 eV
  Total XC Energy     :       -100.847516175 Ha          -2744.200538515 eV
  LDA X and C from self-consistent density 
  X Energy LDA        :        -87.993908151 Ha          -2394.436068347 eV
  C Energy LDA        :         -7.531206369 Ha           -204.934552254 eV
  ------------------------------------ 
  End decomposition of the XC Energy 
  ------------------------------------ 
   
  ESP charge fitting starts.
  | Calculation :  00000001  of  00000001
  | Full density
  Computing multipole expansion for total density.
  Generating points for esp charges.
  Partitioning the integration grid into batches with parallel hashing+maxmin method.
  | Number of batches:     3865
  | Maximal batch size:     199
  | Minimal batch size:      55
  | Average batch size:     126.115
  | Standard deviation of batch sizes:      17.837

  Integration load balanced across    32 MPI tasks.
  Work distribution over tasks is as follows:
  Initializing partition tables, free-atom densities, potentials, etc. across the integration grid (initialize_grid_storage).
  | Original list of interatomic distances with          32 x         32 entries is created.
  | Net number of integration points:   487433
  | of which are non-zero points    :   487433
  Summing up potential from multipole expanded  density.
  Summing up the Hartree potential.
  Time summed over all CPUs for potential: real work        6.238 s, elapsed        6.413 s
  Fitting esp charges to potential.
  |
  | ESP charges fitted to the electrostatic potential :
  |
  | Atom         1: C, ESP charge:      0.65241449
  |
  | Atom         2: C, ESP charge:     -0.82741346
  |
  | Atom         3: O, ESP charge:      0.58503371
  |
  | Atom         4: H, ESP charge:     -0.18011601
  |
  | Atom         5: H, ESP charge:     -0.18097534
  |
  | Atom         6: H, ESP charge:     -0.15660450
  |
  | Atom         7: N, ESP charge:      0.88997731
  |
  | Atom         8: C, ESP charge:     -0.96119210
  |
  | Atom         9: C, ESP charge:     -0.23936034
  |
  | Atom        10: O, ESP charge:      0.45812652
  |
  | Atom        11: H, ESP charge:     -0.37298950
  |
  | Atom        12: H, ESP charge:      0.24414704
  |
  | Atom        13: C, ESP charge:      0.44723712
  |
  | Atom        14: H, ESP charge:     -0.16848140
  |
  | Atom        15: H, ESP charge:     -0.10347046
  |
  | Atom        16: H, ESP charge:     -0.03011967
  |
  | Atom        17: N, ESP charge:      0.50676108
  |
  | Atom        18: C, ESP charge:      0.00210621
  |
  | Atom        19: C, ESP charge:     -0.44662840
  |
  | Atom        20: O, ESP charge:      0.47682691
  |
  | Atom        21: H, ESP charge:     -0.35792678
  |
  | Atom        22: H, ESP charge:     -0.15033895
  |
  | Atom        23: C, ESP charge:      0.53350708
  |
  | Atom        24: H, ESP charge:     -0.13232828
  |
  | Atom        25: H, ESP charge:     -0.18597724
  |
  | Atom        26: H, ESP charge:     -0.17342612
  |
  | Atom        27: N, ESP charge:      0.12792788
  |
  | Atom        28: C, ESP charge:      0.30535804
  |
  | Atom        29: H, ESP charge:     -0.19194479
  |
  | Atom        30: H, ESP charge:     -0.10771363
  |
  | Atom        31: H, ESP charge:     -0.11734144
  |
  | Atom        32: H, ESP charge:     -0.14507499

  RRMS:       0.00188399

  Done.

------------------------------------------------------------------------------
  Final output of selected total energy values:

  The following output summarizes some interesting total energy values
  at the end of a run (AFTER all relaxation, molecular dynamics, etc.).

  | Total energy of the DFT / Hartree-Fock s.c.f. calculation      :         -20208.460979309 eV
  | Final zero-broadening corrected energy (caution - metals only) :         -20208.460979309 eV
  | For reference only, the value of 1 Hartree used in FHI-aims is :             27.211384500 eV

  Before relying on these values, please be sure to understand exactly which
  total energy value is referred to by a given number. Different objects may
  all carry the same name 'total energy'. Definitions:

  Total energy of the DFT / Hartree-Fock s.c.f. calculation:
  | Note that this energy does not include ANY quantities calculated after the
  | s.c.f. cycle, in particular not ANY RPA, MP2, etc. many-body perturbation terms.

  Final zero-broadening corrected energy:
  | For metallic systems only, a broadening of the occupation numbers at the Fermi
  | level can be extrapolated back to zero broadening by an electron-gas inspired
  | formula. For all systems that are not real metals, this value can be
  | meaningless and should be avoided.

------------------------------------------------------------------------------
  Methods described in the following list of references were used in this FHI-aims run.
  If you publish the results, please make sure to cite these reference if they apply.
  FHI-aims is an academic code, and for our developers (often, Ph.D. students
  and postdocs), scientific credit in the community is essential.
  Thank you for helping us!

  For any use of FHI-aims, please cite:

    Volker Blum, Ralf Gehrke, Felix Hanke, Paula Havu, Ville Havu,
    Xinguo Ren, Karsten Reuter, and Matthias Scheffler
    'Ab initio molecular simulations with numeric atom-centered orbitals'
    Computer Physics Communications 180, 2175-2196 (2009)
    http://dx.doi.org/10.1016/j.cpc.2009.06.022


  The scalable eigensolver library ELPA was used in your run.
  ELPA is essential especially for large systems on hundreds or thousands of CPUs.
  For ELPA, please cite:

    Andreas Marek, Volker Blum, Rainer Johanni, Ville Havu, Bruno Lang,
    Thomas Auckenthaler, Alexander Heinecke, Hans-Joachim Bungartz, and Hermann Lederer,
    'The ELPA Library - Scalable Parallel Eigenvalue Solutions
    for Electronic Structure Theory and Computational Science'
    The Journal of Physics: Condensed Matter 26, 213201 (2014).
    http://dx.doi.org/10.1088/0953-8984/26/21/213201


  For ELPA's efficient two-stage tridiagonalization used in your run, please cite:

    T. Auckenthaler, V. Blum, H.-J. Bungartz, T. Huckle, R. Johanni, L. Kraemer,
    B. Lang, H. Lederer, and P. R. Willems,
    'Parallel solution of partial symmetric eigenvalue problems'
    'from  electronic structure calculations'
    Parallel Computing 37, 783-794 (2011).
    http://dx.doi.org/10.1016/j.parco.2011.05.002


  For the real-space grid partitioning and parallelization used in this calculation, please cite:

    Ville Havu, Volker Blum, Paula Havu, and Matthias Scheffler,
    'Efficient O(N) integration for all-electron electronic structure calculation'
    'using numerically tabulated basis functions'
    Journal of Computational Physics 228, 8367-8379 (2009).
    http://dx.doi.org/10.1016/j.jcp.2009.08.008

  Of course, there are many other important community references, e.g., those cited in the
  above references. Our list is limited to references that describe implementations in the
  FHI-aims code. The reason is purely practical (length of this list) - please credit others as well.

------------------------------------------------------------
          Leaving FHI-aims.
          Date     :  20170309, Time     :  160810.747

          Computational steps:
          | Number of self-consistency cycles          :           14

          Detailed time accounting                     :  max(cpu_time)    wall_clock(cpu1)
          | Total time                                 :       29.778 s          29.924 s
          | Preparation time                           :        0.240 s           0.238 s
          | Grid partitioning                          :        0.280 s           0.277 s
          | Preloading free-atom quantities on grid    :        0.028 s           0.028 s
          | Free-atom superposition energy             :        0.040 s           0.038 s
          | Total time for integrations                :       10.481 s          10.473 s
          | Total time for solution of K.-S. equations :        0.532 s           0.500 s
          | Total time for density & force components  :        9.405 s           9.375 s
          | Total time for mixing                      :        0.128 s           0.106 s
          | Total time for Hartree multipole update    :        0.072 s           0.057 s
          | Total time for Hartree multipole sum       :        6.468 s           6.453 s
          | Total time for total energy evaluation     :        0.028 s           0.014 s
          | Total time for vdW correction              :        0.120 s           0.121 s

          Have a nice day.
------------------------------------------------------------
