  MPI-parallelism will be employed.
------------------------------------------------------------
          Invoking FHI-aims ...
          Version 150427
          Git rev.: 9dd23e0 BL: Update Version stamp
          Compiled on 2015/11/03 at 22:05:20 on host eos03.

          When using FHI-aims, please cite the following reference:

          Volker Blum, Ralf Gehrke, Felix Hanke, Paula Havu,
          Ville Havu, Xinguo Ren, Karsten Reuter, and Matthias Scheffler,
          'Ab Initio Molecular Simulations with Numeric Atom-Centered Orbitals: FHI-aims',
          Computer Physics Communications 180, 2175-2196 (2009)

          For any questions about FHI-aims, please visit the aimsclub website
          with its forums and wiki. Contributions to both the forums and the
          wiki are warmly encouraged - they are for you, and everyone is welcome there.

------------------------------------------------------------

  Date     :  20170309, Time     :  190724.874
  Time zero on CPU 1             :   0.388023000000000E+00  s.
  Internal wall clock time zero  :           258318444.874  s.

  Using       32 parallel tasks.
  Task        0 on host eos273 reporting.
  Task        1 on host eos273 reporting.
  Task        2 on host eos273 reporting.
  Task        3 on host eos273 reporting.
  Task        4 on host eos273 reporting.
  Task        5 on host eos273 reporting.
  Task        6 on host eos273 reporting.
  Task        7 on host eos273 reporting.
  Task        8 on host eos273 reporting.
  Task        9 on host eos273 reporting.
  Task       10 on host eos273 reporting.
  Task       11 on host eos273 reporting.
  Task       12 on host eos273 reporting.
  Task       13 on host eos273 reporting.
  Task       14 on host eos273 reporting.
  Task       15 on host eos273 reporting.
  Task       16 on host eos273 reporting.
  Task       17 on host eos273 reporting.
  Task       18 on host eos273 reporting.
  Task       19 on host eos273 reporting.
  Task       20 on host eos273 reporting.
  Task       21 on host eos273 reporting.
  Task       22 on host eos273 reporting.
  Task       23 on host eos273 reporting.
  Task       24 on host eos273 reporting.
  Task       25 on host eos273 reporting.
  Task       26 on host eos273 reporting.
  Task       27 on host eos273 reporting.
  Task       28 on host eos273 reporting.
  Task       29 on host eos273 reporting.
  Task       30 on host eos273 reporting.
  Task       31 on host eos273 reporting.

  Performing system and environment tests:
  | Environment variable OMP_NUM_THREADS correctly set to 1.
  | Stacksize not measured: no C compiler
  | Checking for scalapack...
  | Testing pdtran()...
  | All pdtran() tests passed.

  Obtaining array dimensions for all initial allocations:
  
  -----------------------------------------------------------------------
  Parsing control.in (first pass over file, find array dimensions only).
  The contents of control.in will be repeated verbatim below
  unless switched off by setting 'verbatim_writeout .false.' .
  in the first line of control.in .
  -----------------------------------------------------------------------
  
  #########################################################################################
  #
  # Input for System
  #
  #########################################################################################
  #
  #
  #  Physical model
  #
    xc                 pbe
    vdw_correction_hirshfeld
    spin               none
    charge             0.
  #
  #  SCF convergence
  #
    occupation_type    gaussian 0.05
    mixer              pulay
      n_max_pulay        10
      charge_mix_param   0.5
    sc_accuracy_rho    1E-4
    sc_accuracy_eev    1E-2
    sc_accuracy_etot   1E-5
    sc_accuracy_forces 1E-4
    sc_iter_limit      1000
  #
  #  ESP charge
  #
    output esp
    esp equal_grid_n 80 80 80
  #
  #
  ################################################################################
  #
  #  FHI-aims code project
  # Volker Blum, Fritz Haber Institute Berlin, 2009
  #
  #  Suggested "tight" defaults for H atom (to be pasted into control.in file)
  #
  ################################################################################
    species        H
  #     global species definitions
      nucleus             1
      mass                1.00794
  #
      l_hartree           6
  #
      cut_pot             4.0  2.0  1.0
      basis_dep_cutoff    1e-4
  #
      radial_base         24 7.0
      radial_multiplier   2
      angular_grids       specified
        division   0.1930   50
        division   0.3175  110
        division   0.4293  194
        division   0.5066  302
        division   0.5626  434
  #      division   0.5922  590
  #      division   0.6227  974
  #      division   0.6868 1202
  #      outer_grid  770
        outer_grid  434
  ################################################################################
  #
  #  Definition of "minimal" basis
  #
  ################################################################################
  #     valence basis states
      valence      1  s   1.
  #     ion occupancy
      ion_occ      1  s   0.5
  ################################################################################
  #
  #  Suggested additional basis functions. For production calculations,
  #  uncomment them one after another (the most important basis functions are
  #  listed first).
  #
  #  Basis constructed for dimers: 0.5 A, 0.7 A, 1.0 A, 1.5 A, 2.5 A
  #
  ################################################################################
  #  "First tier" - improvements: -1014.90 meV to -62.69 meV
       hydro 2 s 2.1
       hydro 2 p 3.5
  #  "Second tier" - improvements: -12.89 meV to -1.83 meV
       hydro 1 s 0.85
       hydro 2 p 3.7
       hydro 2 s 1.2
       hydro 3 d 7
  #  "Third tier" - improvements: -0.25 meV to -0.12 meV
  #     hydro 4 f 11.2
  #     hydro 3 p 4.8
  #     hydro 4 d 9
  #     hydro 3 s 3.2
  ################################################################################
  #
  # For methods that use the localized form of the "resolution of identity" for
  # the two-electron Coulomb operator (RI_method LVL), particularly Hartree-Fock and
  # hybrid density functional calculations, the highest accuracy can be obtained by
  # uncommenting the line beginning with "for_aux"  below, thus adding an extra g radial
  # function to the construction of the product basis set for the expansion.
  # See Ref. New J. Phys. 17, 093020 (2015) for more information, particularly Figs. 1 and 6.
  #
  ################################################################################
  #
  # for_aux hydro 5 g 6.0
  ################################################################################
  #
  #  FHI-aims code project
  # Volker Blum, Fritz Haber Institute Berlin, 2009
  #
  #  Suggested "tight" defaults for C atom (to be pasted into control.in file)
  #
  ################################################################################
    species        C
  #     global species definitions
      nucleus             6
      mass                12.0107
  #
      l_hartree           6
  #
      cut_pot             4.0  2.0  1.0
      basis_dep_cutoff    1e-4
  #
      radial_base         34 7.0
      radial_multiplier   2
      angular_grids specified
        division   0.2187   50
        division   0.4416  110
        division   0.6335  194
        division   0.7727  302
        division   0.8772  434
  #      division   0.9334  590
  #      division   0.9924  770
  #      division   1.0230  974
  #      division   1.5020 1202
  #     outer_grid  974
        outer_grid  434
  ################################################################################
  #
  #  Definition of "minimal" basis
  #
  ################################################################################
  #     valence basis states
      valence      2  s   2.
      valence      2  p   2.
  #     ion occupancy
      ion_occ      2  s   1.
      ion_occ      2  p   1.
  ################################################################################
  #
  #  Suggested additional basis functions. For production calculations,
  #  uncomment them one after another (the most important basis functions are
  #  listed first).
  #
  #  Constructed for dimers: 1.0 A, 1.25 A, 1.5 A, 2.0 A, 3.0 A
  #
  ################################################################################
  #  "First tier" - improvements: -1214.57 meV to -155.61 meV
       hydro 2 p 1.7
       hydro 3 d 6
       hydro 2 s 4.9
  #  "Second tier" - improvements: -67.75 meV to -5.23 meV
       hydro 4 f 9.8
       hydro 3 p 5.2
       hydro 3 s 4.3
       hydro 5 g 14.4
       hydro 3 d 6.2
  #  "Third tier" - improvements: -2.43 meV to -0.60 meV
  #     hydro 2 p 5.6
  #     hydro 2 s 1.4
  #     hydro 3 d 4.9
  #     hydro 4 f 11.2
  #  "Fourth tier" - improvements: -0.39 meV to -0.18 meV
  #     hydro 2 p 2.1
  #     hydro 5 g 16.4
  #     hydro 4 d 13.2
  #     hydro 3 s 13.6
  #     hydro 4 f 17.6
  #  Further basis functions - improvements: -0.08 meV and below
  #     hydro 3 s 2
  #     hydro 3 p 6
  #     hydro 4 d 20
  ################################################################################
  #
  # For methods that use the localized form of the "resolution of identity" for
  # the two-electron Coulomb operator (RI_method LVL), particularly Hartree-Fock and
  # hybrid density functional calculations, the highest accuracy can be obtained by
  # uncommenting the line beginning with "for_aux"  below, thus adding an extra g radial
  # function to the construction of the product basis set for the expansion.
  # See Ref. New J. Phys. 17, 093020 (2015) for more information, particularly Figs. 1 and 6.
  #
  ################################################################################
  #
  # for_aux hydro 5 g 6.0
  ################################################################################
  #
  #  FHI-aims code project
  # Volker Blum, Fritz Haber Institute Berlin, 2009
  #
  #  Suggested "tight" defaults for N atom (to be pasted into control.in file)
  #
  ################################################################################
    species        N
  #     global species definitions
      nucleus             7
      mass                14.0067
  #
      l_hartree           6
  #
      cut_pot             4.0  2.0  1.0
      basis_dep_cutoff    1e-4
  #
      radial_base         35 7.0
      radial_multiplier   2
      angular_grids       specified
        division   0.1841   50
        division   0.3514  110
        division   0.5126  194
        division   0.6292  302
        division   0.6939  434
  #      division   0.7396  590
  #      division   0.7632  770
  #      division   0.8122  974
  #      division   1.1604 1202
  #      outer_grid  974
        outer_grid  434
  ################################################################################
  #
  #  Definition of "minimal" basis
  #
  ################################################################################
  #     valence basis states
      valence      2  s   2.
      valence      2  p   3.
  #     ion occupancy
      ion_occ      2  s   1.
      ion_occ      2  p   2.
  ################################################################################
  #
  #  Suggested additional basis functions. For production calculations,
  #  uncomment them one after another (the most important basis functions are
  #  listed first).
  #
  #  Constructed for dimers: 1.0 A, 1.1 A, 1.5 A, 2.0 A, 3.0 A
  #
  ################################################################################
  #  "First tier" - improvements: -1193.42 meV to -220.60 meV
       hydro 2 p 1.8
       hydro 3 d 6.8
       hydro 3 s 5.8
  #  "Second tier" - improvements: -80.21 meV to -6.86 meV
       hydro 4 f 10.8
       hydro 3 p 5.8
       hydro 1 s 0.8
       hydro 5 g 16
       hydro 3 d 4.9
  #  "Third tier" - improvements: -4.29 meV to -0.53 meV
  #     hydro 3 s 16
  #     ionic 2 p auto
  #     hydro 3 d 6.6
  #     hydro 4 f 11.6
  #  "Fourth tier" - improvements: -0.75 meV to -0.25 meV
  #     hydro 2 p 4.5
  #     hydro 2 s 2.4
  #     hydro 5 g 14.4
  #     hydro 4 d 14.4
  #     hydro 4 f 16.8
  # Further basis functions - -0.21 meV and below
  #     hydro 3 p 14.8
  #     hydro 3 s 4.4
  #     hydro 3 d 19.6
  #     hydro 5 g 12.8
  ################################################################################
  #
  # For methods that use the localized form of the "resolution of identity" for
  # the two-electron Coulomb operator (RI_method LVL), particularly Hartree-Fock and
  # hybrid density functional calculations, the highest accuracy can be obtained by
  # uncommenting the line beginning with "for_aux"  below, thus adding an extra g radial
  # function to the construction of the product basis set for the expansion.
  # See Ref. New J. Phys. 17, 093020 (2015) for more information, particularly Figs. 1 and 6.
  #
  ################################################################################
  #
  # for_aux hydro 5 g 6.0
  ################################################################################
  #
  #  FHI-aims code project
  # Volker Blum, Fritz Haber Institute Berlin, 2009
  #
  #  Suggested "tight" defaults for O atom (to be pasted into control.in file)
  #
  ################################################################################
    species        O
  #     global species definitions
      nucleus             8
      mass                15.9994
  #
      l_hartree           6
  #
      cut_pot             4.0  2.0  1.0
      basis_dep_cutoff    1e-4
  #
      radial_base         36 7.0
      radial_multiplier   2
       angular_grids specified
        division   0.1817   50
        division   0.3417  110
        division   0.4949  194
        division   0.6251  302
        division   0.8014  434
  #      division   0.8507  590
  #      division   0.8762  770
  #      division   0.9023  974
  #      division   1.2339 1202
  #      outer_grid 974
        outer_grid  434
  ################################################################################
  #
  #  Definition of "minimal" basis
  #
  ################################################################################
  #     valence basis states
      valence      2  s   2.
      valence      2  p   4.
  #     ion occupancy
      ion_occ      2  s   1.
      ion_occ      2  p   3.
  ################################################################################
  #
  #  Suggested additional basis functions. For production calculations,
  #  uncomment them one after another (the most important basis functions are
  #  listed first).
  #
  #  Constructed for dimers: 1.0 A, 1.208 A, 1.5 A, 2.0 A, 3.0 A
  #
  ################################################################################
  #  "First tier" - improvements: -699.05 meV to -159.38 meV
       hydro 2 p 1.8
       hydro 3 d 7.6
       hydro 3 s 6.4
  #  "Second tier" - improvements: -49.91 meV to -5.39 meV
       hydro 4 f 11.6
       hydro 3 p 6.2
       hydro 3 d 5.6
       hydro 5 g 17.6
       hydro 1 s 0.75
  #  "Third tier" - improvements: -2.83 meV to -0.50 meV
  #     ionic 2 p auto
  #     hydro 4 f 10.8
  #     hydro 4 d 4.7
  #     hydro 2 s 6.8
  #  "Fourth tier" - improvements: -0.40 meV to -0.12 meV
  #     hydro 3 p 5
  #     hydro 3 s 3.3
  #     hydro 5 g 15.6
  #     hydro 4 f 17.6
  #     hydro 4 d 14
  # Further basis functions - -0.08 meV and below
  #     hydro 3 s 2.1
  #     hydro 4 d 11.6
  #     hydro 3 p 16
  #     hydro 2 s 17.2
  ################################################################################
  #
  # For methods that use the localized form of the "resolution of identity" for
  # the two-electron Coulomb operator (RI_method LVL), particularly Hartree-Fock and
  # hybrid density functional calculations, the highest accuracy can be obtained by
  # uncommenting the line beginning with "for_aux"  below, thus adding an extra g radial
  # function to the construction of the product basis set for the expansion.
  # See Ref. New J. Phys. 17, 093020 (2015) for more information, particularly Figs. 1 and 6.
  #
  ################################################################################
  #
  # for_aux hydro 5 g 6.0
  
  -----------------------------------------------------------------------
  Completed first pass over input file control.in .
  -----------------------------------------------------------------------
  
  
  -----------------------------------------------------------------------
  Parsing geometry.in (first pass over file, find array dimensions only).
  The contents of geometry.in will be repeated verbatim below
  unless switched off by setting 'verbatim_writeout .false.' .
  in the first line of geometry.in .
  -----------------------------------------------------------------------
  
  #
  # This is the geometry file that corresponds to the current relaxation step.
  # If you do not want this file to be written, set the "write_restart_geometry" flag to .false.
  #
  atom       0.14981786     -1.07072133      1.39070918 C
  atom      -0.80528684     -0.34868240      2.31500760 C
  atom      -0.67215275     -0.37480113      3.53874148 O
  atom       0.86044269     -0.34908857      0.96292723 H
  atom      -0.36110765     -1.57463171      0.56174645 H
  atom       0.71142950     -1.79275852      1.99010169 H
  atom      -1.83776828      0.39123323      1.77470644 N
  atom      -2.34387347      0.56261931      0.40380940 C
  atom      -2.97795082     -0.75050760     -0.10733761 C
  atom      -2.31010008     -1.59025734     -0.70792167 O
  atom      -2.39374457      0.81641017      2.51027685 H
  atom      -3.13475677      1.31435275      0.48400088 H
  atom      -1.32804588      1.09741362     -0.60336585 C
  atom      -0.58761460      0.34117688     -0.88142862 H
  atom      -1.85746074      1.40130018     -1.51522944 H
  atom      -0.81644071      1.97281786     -0.18453949 H
  atom      -4.29324149     -1.03654334      0.19106519 N
  atom      -5.41992494     -0.22012180      0.62943609 C
  atom      -5.80033492      0.85493388     -0.41915613 C
  atom      -4.94893882      1.44506087     -1.07890669 O
  atom      -4.54792271     -1.93792536     -0.20388338 H
  atom      -6.24817458     -0.93746444      0.71130057 H
  atom      -5.26152831      0.43128084      2.01543618 C
  atom      -6.23660413      0.76729795      2.39157532 H
  atom      -4.60919943      1.31163022      1.98362685 H
  atom      -4.84766817     -0.29467536      2.72536469 H
  atom      -7.12882459      1.14569381     -0.54685878 N
  atom      -8.26518800      0.50992362      0.10188617 C
  atom      -7.31439243      1.88069317     -1.22247262 H
  atom      -9.17958221      0.99492575     -0.25528045 H
  atom      -8.23998243      0.62088504      1.19560291 H
  atom      -8.34104375     -0.55979123     -0.14357442 H
  
  -----------------------------------------------------------------------
  Completed first pass over input file geometry.in .
  -----------------------------------------------------------------------
  

  Basic array size parameters:
  | Number of species                 :        4
  | Number of atoms                   :       32
  | Max. basis fn. angular momentum   :        4
  | Max. atomic/ionic basis occupied n:        2
  | Max. number of basis fn. types    :        2
  | Max. radial fns per species/type  :        8
  | Max. logarithmic grid size        :     1301
  | Max. radial integration grid size :       73
  | Max. angular integration grid size:      434
  | Max. angular grid division number :        8
  | Radial grid for Hartree potential :     1301
  | Number of spin channels           :        1

------------------------------------------------------------
          Reading file control.in.
------------------------------------------------------------
  XC: Using PBE gradient-corrected functionals.
  Spin treatment: No spin polarisation.
  Charge =   0.000000E+00: Neutral system requested explicitly.
  Occupation type: Gaussian broadening, width =   0.500000E-01 eV.
  Using pulay charge density mixing.
  Pulay mixing - number of memorized iterations:   10
  Charge density mixing - mixing parameter:     0.5000
  Convergence accuracy of self-consistent charge density:  0.1000E-03
  Convergence accuracy of sum of eigenvalues:  0.1000E-01
  Convergence accuracy of total energy:  0.1000E-04
  Convergence accuracy of forces:  0.1000E-03
  Maximum number of s.-c. iterations  :  1000
  Fitting ESP-charges to Potential. 
  | Esp charge output options: 
  | ESP Grid method: 3, cubic grid
  | Number of points in x, ,y, z:  0080 0080 0080
  |
 
  Reading configuration options for species H                   .
  | Found nuclear charge :   1.0000
  | Found atomic mass :    1.00794000000000      amu
  | Found l_max for Hartree potential  :   6
  | Found cutoff potl. onset [A], width [A], scale factor :    4.00000    2.00000    1.00000
  | Threshold for basis-dependent cutoff potential is   0.100000E-03
  | Found data for basic radial integration grid :    24 points, outermost radius =    7.000 A
  | Found multiplier for basic radial grid :   2
  | Found angular grid specification: user-specified.
  | Specified grid contains     6 separate shells.
  | Check grid settings after all constraints further below.
  | Found free-atom valence shell :  1 s   1.000
  | No ionic wave fns used. Skipping ion_occ.
  | Found hydrogenic basis function :  2 s   2.100
  | Found hydrogenic basis function :  2 p   3.500
  | Found hydrogenic basis function :  1 s   0.850
  | Found hydrogenic basis function :  2 p   3.700
  | Found hydrogenic basis function :  2 s   1.200
  | Found hydrogenic basis function :  3 d   7.000
  Species H                   : Missing cutoff potential type.
  Defaulting to exp(1/x)/(1-x)^2 type cutoff potential.
  Species H : No 'logarithmic' tag. Using default grid for free atom:
  | Default logarithmic grid data [bohr] : 0.1000E-03 0.1000E+03 0.1012E+01
  Species H : On-site basis accuracy parameter (for Gram-Schmidt orthonormalisation) not specified.
  Using default value basis_acc =  0.1000000E-03.
  Species H                   : Using default innermost maximum threshold i_radial=  2 for radial functions.
  Species H                   : Default cutoff onset for free atom density etc. : 0.40000000E+01 AA.
  Species H                   : Basic radial grid will be enhanced according to radial_multiplier =   2, to contain    49 grid points.
 
  Reading configuration options for species C                   .
  | Found nuclear charge :   6.0000
  | Found atomic mass :    12.0107000000000      amu
  | Found l_max for Hartree potential  :   6
  | Found cutoff potl. onset [A], width [A], scale factor :    4.00000    2.00000    1.00000
  | Threshold for basis-dependent cutoff potential is   0.100000E-03
  | Found data for basic radial integration grid :    34 points, outermost radius =    7.000 A
  | Found multiplier for basic radial grid :   2
  | Found angular grid specification: user-specified.
  | Specified grid contains     6 separate shells.
  | Check grid settings after all constraints further below.
  | Found free-atom valence shell :  2 s   2.000
  | Found free-atom valence shell :  2 p   2.000
  | No ionic wave fns used. Skipping ion_occ.
  | No ionic wave fns used. Skipping ion_occ.
  | Found hydrogenic basis function :  2 p   1.700
  | Found hydrogenic basis function :  3 d   6.000
  | Found hydrogenic basis function :  2 s   4.900
  | Found hydrogenic basis function :  4 f   9.800
  | Found hydrogenic basis function :  3 p   5.200
  | Found hydrogenic basis function :  3 s   4.300
  | Found hydrogenic basis function :  5 g  14.400
  | Found hydrogenic basis function :  3 d   6.200
  Species C                   : Missing cutoff potential type.
  Defaulting to exp(1/x)/(1-x)^2 type cutoff potential.
  Species C : No 'logarithmic' tag. Using default grid for free atom:
  | Default logarithmic grid data [bohr] : 0.1000E-03 0.1000E+03 0.1012E+01
  Species C : On-site basis accuracy parameter (for Gram-Schmidt orthonormalisation) not specified.
  Using default value basis_acc =  0.1000000E-03.
  Species C                   : Using default innermost maximum threshold i_radial=  2 for radial functions.
  Species C                   : Default cutoff onset for free atom density etc. : 0.40000000E+01 AA.
  Species C                   : Basic radial grid will be enhanced according to radial_multiplier =   2, to contain    69 grid points.
 
  Reading configuration options for species N                   .
  | Found nuclear charge :   7.0000
  | Found atomic mass :    14.0067000000000      amu
  | Found l_max for Hartree potential  :   6
  | Found cutoff potl. onset [A], width [A], scale factor :    4.00000    2.00000    1.00000
  | Threshold for basis-dependent cutoff potential is   0.100000E-03
  | Found data for basic radial integration grid :    35 points, outermost radius =    7.000 A
  | Found multiplier for basic radial grid :   2
  | Found angular grid specification: user-specified.
  | Specified grid contains     6 separate shells.
  | Check grid settings after all constraints further below.
  | Found free-atom valence shell :  2 s   2.000
  | Found free-atom valence shell :  2 p   3.000
  | No ionic wave fns used. Skipping ion_occ.
  | No ionic wave fns used. Skipping ion_occ.
  | Found hydrogenic basis function :  2 p   1.800
  | Found hydrogenic basis function :  3 d   6.800
  | Found hydrogenic basis function :  3 s   5.800
  | Found hydrogenic basis function :  4 f  10.800
  | Found hydrogenic basis function :  3 p   5.800
  | Found hydrogenic basis function :  1 s   0.800
  | Found hydrogenic basis function :  5 g  16.000
  | Found hydrogenic basis function :  3 d   4.900
  Species N                   : Missing cutoff potential type.
  Defaulting to exp(1/x)/(1-x)^2 type cutoff potential.
  Species N : No 'logarithmic' tag. Using default grid for free atom:
  | Default logarithmic grid data [bohr] : 0.1000E-03 0.1000E+03 0.1012E+01
  Species N : On-site basis accuracy parameter (for Gram-Schmidt orthonormalisation) not specified.
  Using default value basis_acc =  0.1000000E-03.
  Species N                   : Using default innermost maximum threshold i_radial=  2 for radial functions.
  Species N                   : Default cutoff onset for free atom density etc. : 0.40000000E+01 AA.
  Species N                   : Basic radial grid will be enhanced according to radial_multiplier =   2, to contain    71 grid points.
 
  Reading configuration options for species O                   .
  | Found nuclear charge :   8.0000
  | Found atomic mass :    15.9994000000000      amu
  | Found l_max for Hartree potential  :   6
  | Found cutoff potl. onset [A], width [A], scale factor :    4.00000    2.00000    1.00000
  | Threshold for basis-dependent cutoff potential is   0.100000E-03
  | Found data for basic radial integration grid :    36 points, outermost radius =    7.000 A
  | Found multiplier for basic radial grid :   2
  | Found angular grid specification: user-specified.
  | Specified grid contains     6 separate shells.
  | Check grid settings after all constraints further below.
  | Found free-atom valence shell :  2 s   2.000
  | Found free-atom valence shell :  2 p   4.000
  | No ionic wave fns used. Skipping ion_occ.
  | No ionic wave fns used. Skipping ion_occ.
  | Found hydrogenic basis function :  2 p   1.800
  | Found hydrogenic basis function :  3 d   7.600
  | Found hydrogenic basis function :  3 s   6.400
  | Found hydrogenic basis function :  4 f  11.600
  | Found hydrogenic basis function :  3 p   6.200
  | Found hydrogenic basis function :  3 d   5.600
  | Found hydrogenic basis function :  5 g  17.600
  | Found hydrogenic basis function :  1 s   0.750
  Species O                   : Missing cutoff potential type.
  Defaulting to exp(1/x)/(1-x)^2 type cutoff potential.
  Species O : No 'logarithmic' tag. Using default grid for free atom:
  | Default logarithmic grid data [bohr] : 0.1000E-03 0.1000E+03 0.1012E+01
  Species O : On-site basis accuracy parameter (for Gram-Schmidt orthonormalisation) not specified.
  Using default value basis_acc =  0.1000000E-03.
  Species O                   : Using default innermost maximum threshold i_radial=  2 for radial functions.
  Species O                   : Default cutoff onset for free atom density etc. : 0.40000000E+01 AA.
  Species O                   : Basic radial grid will be enhanced according to radial_multiplier =   2, to contain    73 grid points.
 
  Finished reading input file 'control.in'. Consistency checks are next.
 
  Target number of points in a grid batch is not set. Defaulting to  100
  Method for grid partitioning is not set. Defaulting to parallel hash+maxmin partitioning.
  Batch size limit is not set. Defaulting to    200
  By default, will store active basis functions for each batch.
  If in need of memory, prune_basis_once .false. can be used to disable this option.
  communication_type for Hartree potential was not specified.
  Defaulting to calc_hartree .
  Pulay mixer: Number of initial linear mixing iterations not set.
  Defaulting to    0 iterations.
  Work space size for distributed Hartree potential not set.
  Defaulting to   0.200000E+03 MB.
  Algorithm-dependent basis array size parameters:
  | n_max_pulay                         :       10
  Geometry relaxation not requested: no relaxation will be performed.
  Handling of forces: Unphysical translation and rotation will be removed from forces.
  No accuracy limit for integral partition fn. given. Defaulting to  0.1000E-14.
  No threshold value for u(r) in integrations given. Defaulting to  0.1000E-05.
  No accuracy for occupation numbers given. Defaulting to  0.1000E-07.
  No threshold value for occupation numbers given. Defaulting to  0.0000E+00.
  No accuracy for fermi level given. Defaulting to  0.1000E-19.
  Maximum # of iterations to find E_F not set. Defaulting to  200.
  Preferred method for the eigenvalue solver ('KS_method') not specified in 'control.in'.
  Calling blacs routine to test compilation state
  Since scalapack support is enabled, defaulting to 'elpa'.
  Preferred method for the MBD eigenvalue solver ('mbd_eigensolver') not specified in 'control.in'.
  Calling blacs routine to test compilation state
  Since scalapack support is enabled, defaulting to 'scaLAPACK'.
  Will not use alltoall communication since running on < 1024 CPUs.
  Threshold for basis singularities not set.
  Default threshold for basis singularities:  0.1000E-04
  partition_type (choice of integration weights) for integrals was not specified.
  | Using a version of the partition function of Stratmann and coworkers ('stratmann_smoother').
  | At each grid point, the set of atoms used to build the partition table is smoothly restricted to
  | only those atoms whose free-atom density would be non-zero at that grid point.
  Partitioning for Hartree potential was not defined. Using partition_type for integrals.
  | Adjusted default value of keyword multip_moments_threshold to:       0.10000000E-11
  | This value may affect high angular momentum components of the Hartree potential in periodic systems.
  No q(lm)/r^(l+1) cutoff set for long-range Hartree potential.
  | Using default value of  0.100000E-09 .
  | Verify using the multipole_threshold keyword.
  Defaulting to new monopole extrapolation.
  Density update method: automatic selection selected.
------------------------------------------------------------


------------------------------------------------------------
          Reading geometry description geometry.in.
------------------------------------------------------------
 * Warning! You did not set the 'relativistic' flag in input file 'control.in'.
 * Since you are not attempting to treat any elements beyond Ca(Z=20), FHI-aims
 * will default to 'relativistic none'.
 * You must ensure that this is really what you want!!
 * For example, DO NOT compute total-energy differences between results from
 * different settings of the 'relativistic' flag.
  Input structure read successfully.
  The structure contains       32 atoms,  and a total of        116.000 electrons.

  Input geometry:
  | No unit cell requested.
  | Atomic structure:
  |       Atom                x [A]            y [A]            z [A]
  |    1: Species C              0.149818        -1.070721         1.390709
  |    2: Species C             -0.805287        -0.348682         2.315008
  |    3: Species O             -0.672153        -0.374801         3.538741
  |    4: Species H              0.860443        -0.349089         0.962927
  |    5: Species H             -0.361108        -1.574632         0.561746
  |    6: Species H              0.711430        -1.792759         1.990102
  |    7: Species N             -1.837768         0.391233         1.774706
  |    8: Species C             -2.343873         0.562619         0.403809
  |    9: Species C             -2.977951        -0.750508        -0.107338
  |   10: Species O             -2.310100        -1.590257        -0.707922
  |   11: Species H             -2.393745         0.816410         2.510277
  |   12: Species H             -3.134757         1.314353         0.484001
  |   13: Species C             -1.328046         1.097414        -0.603366
  |   14: Species H             -0.587615         0.341177        -0.881429
  |   15: Species H             -1.857461         1.401300        -1.515229
  |   16: Species H             -0.816441         1.972818        -0.184539
  |   17: Species N             -4.293241        -1.036543         0.191065
  |   18: Species C             -5.419925        -0.220122         0.629436
  |   19: Species C             -5.800335         0.854934        -0.419156
  |   20: Species O             -4.948939         1.445061        -1.078907
  |   21: Species H             -4.547923        -1.937925        -0.203883
  |   22: Species H             -6.248175        -0.937464         0.711301
  |   23: Species C             -5.261528         0.431281         2.015436
  |   24: Species H             -6.236604         0.767298         2.391575
  |   25: Species H             -4.609199         1.311630         1.983627
  |   26: Species H             -4.847668        -0.294675         2.725365
  |   27: Species N             -7.128825         1.145694        -0.546859
  |   28: Species C             -8.265188         0.509924         0.101886
  |   29: Species H             -7.314392         1.880693        -1.222473
  |   30: Species H             -9.179582         0.994926        -0.255280
  |   31: Species H             -8.239982         0.620885         1.195603
  |   32: Species H             -8.341044        -0.559791        -0.143574
  |

  | The smallest distance between any two atoms is         1.01535654 AA.
  |
  | The first atom of this pair is atom number                      7 .
  | The second atom of this pair is atom number                    11 .

  Number of empty states per atom not set in control.in - providing a guess from actual geometry.
  | Total number of empty states used during s.c.f. cycle:       71
  If you use a very high smearing, use empty_states (per atom!) in control.in to increase this value.

  Structure-dependent array size parameters: 
  | Maximum number of distinct radial functions  :       40
  | Maximum number of basis functions            :      840
  | Number of Kohn-Sham states (occupied + empty):      129
------------------------------------------------------------

------------------------------------------------------------
          Preparing all fixed parts of the calculation.
------------------------------------------------------------
  Determining machine precision:
    2.225073858507201E-308
  Setting up grids for atomic and cluster calculations.

  Creating wave function, potential, and density for free atoms.

  Species: H

  List of occupied orbitals and eigenvalues:
    n    l              occ      energy [Ha]    energy [eV]
    1    0           1.0000        -0.238382        -6.4867


  Species: C

  List of occupied orbitals and eigenvalues:
    n    l              occ      energy [Ha]    energy [eV]
    1    0           2.0000       -10.041232      -273.2358
    2    0           2.0000        -0.504327       -13.7234
    2    1           2.0000        -0.193750        -5.2722


  Species: N

  List of occupied orbitals and eigenvalues:
    n    l              occ      energy [Ha]    energy [eV]
    1    0           2.0000       -14.129007      -384.4699
    2    0           2.0000        -0.681802       -18.5528
    2    1           3.0000        -0.260543        -7.0897


  Species: O

  List of occupied orbitals and eigenvalues:
    n    l              occ      energy [Ha]    energy [eV]
    1    0           2.0000       -18.898576      -514.2564
    2    0           2.0000        -0.878795       -23.9132
    2    1           4.0000        -0.332075        -9.0362

  Creating fixed part of basis set: Ionic, confined, hydrogenic.
 
  H                    hydrogenic:
 
  List of hydrogenic basis orbitals: 
    n    l      effective z      eigenvalue [eV]  inner max. [A]     outer max. [A]     outer radius [A]   
    2    0         2.100000       -14.9965           0.193243           1.317208           5.373006
    2    1         3.500000       -41.6672           0.602369           0.602369           4.056063
    1    0         0.850000        -9.8292           0.624871           0.624871           5.373006
    2    1         3.700000       -46.5653           0.573622           0.573622           3.910002
    2    0         1.200000        -4.5995           0.334980           2.228188           5.505995
    3    2         7.000000       -74.0753           0.680699           0.680699           3.769201
 
 
  C                    hydrogenic:
 
  List of hydrogenic basis orbitals: 
    n    l      effective z      eigenvalue [eV]  inner max. [A]     outer max. [A]     outer radius [A]   
    2    1         1.700000        -9.8152           1.245706           1.245706           5.401630
    3    2         6.000000       -54.4226           0.792453           0.792453           4.178599
    2    0         4.900000       -81.6681           0.082559           0.562749           3.353238
    4    3         9.800000       -81.6681           0.863254           0.863254           4.028125
    3    1         5.200000       -40.8774           0.305389           1.215618           4.898362
    3    0         4.300000       -27.9508           0.091041           1.610311           5.401630
    5    4        14.400000      -112.8510           0.917666           0.917666           3.883070
    3    2         6.200000       -58.1113           0.763917           0.763917           4.077671
 
 
  N                    hydrogenic:
 
  List of hydrogenic basis orbitals: 
    n    l      effective z      eigenvalue [eV]  inner max. [A]     outer max. [A]     outer radius [A]   
    2    1         1.800000       -11.0118           1.177451           1.177451           5.427479
    3    2         6.800000       -69.9029           0.704619           0.704619           3.854246
    3    0         5.800000       -50.8549           0.067388           1.191934           4.629968
    4    3        10.800000       -99.1854           0.786571           0.786571           3.761152
    3    1         5.800000       -50.8549           0.274880           1.094176           4.518138
    1    0         0.800000        -8.7059           0.662839           0.662839           5.361532
    5    4        16.000000      -139.3222           0.825990           0.825990           3.625711
    3    2         4.900000       -36.2967           0.968267           0.968267           4.862000
 
 
  O                    hydrogenic:
 
  List of hydrogenic basis orbitals: 
    n    l      effective z      eigenvalue [eV]  inner max. [A]     outer max. [A]     outer radius [A]   
    2    1         1.800000       -11.0118           1.178562           1.178562           5.432602
    3    2         7.600000       -87.3182           0.624125           0.624125           3.541477
    3    0         6.400000       -61.9209           0.061167           1.081902           4.306578
    4    3        11.600000      -114.4238           0.731631           0.731631           3.585037
    3    1         6.200000       -58.1113           0.255680           1.030270           4.306578
    3    2         5.600000       -47.4081           0.847233           0.847233           4.413171
    5    4        17.600000      -168.5799           0.749740           0.749740           3.372465
    1    0         0.750000        -7.6499           0.705284           0.705284           5.366593
 

  Adding cutoff potential to free-atom effective potential.
  Creating atomic-like basis functions for current effective potential.

  Species H                   :

  List of atomic basis orbitals and eigenvalues:
    n    l      energy [Ha]    energy [eV]    outer radius [A]
    1    0        -0.238382        -6.4867       5.373006


  Species C                   :

  List of atomic basis orbitals and eigenvalues:
    n    l      energy [Ha]    energy [eV]    outer radius [A]
    1    0       -10.041232      -273.2358       1.934409
    2    0        -0.504327       -13.7234       5.271162
    2    1        -0.193750        -5.2722       5.401630


  Species N                   :

  List of atomic basis orbitals and eigenvalues:
    n    l      energy [Ha]    energy [eV]    outer radius [A]
    1    0       -14.129007      -384.4699       1.637919
    2    0        -0.681802       -18.5528       5.168461
    2    1        -0.260543        -7.0897       5.361532


  Species O                   :

  List of atomic basis orbitals and eigenvalues:
    n    l      energy [Ha]    energy [eV]    outer radius [A]
    1    0       -18.898576      -514.2564       1.415765
    2    0        -0.878795       -23.9132       5.048385
    2    1        -0.332075        -9.0362       5.301386

  Assembling full basis from fixed parts.
  | Species H :   atomic orbital   1 s accepted.
  | Species H :    hydro orbital   2 s accepted.
  | Species H :    hydro orbital   1 s accepted.
  | Species H :    hydro orbital   2 s accepted.
  | Species H :    hydro orbital   2 p accepted.
  | Species H :    hydro orbital   2 p accepted.
  | Species H :    hydro orbital   3 d accepted.
  | Species C :   atomic orbital   1 s accepted.
  | Species C :    hydro orbital   2 s accepted.
  | Species C :   atomic orbital   2 s accepted.
  | Species C :    hydro orbital   3 s accepted.
  | Species C :    hydro orbital   3 p accepted.
  | Species C :   atomic orbital   2 p accepted.
  | Species C :    hydro orbital   2 p accepted.
  | Species C :    hydro orbital   3 d accepted.
  | Species C :    hydro orbital   3 d accepted.
  | Species C :    hydro orbital   4 f accepted.
  | Species C :    hydro orbital   5 g accepted.
  | Species N :   atomic orbital   1 s accepted.
  | Species N :    hydro orbital   3 s accepted.
  | Species N :   atomic orbital   2 s accepted.
  | Species N :    hydro orbital   1 s accepted.
  | Species N :    hydro orbital   3 p accepted.
  | Species N :   atomic orbital   2 p accepted.
  | Species N :    hydro orbital   2 p accepted.
  | Species N :    hydro orbital   3 d accepted.
  | Species N :    hydro orbital   3 d accepted.
  | Species N :    hydro orbital   4 f accepted.
  | Species N :    hydro orbital   5 g accepted.
  | Species O :   atomic orbital   1 s accepted.
  | Species O :    hydro orbital   3 s accepted.
  | Species O :   atomic orbital   2 s accepted.
  | Species O :    hydro orbital   1 s accepted.
  | Species O :    hydro orbital   3 p accepted.
  | Species O :   atomic orbital   2 p accepted.
  | Species O :    hydro orbital   2 p accepted.
  | Species O :    hydro orbital   3 d accepted.
  | Species O :    hydro orbital   3 d accepted.
  | Species O :    hydro orbital   4 f accepted.
  | Species O :    hydro orbital   5 g accepted.
 
  Basis size parameters after reduction:
  | Total number of radial functions:       40
  | Total number of basis functions :      840
 
  Testing on-site integration grid accuracy.
  |  Species  Function  <phi|h_atom|phi> (log., in eV)  <phi|h_atom|phi> (rad., in eV)
           1        1                 -6.4869821809                 -6.4870742227
           1        2                 13.5044133542                 13.5041049177
           1        3                 32.7854418792                 32.7779770519
           1        4                 33.7995553101                 33.7152624900 ***
           1        5                 28.8558651799                 28.8558652046
           1        6                 59.6361831893                 59.6362535845
           1        7                 60.2733718049                 60.2733715484
           2        8               -273.2358277112               -273.2358261765
           2        9                -10.7624923123                -10.7625144012
           2       10                 17.4634079027                 17.4634252127
           2       11                 53.0363661832                 53.0366180446
           2       12                 15.0981351967                 15.0981317714
           2       13                  3.8522181899                  3.8522770949
           2       14                 12.1181835661                 12.1206868578
           2       15                 29.4320778347                 29.4320780959
           2       16                 54.8753777694                 54.8752901936
           2       17                 59.3533975461                 59.3533974833
           2       18                 93.4537491195                 93.4537492066
           3       19               -384.4698526889               -384.4698499465
           3       20                 12.5691022037                 12.5690910168
           3       21                -15.7489097511                -15.7489165588
           3       22                 27.0978334940                 27.0985589490
           3       23                 18.5949116966                 18.5949125562
           3       24                  1.2212828291                  1.2212855301
           3       25                 13.4428926797                 13.4434051125
           3       26                 35.9380614500                 35.9380613666
           3       27                 39.9231532098                 39.9231654735
           3       28                 72.9957335806                 72.9957336833
           3       29                116.4231321147                116.4231321431
           4       30               -514.2564144315               -514.2564099626
           4       31                 15.1726678541                 15.1726530877
           4       32                -21.5447785304                -21.5447874973
           4       33                 14.4944558459                 14.4944698284
           4       34                 20.8882174564                 20.8882178906
           4       35                 -2.4850315908                 -2.4850322289
           4       36                 13.8600193195                 13.8599826966
           4       37                 45.8243383616                 45.8243383675
           4       38                 52.1840606465                 52.1840622440
           4       39                 85.4074185510                 85.4074185819
           4       40                142.0983717302                142.0983717339
 * Note: Onsite integrals marked "***" above are less accurate than
 * onsite_accuracy_threshold =    0.03000 eV. Usually, this is harmless.
 * When in doubt, tighten the "radial" and/or "radial_multiplier" flags to check.

  Preparing densities etc. for the partition functions (integrals / Hartree potential).

  Preparations completed.
  max(cpu_time)          :      0.236 s.
  Wall clock time (cpu1) :      0.234 s.
------------------------------------------------------------

------------------------------------------------------------
          Begin self-consistency loop: Initialization.

          Date     :  20170309, Time     :  190725.908
------------------------------------------------------------

  Initializing index lists of integration centers etc. from given atomic structure:
  | Number of centers in hartree potential         :        32
  | Number of centers in hartree multipole         :        32
  | Number of centers in electron density summation:        32
  | Number of centers in basis integrals           :        32
  | Number of centers in integrals                 :        32
  | Number of centers in hamiltonian               :        32
  Using modified Scalapack Eigenvalue solver (ELPA)
  * Using 32 tasks for Scalapack Eigenvalue solver.
  Detailed listing of tasks and assigned k-points:
  (for non-periodic systems, the "k-point" denotes an internal label only)
   Task     0 k-point     1 on eos273
   Task     1 k-point     1 on eos273
   Task     2 k-point     1 on eos273
   Task     3 k-point     1 on eos273
   Task     4 k-point     1 on eos273
   Task     5 k-point     1 on eos273
   Task     6 k-point     1 on eos273
   Task     7 k-point     1 on eos273
   Task     8 k-point     1 on eos273
   Task     9 k-point     1 on eos273
   Task    10 k-point     1 on eos273
   Task    11 k-point     1 on eos273
   Task    12 k-point     1 on eos273
   Task    13 k-point     1 on eos273
   Task    14 k-point     1 on eos273
   Task    15 k-point     1 on eos273
   Task    16 k-point     1 on eos273
   Task    17 k-point     1 on eos273
   Task    18 k-point     1 on eos273
   Task    19 k-point     1 on eos273
   Task    20 k-point     1 on eos273
   Task    21 k-point     1 on eos273
   Task    22 k-point     1 on eos273
   Task    23 k-point     1 on eos273
   Task    24 k-point     1 on eos273
   Task    25 k-point     1 on eos273
   Task    26 k-point     1 on eos273
   Task    27 k-point     1 on eos273
   Task    28 k-point     1 on eos273
   Task    29 k-point     1 on eos273
   Task    30 k-point     1 on eos273
   Task    31 k-point     1 on eos273
  Tasks:    32 split into      8 X      4 BLACS grid
  Calculating blocksize based on n_basis =          840 max_nprow =            8 max_npcol =            4
  Scalapack blocksize set to:           16
  Required Scalapack workspace - INTEGER:            1 REAL:             1
  Partitioning the integration grid into batches with parallel hashing+maxmin method.
  | Number of batches:     5149
  | Maximal batch size:     200
  | Minimal batch size:      50
  | Average batch size:     102.491
  | Standard deviation of batch sizes:      31.513

  Integration load balanced across    32 MPI tasks.
  Work distribution over tasks is as follows:
  Task     0 has      16456 integration points.
  Task     1 has      16404 integration points.
  Task     2 has      16567 integration points.
  Task     3 has      16495 integration points.
  Task     4 has      16493 integration points.
  Task     5 has      16493 integration points.
  Task     6 has      16568 integration points.
  Task     7 has      16490 integration points.
  Task     8 has      16567 integration points.
  Task     9 has      16571 integration points.
  Task    10 has      16506 integration points.
  Task    11 has      16482 integration points.
  Task    12 has      16470 integration points.
  Task    13 has      16548 integration points.
  Task    14 has      16422 integration points.
  Task    15 has      16462 integration points.
  Task    16 has      16553 integration points.
  Task    17 has      16533 integration points.
  Task    18 has      16489 integration points.
  Task    19 has      16509 integration points.
  Task    20 has      16448 integration points.
  Task    21 has      16409 integration points.
  Task    22 has      16451 integration points.
  Task    23 has      16487 integration points.
  Task    24 has      16449 integration points.
  Task    25 has      16564 integration points.
  Task    26 has      16428 integration points.
  Task    27 has      16419 integration points.
  Task    28 has      16455 integration points.
  Task    29 has      16486 integration points.
  Task    30 has      16557 integration points.
  Task    31 has      16497 integration points.
  Initializing partition tables, free-atom densities, potentials, etc. across the integration grid (initialize_grid_storage).
  | initialize_grid_storage: Actual outermost partition radius vs. multipole_radius_free
  | (-- VB: in principle, multipole_radius_free should be larger, hence this output)
  | Species        1: Confinement radius =              6.000000000000000 AA, multipole_radius_free =              6.071692442739658 AA.
  | Species        1: outer_partition_radius set to              6.071692442739658 AA .
  | Species        2: Confinement radius =              6.000000000000000 AA, multipole_radius_free =              6.029870734432609 AA.
  | Species        2: outer_partition_radius set to              6.029870734432609 AA .
  | Species        3: Confinement radius =              6.000000000000000 AA, multipole_radius_free =              6.058726835495003 AA.
  | Species        3: outer_partition_radius set to              6.058726835495003 AA .
  | Species        4: Confinement radius =              6.000000000000000 AA, multipole_radius_free =              6.064445521808699 AA.
  | Species        4: outer_partition_radius set to              6.064445521808699 AA .
  | Original list of interatomic distances with          32 x         32 entries is created.
  | Net number of integration points:   527728
  | of which are non-zero points    :   415281
  Obtaining max. number of non-zero basis functions in each batch (get_n_compute_maxes).
  | Maximal number of non-zero basis functions:      730 in task     0
  | Maximal number of non-zero basis functions:      748 in task     1
  | Maximal number of non-zero basis functions:      726 in task     2
  | Maximal number of non-zero basis functions:      728 in task     3
  | Maximal number of non-zero basis functions:      749 in task     4
  | Maximal number of non-zero basis functions:      724 in task     5
  | Maximal number of non-zero basis functions:      736 in task     6
  | Maximal number of non-zero basis functions:      731 in task     7
  | Maximal number of non-zero basis functions:      745 in task     8
  | Maximal number of non-zero basis functions:      741 in task     9
  | Maximal number of non-zero basis functions:      736 in task    10
  | Maximal number of non-zero basis functions:      734 in task    11
  | Maximal number of non-zero basis functions:      740 in task    12
  | Maximal number of non-zero basis functions:      734 in task    13
  | Maximal number of non-zero basis functions:      726 in task    14
  | Maximal number of non-zero basis functions:      730 in task    15
  | Maximal number of non-zero basis functions:      731 in task    16
  | Maximal number of non-zero basis functions:      729 in task    17
  | Maximal number of non-zero basis functions:      736 in task    18
  | Maximal number of non-zero basis functions:      741 in task    19
  | Maximal number of non-zero basis functions:      722 in task    20
  | Maximal number of non-zero basis functions:      727 in task    21
  | Maximal number of non-zero basis functions:      741 in task    22
  | Maximal number of non-zero basis functions:      745 in task    23
  | Maximal number of non-zero basis functions:      734 in task    24
  | Maximal number of non-zero basis functions:      735 in task    25
  | Maximal number of non-zero basis functions:      726 in task    26
  | Maximal number of non-zero basis functions:      726 in task    27
  | Maximal number of non-zero basis functions:      732 in task    28
  | Maximal number of non-zero basis functions:      721 in task    29
  | Maximal number of non-zero basis functions:      744 in task    30
  | Maximal number of non-zero basis functions:      735 in task    31
  Selecting the method for density update.
  Loop over occupied states selected for charge density update.
  Integrating Hamiltonian matrix: batch-based integration.
  Time summed over all CPUs for integration: real work       21.692 s, elapsed       22.735 s
  Integrating overlap matrix.
  Time summed over all CPUs for integration: real work       13.256 s, elapsed       13.918 s
  Deallocating overlap matrix.

  Updating Kohn-Sham eigenvalues, eigenvectors, occupation numbers, and Fermi level.
  Solving generalized eigenproblem
  Solving real symmetric generalised eigenvalue problem by standard ScaLAPACK.
  Transforming overlap matrix with ScaLAPACK and checking for singularities.
  : Overlap matrix is nonsingular, using Cholesky decomposition
  | Lowest eigenvalue:  0.952431E-04
  Factoring overlap matrix with Cholesky decomposition
  Using Cholesky factor for transformation
  Using 1-stage real ELPA solver
  Determining occupation numbers for Kohn-Sham eigenstates.
  | Chemical potential (Fermi level) in eV                 : -.96201682E+01
  | Error in electron count due to remaining E_F inaccuracy: 0.00000000E+00
  | Maximum occupation number of highest empty state:  0.00E+00

  Writing Kohn-Sham eigenvalues.

  State    Occupation    Eigenvalue [Ha]    Eigenvalue [eV]
      1       2.00000         -18.974598         -516.32508
      2       2.00000         -18.974525         -516.32310
      3       2.00000         -18.973411         -516.29277
      4       2.00000         -14.254719         -387.89064
      5       2.00000         -14.252046         -387.81790
      6       2.00000         -14.250726         -387.78198
      7       2.00000         -10.171806         -276.78892
      8       2.00000         -10.171565         -276.78235
      9       2.00000         -10.170585         -276.75569
     10       2.00000         -10.166495         -276.64442
     11       2.00000         -10.148499         -276.15470
     12       2.00000         -10.147538         -276.12855
     13       2.00000         -10.135080         -275.78955
     14       2.00000         -10.133815         -275.75513
     15       2.00000         -10.132531         -275.72019
     16       2.00000          -1.134631          -30.87489
     17       2.00000          -1.131091          -30.77854
     18       2.00000          -1.129469          -30.73441
     19       2.00000          -1.012482          -27.55105
     20       2.00000          -1.009349          -27.46577
     21       2.00000          -1.002601          -27.28216
     22       2.00000          -0.881414          -23.98449
     23       2.00000          -0.876333          -23.84622
     24       2.00000          -0.850006          -23.12985
     25       2.00000          -0.816366          -22.21445
     26       2.00000          -0.782859          -21.30269
     27       2.00000          -0.762297          -20.74316
     28       2.00000          -0.706737          -19.23130
     29       2.00000          -0.686543          -18.68180
     30       2.00000          -0.657768          -17.89879
     31       2.00000          -0.626351          -17.04389
     32       2.00000          -0.620540          -16.88576
     33       2.00000          -0.618113          -16.81971
     34       2.00000          -0.604681          -16.45420
     35       2.00000          -0.599095          -16.30221
     36       2.00000          -0.588279          -16.00789
     37       2.00000          -0.565770          -15.39540
     38       2.00000          -0.561077          -15.26767
     39       2.00000          -0.554857          -15.09842
     40       2.00000          -0.554226          -15.08124
     41       2.00000          -0.548648          -14.92947
     42       2.00000          -0.543270          -14.78313
     43       2.00000          -0.534991          -14.55785
     44       2.00000          -0.527941          -14.36601
     45       2.00000          -0.522594          -14.22051
     46       2.00000          -0.513178          -13.96427
     47       2.00000          -0.510325          -13.88665
     48       2.00000          -0.497132          -13.52765
     49       2.00000          -0.494683          -13.46100
     50       2.00000          -0.485092          -13.20004
     51       2.00000          -0.481731          -13.10858
     52       2.00000          -0.479320          -13.04295
     53       2.00000          -0.412819          -11.23337
     54       2.00000          -0.407745          -11.09531
     55       2.00000          -0.401951          -10.93764
     56       2.00000          -0.384811          -10.47123
     57       2.00000          -0.382027          -10.39548
     58       2.00000          -0.375083          -10.20653
     59       0.00000          -0.176143           -4.79309
     60       0.00000          -0.159155           -4.33082
     61       0.00000          -0.152392           -4.14679
     62       0.00000          -0.084669           -2.30396
     63       0.00000          -0.072387           -1.96976
     64       0.00000          -0.062807           -1.70906
     65       0.00000          -0.056689           -1.54259
     66       0.00000          -0.045430           -1.23621
     67       0.00000          -0.037526           -1.02113
     68       0.00000          -0.030841           -0.83924
     69       0.00000          -0.025866           -0.70384
     70       0.00000          -0.024010           -0.65334
     71       0.00000          -0.020985           -0.57102
     72       0.00000          -0.019185           -0.52204
     73       0.00000          -0.012856           -0.34984
     74       0.00000          -0.007151           -0.19460
     75       0.00000          -0.004532           -0.12332
     76       0.00000          -0.001100           -0.02994
     77       0.00000           0.002655            0.07226
     78       0.00000           0.007035            0.19143
     79       0.00000           0.014432            0.39273
     80       0.00000           0.018317            0.49843
     81       0.00000           0.022534            0.61317
     82       0.00000           0.025873            0.70404
     83       0.00000           0.038796            1.05569
     84       0.00000           0.040610            1.10506
     85       0.00000           0.048468            1.31887
     86       0.00000           0.050168            1.36514
     87       0.00000           0.050819            1.38285
     88       0.00000           0.060397            1.64349
     89       0.00000           0.063737            1.73436
     90       0.00000           0.074182            2.01858
     91       0.00000           0.076931            2.09340
     92       0.00000           0.088013            2.39496
     93       0.00000           0.089707            2.44104
     94       0.00000           0.096056            2.61381
     95       0.00000           0.098333            2.67577
     96       0.00000           0.099272            2.70134
     97       0.00000           0.112715            3.06713
     98       0.00000           0.117678            3.20217
     99       0.00000           0.121885            3.31666
    100       0.00000           0.126260            3.43571
    101       0.00000           0.131347            3.57414
    102       0.00000           0.134907            3.67101
    103       0.00000           0.140093            3.81213
    104       0.00000           0.143360            3.90104
    105       0.00000           0.147930            4.02537
    106       0.00000           0.150144            4.08562
    107       0.00000           0.158215            4.30524
    108       0.00000           0.160668            4.37201
    109       0.00000           0.166355            4.52676
    110       0.00000           0.169857            4.62204
    111       0.00000           0.174588            4.75078
    112       0.00000           0.185644            5.05162
    113       0.00000           0.185982            5.06082
    114       0.00000           0.187535            5.10309
    115       0.00000           0.195861            5.32964
    116       0.00000           0.197973            5.38711
    117       0.00000           0.204546            5.56598
    118       0.00000           0.211548            5.75653
    119       0.00000           0.213763            5.81679
    120       0.00000           0.216058            5.87923
    121       0.00000           0.220583            6.00237
    122       0.00000           0.224731            6.11524
    123       0.00000           0.230823            6.28100
    124       0.00000           0.235554            6.40976
    125       0.00000           0.244684            6.65819
    126       0.00000           0.252911            6.88206
    127       0.00000           0.258512            7.03446
    128       0.00000           0.262017            7.12985
    129       0.00000           0.264825            7.20625

  Highest occupied state (VBM) at    -10.20653149 eV
  | Occupation number:      2.00000000

  Lowest unoccupied state (CBM) at    -4.79309451 eV
  | Occupation number:      0.00000000

  Overall HOMO-LUMO gap:      5.41343698 eV.
  Calculating total energy contributions from superposition of free atom densities.

  Total energy components:
  | Sum of eigenvalues            :        -437.78842649 Ha      -11912.82920287 eV
  | XC energy correction          :         -98.81333208 Ha       -2688.84757288 eV
  | XC potential correction       :         127.01261988 Ha        3456.18923581 eV
  | Free-atom electrostatic energy:        -333.68169200 Ha       -9079.94082149 eV
  | Hartree energy correction     :           0.00000000 Ha           0.00000000 eV
  | vdW energy correction         :           0.00000000 Ha           0.00000000 eV
  | Entropy correction            :          -0.00000000 Ha          -0.00000000 eV
  | ---------------------------
  | Total energy                  :        -743.27083069 Ha      -20225.42836144 eV
  | Total energy, T -> 0          :        -743.27083069 Ha      -20225.42836144 eV  <-- do not rely on this value for anything but (periodic) metals
  | Electronic free energy        :        -743.27083069 Ha      -20225.42836144 eV

  Derived energy quantities:
  | Kinetic energy                :         735.14363685 Ha       20004.27616504 eV
  | Electrostatic energy          :       -1379.60113546 Ha      -37540.85695360 eV
  | Energy correction for multipole
  | error in Hartree potential    :           0.00000000 Ha           0.00000000 eV
  | Sum of eigenvalues per atom                           :        -372.27591259 eV
  | Total energy (T->0) per atom                          :        -632.04463629 eV  <-- do not rely on this value for anything but (periodic) metals
  | Electronic free energy per atom                       :        -632.04463629 eV
  Initialize hartree_potential_storage
  Max. number of atoms included in rho_multipole:           32

  End scf initialization - timings             :  max(cpu_time)    wall_clock(cpu1)
  | Time for scf. initialization               :        1.864 s           1.861 s
  | Boundary condition initialization          :        0.004 s           0.001 s
  | Integration                                :        1.168 s           1.167 s
  | Solution of K.-S. eqns.                    :        0.080 s           0.078 s
  | Grid partitioning                          :        0.272 s           0.269 s
  | Preloading free-atom quantities on grid    :        0.032 s           0.028 s
  | Free-atom superposition energy             :        0.040 s           0.038 s
  | Total energy evaluation                    :        0.000 s           0.001 s
------------------------------------------------------------

------------------------------------------------------------
          Begin self-consistency iteration #    1

  Date     :  20170309, Time     :  190727.770
------------------------------------------------------------
  Evaluating new KS density.
  Integration grid: deviation in total charge (<rho> - N_e) =   0.000000E+00
  Pulay mixing of updated and previous charge densities.

  Evaluating partitioned Hartree potential by multipole expansion.
  | Analytical far-field extrapolation by fixed multipoles:
  | Hartree multipole sum: apparent total charge =  -0.383620E-05
  Summing up the Hartree potential.
  Time summed over all CPUs for potential: real work        9.543 s, elapsed        9.972 s
  | RMS charge density error from multipole expansion :   0.105259E-01

  Integrating Hamiltonian matrix: batch-based integration.
  Time summed over all CPUs for integration: real work       21.695 s, elapsed       22.701 s

  Updating Kohn-Sham eigenvalues, eigenvectors, occupation numbers, and Fermi level.
  Solving generalized eigenproblem
  Solving real symmetric generalised eigenvalue problem by standard ScaLAPACK.
  Using Cholesky factor for transformation
  Using 2-stage real ELPA solver
  K-Point:    1, Trafo times: 1-stage=     0.024 s, 2-stage=     0.019 s ==> Using 2-stage solver
  Determining occupation numbers for Kohn-Sham eigenstates.
  | Chemical potential (Fermi level) in eV                 : -.38796083E+01
  | Error in electron count due to remaining E_F inaccuracy: 0.00000000E+00
  | Maximum occupation number of highest empty state:  0.00E+00

  Writing Kohn-Sham eigenvalues.

  State    Occupation    Eigenvalue [Ha]    Eigenvalue [eV]
      1       2.00000         -18.627538         -506.88109
      2       2.00000         -18.617932         -506.61970
      3       2.00000         -18.597678         -506.06858
      4       2.00000         -13.998749         -380.92535
      5       2.00000         -13.991369         -380.72452
      6       2.00000         -13.978439         -380.37268
      7       2.00000         -10.064311         -273.86385
      8       2.00000         -10.052008         -273.52905
      9       2.00000         -10.037181         -273.12560
     10       2.00000          -9.979851         -271.56556
     11       2.00000          -9.953768         -270.85579
     12       2.00000          -9.911443         -269.70409
     13       2.00000          -9.854678         -268.15943
     14       2.00000          -9.826084         -267.38136
     15       2.00000          -9.817965         -267.16043
     16       2.00000          -0.973981          -26.50337
     17       2.00000          -0.959745          -26.11599
     18       2.00000          -0.942773          -25.65417
     19       2.00000          -0.870877          -23.69777
     20       2.00000          -0.865338          -23.54704
     21       2.00000          -0.847514          -23.06204
     22       2.00000          -0.739273          -20.11665
     23       2.00000          -0.715170          -19.46076
     24       2.00000          -0.688441          -18.73343
     25       2.00000          -0.679965          -18.50278
     26       2.00000          -0.646012          -17.57889
     27       2.00000          -0.617525          -16.80371
     28       2.00000          -0.581391          -15.82045
     29       2.00000          -0.556170          -15.13416
     30       2.00000          -0.526867          -14.33677
     31       2.00000          -0.494592          -13.45853
     32       2.00000          -0.486491          -13.23811
     33       2.00000          -0.477081          -12.98205
     34       2.00000          -0.468936          -12.76039
     35       2.00000          -0.459785          -12.51138
     36       2.00000          -0.451550          -12.28731
     37       2.00000          -0.425053          -11.56628
     38       2.00000          -0.419366          -11.41152
     39       2.00000          -0.410399          -11.16754
     40       2.00000          -0.409000          -11.12945
     41       2.00000          -0.391830          -10.66222
     42       2.00000          -0.387378          -10.54108
     43       2.00000          -0.382196          -10.40009
     44       2.00000          -0.376741          -10.25164
     45       2.00000          -0.367881          -10.01054
     46       2.00000          -0.364243           -9.91156
     47       2.00000          -0.361078           -9.82543
     48       2.00000          -0.354672           -9.65112
     49       2.00000          -0.344912           -9.38555
     50       2.00000          -0.340813           -9.27398
     51       2.00000          -0.329609           -8.96913
     52       2.00000          -0.323402           -8.80023
     53       2.00000          -0.243578           -6.62810
     54       2.00000          -0.239372           -6.51366
     55       2.00000          -0.229322           -6.24018
     56       2.00000          -0.221210           -6.01943
     57       2.00000          -0.203102           -5.52667
     58       2.00000          -0.195377           -5.31648
     59       0.00000          -0.063036           -1.71529
     60       0.00000          -0.047093           -1.28147
     61       0.00000          -0.044125           -1.20072
     62       0.00000          -0.031556           -0.85868
     63       0.00000          -0.026680           -0.72599
     64       0.00000          -0.021280           -0.57905
     65       0.00000          -0.009936           -0.27037
     66       0.00000           0.002650            0.07211
     67       0.00000           0.012474            0.33944
     68       0.00000           0.016109            0.43835
     69       0.00000           0.027574            0.75033
     70       0.00000           0.029317            0.79776
     71       0.00000           0.035348            0.96188
     72       0.00000           0.039903            1.08581
     73       0.00000           0.047822            1.30131
     74       0.00000           0.051378            1.39805
     75       0.00000           0.060208            1.63834
     76       0.00000           0.061830            1.68249
     77       0.00000           0.065905            1.79337
     78       0.00000           0.069842            1.90049
     79       0.00000           0.079302            2.15791
     80       0.00000           0.092768            2.52434
     81       0.00000           0.094410            2.56903
     82       0.00000           0.097503            2.65319
     83       0.00000           0.102877            2.79942
     84       0.00000           0.106156            2.88864
     85       0.00000           0.110989            3.02016
     86       0.00000           0.116190            3.16170
     87       0.00000           0.125292            3.40938
     88       0.00000           0.132280            3.59951
     89       0.00000           0.138076            3.75723
     90       0.00000           0.141231            3.84310
     91       0.00000           0.145878            3.96953
     92       0.00000           0.154648            4.20819
     93       0.00000           0.156278            4.25255
     94       0.00000           0.159820            4.34894
     95       0.00000           0.165616            4.50663
     96       0.00000           0.170736            4.64596
     97       0.00000           0.173160            4.71193
     98       0.00000           0.182610            4.96908
     99       0.00000           0.184491            5.02027
    100       0.00000           0.191170            5.20199
    101       0.00000           0.193536            5.26637
    102       0.00000           0.198783            5.40917
    103       0.00000           0.201442            5.48150
    104       0.00000           0.207083            5.63502
    105       0.00000           0.208763            5.68074
    106       0.00000           0.216046            5.87892
    107       0.00000           0.217837            5.92765
    108       0.00000           0.219523            5.97353
    109       0.00000           0.222351            6.05047
    110       0.00000           0.233218            6.34619
    111       0.00000           0.236467            6.43460
    112       0.00000           0.244590            6.65563
    113       0.00000           0.249953            6.80158
    114       0.00000           0.252418            6.86864
    115       0.00000           0.258930            7.04584
    116       0.00000           0.266355            7.24788
    117       0.00000           0.268101            7.29539
    118       0.00000           0.273893            7.45302
    119       0.00000           0.278360            7.57455
    120       0.00000           0.282207            7.67924
    121       0.00000           0.284219            7.73400
    122       0.00000           0.294139            8.00394
    123       0.00000           0.300031            8.16425
    124       0.00000           0.303039            8.24610
    125       0.00000           0.313275            8.52466
    126       0.00000           0.322820            8.78437
    127       0.00000           0.330844            9.00272
    128       0.00000           0.338285            9.20519
    129       0.00000           0.340965            9.27813

  Highest occupied state (VBM) at     -5.31647936 eV
  | Occupation number:      2.00000000

  Lowest unoccupied state (CBM) at    -1.71528983 eV
  | Occupation number:      0.00000000

  Overall HOMO-LUMO gap:      3.60118954 eV.

  Total energy components:
  | Sum of eigenvalues            :        -417.35801464 Ha      -11356.88941046 eV
  | XC energy correction          :        -100.74178256 Ha       -2741.32338032 eV
  | XC potential correction       :         129.51322579 Ha        3524.23418473 eV
  | Free-atom electrostatic energy:        -333.68169200 Ha       -9079.94082149 eV
  | Hartree energy correction     :         -20.43184012 Ha        -555.97865765 eV
  | vdW energy correction         :           0.00000000 Ha           0.00000000 eV
  | Entropy correction            :           0.00000000 Ha           0.00000000 eV
  | ---------------------------
  | Total energy                  :        -742.70010352 Ha      -20209.89808519 eV
  | Total energy, T -> 0          :        -742.70010352 Ha      -20209.89808519 eV  <-- do not rely on this value for anything but (periodic) metals
  | Electronic free energy        :        -742.70010352 Ha      -20209.89808519 eV

  Derived energy quantities:
  | Kinetic energy                :         743.99914195 Ha       20245.24671927 eV
  | Electrostatic energy          :       -1385.95746292 Ha      -37713.82142415 eV
  | Energy correction for multipole
  | error in Hartree potential    :          -0.04153510 Ha          -1.13022752 eV
  | Sum of eigenvalues per atom                           :        -354.90279408 eV
  | Total energy (T->0) per atom                          :        -631.55931516 eV  <-- do not rely on this value for anything but (periodic) metals
  | Electronic free energy per atom                       :        -631.55931516 eV

  Self-consistency convergence accuracy:
  | Change of charge density      :  0.9039E+00
  | Change of sum of eigenvalues  :  0.5559E+03 eV
  | Change of total energy        :  0.1553E+02 eV

  End self-consistency iteration #     1       :  max(cpu_time)    wall_clock(cpu1)
  | Time for this iteration                    :        1.568 s           1.567 s
  | Charge density update                      :        0.492 s           0.489 s
[...]
   ----------------------------------------------------------------
   Total forces(  20)            :  0.235232E-02  0.893611E-03 -0.125968E-02
  atom #   21
   Hellmann-Feynman              :  0.592380E-01  0.299993E-01 -0.138944E-01
   Ionic forces                  :  0.000000E+00  0.000000E+00  0.000000E+00
   Multipole                     : -0.311053E-01  0.133403E-01  0.245814E-01
   Pulay + GGA                   : -0.318864E-01 -0.556611E-01 -0.180603E-01
   Van der Waals                 :  0.366464E-02  0.117416E-01  0.631748E-02
   ----------------------------------------------------------------
   Total forces(  21)            : -0.890607E-04 -0.579827E-03 -0.105589E-02
  atom #   22
   Hellmann-Feynman              :  0.445090E-01  0.275438E-01  0.179995E-01
   Ionic forces                  :  0.000000E+00  0.000000E+00  0.000000E+00
   Multipole                     : -0.547793E-02  0.145095E-01 -0.124444E-02
   Pulay + GGA                   : -0.561817E-01 -0.355459E-01 -0.111171E-01
   Van der Waals                 :  0.169244E-01 -0.697252E-02 -0.528278E-02
   ----------------------------------------------------------------
   Total forces(  22)            : -0.226194E-03 -0.465187E-03  0.355122E-03
  atom #   23
   Hellmann-Feynman              :  0.210778E+00  0.301630E+00  0.109078E+01
   Ionic forces                  :  0.000000E+00  0.000000E+00  0.000000E+00
   Multipole                     : -0.645401E-01 -0.202426E+00 -0.265190E+00
   Pulay + GGA                   : -0.127906E+00 -0.942595E-01 -0.837967E+00
   Van der Waals                 : -0.183281E-01 -0.526583E-02  0.121500E-01
   ----------------------------------------------------------------
   Total forces(  23)            :  0.415655E-05 -0.321805E-03 -0.228524E-03
  atom #   24
   Hellmann-Feynman              :  0.352982E-01 -0.239239E-01 -0.343776E-01
   Ionic forces                  :  0.000000E+00  0.000000E+00  0.000000E+00
   Multipole                     :  0.194835E-01  0.102940E-01  0.187221E-01
   Pulay + GGA                   : -0.621747E-01  0.130589E-01  0.126406E-01
   Van der Waals                 :  0.722011E-02  0.128724E-02  0.275327E-02
   ----------------------------------------------------------------
   Total forces(  24)            : -0.172866E-03  0.716312E-03 -0.261688E-03
  atom #   25
   Hellmann-Feynman              : -0.317172E-01 -0.165652E-01 -0.183903E-01
   Ionic forces                  :  0.000000E+00  0.000000E+00  0.000000E+00
   Multipole                     : -0.774058E-02 -0.242152E-01  0.147167E-01
   Pulay + GGA                   :  0.503751E-01  0.403467E-01  0.235368E-02
   Van der Waals                 : -0.105672E-01  0.797245E-03  0.144251E-02
   ----------------------------------------------------------------
   Total forces(  25)            :  0.350220E-03  0.363627E-03  0.122637E-03
  atom #   26
   Hellmann-Feynman              : -0.157006E-01 -0.107322E-01 -0.485882E-01
   Ionic forces                  :  0.000000E+00  0.000000E+00  0.000000E+00
   Multipole                     : -0.817101E-02  0.354971E-01  0.931716E-02
   Pulay + GGA                   :  0.133495E-01 -0.303256E-01  0.465136E-01
   Van der Waals                 :  0.101530E-01  0.551272E-02 -0.663080E-02
   ----------------------------------------------------------------
   Total forces(  26)            : -0.369196E-03 -0.479746E-04  0.611820E-03
  atom #   27
   Hellmann-Feynman              :  0.130032E+01  0.749609E+00 -0.523860E+00
   Ionic forces                  :  0.000000E+00  0.000000E+00  0.000000E+00
   Multipole                     :  0.162317E+00  0.547344E-01 -0.272963E-01
   Pulay + GGA                   : -0.147159E+01 -0.806683E+00  0.553905E+00
   Van der Waals                 :  0.923119E-02  0.136704E-02 -0.110595E-02
   ----------------------------------------------------------------
   Total forces(  27)            :  0.270894E-03 -0.972809E-03  0.164291E-02
  atom #   28
   Hellmann-Feynman              : -0.181736E+01 -0.811396E+00  0.843438E+00
   Ionic forces                  :  0.000000E+00  0.000000E+00  0.000000E+00
   Multipole                     :  0.943366E-01  0.577641E-01 -0.579984E-01
   Pulay + GGA                   :  0.172324E+01  0.750842E+00 -0.787265E+00
   Van der Waals                 :  0.167689E-02  0.397212E-02  0.502758E-03
   ----------------------------------------------------------------
   Total forces(  28)            :  0.189717E-02  0.118196E-02 -0.132268E-02
  atom #   29
   Hellmann-Feynman              :  0.561167E-01 -0.263602E-01  0.156944E-01
   Ionic forces                  :  0.000000E+00  0.000000E+00  0.000000E+00
   Multipole                     : -0.344241E-01 -0.152465E-01  0.178602E-01
   Pulay + GGA                   : -0.264885E-01  0.480377E-01 -0.406500E-01
   Van der Waals                 :  0.428474E-02 -0.607084E-02  0.651999E-02
   ----------------------------------------------------------------
   Total forces(  29)            : -0.511194E-03  0.360180E-03 -0.575373E-03
  atom #   30
   Hellmann-Feynman              :  0.536499E-01  0.513681E-02 -0.570599E-02
   Ionic forces                  :  0.000000E+00  0.000000E+00  0.000000E+00
   Multipole                     : -0.416371E-02 -0.345349E-01  0.278195E-01
   Pulay + GGA                   : -0.536612E-01  0.318610E-01 -0.240278E-01
   Van der Waals                 :  0.449392E-02 -0.246898E-02  0.244543E-02
   ----------------------------------------------------------------
   Total forces(  30)            :  0.318976E-03 -0.605926E-05  0.531208E-03
  atom #   31
   Hellmann-Feynman              :  0.187963E-01  0.168993E-01 -0.492543E-01
   Ionic forces                  :  0.000000E+00  0.000000E+00  0.000000E+00
   Multipole                     : -0.388068E-02 -0.185662E-01 -0.215636E-01
   Pulay + GGA                   : -0.294897E-02 -0.309566E-02  0.690124E-01
   Van der Waals                 : -0.119870E-01  0.419920E-02  0.209824E-02
   ----------------------------------------------------------------
   Total forces(  31)            : -0.204171E-04 -0.563410E-03  0.292792E-03
  atom #   32
   Hellmann-Feynman              :  0.130247E-01  0.474595E-01 -0.265977E-01
   Ionic forces                  :  0.000000E+00  0.000000E+00  0.000000E+00
   Multipole                     :  0.110774E-02  0.223662E-01  0.258868E-01
   Pulay + GGA                   : -0.988798E-02 -0.694652E-01  0.817280E-03
   Van der Waals                 : -0.452584E-02 -0.715525E-03 -0.115441E-03
   ----------------------------------------------------------------
   Total forces(  32)            : -0.281418E-03 -0.354981E-03 -0.908088E-05

  Timings for VdW correction (Tkatchenko-Scheffler 2009 or later):
  | CPU time:        0.124 s, Wall clock time:        0.125 s.
  Removing unitary transformations (pure translations, rotations) from forces on atoms.
  Atomic forces before filtering:
  | Net force on center of mass :  -0.303199E-03  0.751586E-04  0.143696E-03 eV/A
  | Net torque on center of mass:   0.111049E-02  0.162464E-02 -0.142952E-03 eV
  Atomic forces after filtering:
  | Net force on center of mass :   0.696899E-18  0.121957E-17 -0.566230E-18 eV/A
  | Net torque on center of mass:   0.645370E-18 -0.232794E-17 -0.115245E-17 eV

  Energy and forces in a compact form:
  | Total energy uncorrected      :         -0.202082601148674E+05 eV
  | Total energy corrected        :         -0.202082601148674E+05 eV  <-- do not rely on this value for anything but (periodic) metals
  | Electronic free energy        :         -0.202082601148674E+05 eV
  Total atomic forces (unitary forces cleaned) [eV/Ang]:
  |   1          0.403244942505592E-03          0.310777902900247E-03          0.584718722263136E-03
  |   2         -0.169587150287082E-02          0.364184206726409E-03         -0.347266106733506E-02
  |   3          0.239083175389755E-03         -0.484139407389628E-03          0.308040022527441E-02
  |   4          0.204922998478755E-03         -0.168404263000057E-03         -0.294673344529513E-03
  |   5         -0.122100153556288E-03         -0.496791323369251E-03         -0.160736600112375E-03
  |   6         -0.191504643149690E-04         -0.900362233884549E-04          0.497551280230426E-03
  |   7          0.133743783873481E-02         -0.118984434609625E-03         -0.238912075137714E-02
  |   8          0.790132436436826E-03         -0.134677535331777E-03          0.217965410194060E-02
  |   9         -0.130017523413197E-02          0.141667451821188E-02          0.207111983702987E-03
  |  10          0.116750153561624E-02         -0.166570006772418E-02         -0.102672034937693E-02
  |  11         -0.562376313648440E-03          0.853915884372930E-04          0.913512549919607E-03
  |  12         -0.480684800754282E-03         -0.198611091862928E-04          0.484696975316336E-04
  |  13         -0.582490750213732E-03          0.516275271046966E-03         -0.179406163244903E-03
  |  14          0.791431241873385E-04         -0.191088178026982E-03         -0.149404335361236E-03
  |  15         -0.574815775257100E-03         -0.749513184615063E-04         -0.908600699069410E-04
  |  16         -0.223005846182688E-03          0.471987151058720E-03          0.112799276360419E-04
  |  17         -0.745956891293669E-03          0.143200908008510E-02          0.132034692541897E-02
  |  18          0.136623169563152E-02          0.570752687363929E-03         -0.125135582825637E-02
  |  19         -0.293054729890458E-02         -0.190308167897191E-02          0.157146935118422E-02
  |  20          0.236915606182983E-02          0.872835460372050E-03         -0.128323034805101E-02
  |  21         -0.768717368997825E-04         -0.591074651160826E-03         -0.104046747519622E-02
  |  22         -0.217419933355902E-03         -0.465791887605713E-03          0.352564809389353E-03
  |  23          0.804715754565177E-05         -0.308334236379980E-03         -0.242159713007299E-03
  |  24         -0.170402427502534E-03          0.734245384774254E-03         -0.283010217576519E-03
  |  25          0.354521144616234E-03          0.376538406973922E-03          0.101948440036145E-03
  |  26         -0.368434015914180E-03         -0.268014554352521E-04          0.607883994861571E-03
  |  27          0.285467053612809E-03         -0.987017169476775E-03          0.161377366656873E-02
  |  28          0.190888938612233E-02          0.117526915658103E-02         -0.134943626574357E-02
  |  29         -0.493630067294065E-03          0.338575669801902E-03         -0.613378215014680E-03
  |  30          0.332311199240915E-03         -0.163951248038416E-04          0.495367323844596E-03
  |  31         -0.131211146935027E-04         -0.558034813750200E-03          0.264911794682854E-03
  |  32         -0.269035423160104E-03         -0.364351606261445E-03         -0.243440503955143E-04

  ------------------------------------ 
  Start decomposition of the XC Energy 
  ------------------------------------ 
  Hartree-Fock part   :          0.000000000 Ha              0.000000000 eV
  ------------------------------------ 
  X Energy            :        -96.978254716 Ha          -2638.912577208 eV
  C Energy GGA        :         -3.868002704 Ha           -105.253708818 eV
  Total XC Energy     :       -100.846257419 Ha          -2744.166286025 eV
  LDA X and C from self-consistent density 
  X Energy LDA        :        -87.993993313 Ha          -2394.438385724 eV
  C Energy LDA        :         -7.531818682 Ha           -204.951214150 eV
  ------------------------------------ 
  End decomposition of the XC Energy 
  ------------------------------------ 
   
  ESP charge fitting starts.
  | Calculation :  00000001  of  00000001
  | Full density
  Computing multipole expansion for total density.
  Generating points for esp charges.
  Partitioning the integration grid into batches with parallel hashing+maxmin method.
  | Number of batches:     3879
  | Maximal batch size:     198
  | Minimal batch size:      94
  | Average batch size:     125.320
  | Standard deviation of batch sizes:      18.244

  Integration load balanced across    32 MPI tasks.
  Work distribution over tasks is as follows:
  Initializing partition tables, free-atom densities, potentials, etc. across the integration grid (initialize_grid_storage).
  | Original list of interatomic distances with          32 x         32 entries is created.
  | Net number of integration points:   486117
  | of which are non-zero points    :   486117
  Summing up potential from multipole expanded  density.
  Summing up the Hartree potential.
  Time summed over all CPUs for potential: real work        6.486 s, elapsed        6.818 s
  Fitting esp charges to potential.
  |
  | ESP charges fitted to the electrostatic potential :
  |
  | Atom         1: C, ESP charge:      0.76380338
  |
  | Atom         2: C, ESP charge:     -0.80499053
  |
  | Atom         3: O, ESP charge:      0.57814478
  |
  | Atom         4: H, ESP charge:     -0.20464372
  |
  | Atom         5: H, ESP charge:     -0.24841531
  |
  | Atom         6: H, ESP charge:     -0.19161930
  |
  | Atom         7: N, ESP charge:      0.78617745
  |
  | Atom         8: C, ESP charge:     -0.69133397
  |
  | Atom         9: C, ESP charge:     -0.62988613
  |
  | Atom        10: O, ESP charge:      0.58546738
  |
  | Atom        11: H, ESP charge:     -0.29546409
  |
  | Atom        12: H, ESP charge:      0.07973968
  |
  | Atom        13: C, ESP charge:      0.40825575
  |
  | Atom        14: H, ESP charge:     -0.07465851
  |
  | Atom        15: H, ESP charge:     -0.10249558
  |
  | Atom        16: H, ESP charge:     -0.08980556
  |
  | Atom        17: N, ESP charge:      0.80029888
  |
  | Atom        18: C, ESP charge:     -0.61224023
  |
  | Atom        19: C, ESP charge:     -0.28978759
  |
  | Atom        20: O, ESP charge:      0.52483892
  |
  | Atom        21: H, ESP charge:     -0.34912453
  |
  | Atom        22: H, ESP charge:     -0.03914844
  |
  | Atom        23: C, ESP charge:      0.87455536
  |
  | Atom        24: H, ESP charge:     -0.22775836
  |
  | Atom        25: H, ESP charge:     -0.25374545
  |
  | Atom        26: H, ESP charge:     -0.22134892
  |
  | Atom        27: N, ESP charge:      0.27533434
  |
  | Atom        28: C, ESP charge:      0.39546199
  |
  | Atom        29: H, ESP charge:     -0.30895730
  |
  | Atom        30: H, ESP charge:     -0.18017477
  |
  | Atom        31: H, ESP charge:     -0.12247736
  |
  | Atom        32: H, ESP charge:     -0.13400227

  RRMS:       0.00117254

  Done.

------------------------------------------------------------------------------
  Final output of selected total energy values:

  The following output summarizes some interesting total energy values
  at the end of a run (AFTER all relaxation, molecular dynamics, etc.).

  | Total energy of the DFT / Hartree-Fock s.c.f. calculation      :         -20208.260114867 eV
  | Final zero-broadening corrected energy (caution - metals only) :         -20208.260114867 eV
  | For reference only, the value of 1 Hartree used in FHI-aims is :             27.211384500 eV

  Before relying on these values, please be sure to understand exactly which
  total energy value is referred to by a given number. Different objects may
  all carry the same name 'total energy'. Definitions:

  Total energy of the DFT / Hartree-Fock s.c.f. calculation:
  | Note that this energy does not include ANY quantities calculated after the
  | s.c.f. cycle, in particular not ANY RPA, MP2, etc. many-body perturbation terms.

  Final zero-broadening corrected energy:
  | For metallic systems only, a broadening of the occupation numbers at the Fermi
  | level can be extrapolated back to zero broadening by an electron-gas inspired
  | formula. For all systems that are not real metals, this value can be
  | meaningless and should be avoided.

------------------------------------------------------------------------------
  Methods described in the following list of references were used in this FHI-aims run.
  If you publish the results, please make sure to cite these reference if they apply.
  FHI-aims is an academic code, and for our developers (often, Ph.D. students
  and postdocs), scientific credit in the community is essential.
  Thank you for helping us!

  For any use of FHI-aims, please cite:

    Volker Blum, Ralf Gehrke, Felix Hanke, Paula Havu, Ville Havu,
    Xinguo Ren, Karsten Reuter, and Matthias Scheffler
    'Ab initio molecular simulations with numeric atom-centered orbitals'
    Computer Physics Communications 180, 2175-2196 (2009)
    http://dx.doi.org/10.1016/j.cpc.2009.06.022


  The scalable eigensolver library ELPA was used in your run.
  ELPA is essential especially for large systems on hundreds or thousands of CPUs.
  For ELPA, please cite:

    Andreas Marek, Volker Blum, Rainer Johanni, Ville Havu, Bruno Lang,
    Thomas Auckenthaler, Alexander Heinecke, Hans-Joachim Bungartz, and Hermann Lederer,
    'The ELPA Library - Scalable Parallel Eigenvalue Solutions
    for Electronic Structure Theory and Computational Science'
    The Journal of Physics: Condensed Matter 26, 213201 (2014).
    http://dx.doi.org/10.1088/0953-8984/26/21/213201


  For ELPA's efficient two-stage tridiagonalization used in your run, please cite:

    T. Auckenthaler, V. Blum, H.-J. Bungartz, T. Huckle, R. Johanni, L. Kraemer,
    B. Lang, H. Lederer, and P. R. Willems,
    'Parallel solution of partial symmetric eigenvalue problems'
    'from  electronic structure calculations'
    Parallel Computing 37, 783-794 (2011).
    http://dx.doi.org/10.1016/j.parco.2011.05.002


  For the real-space grid partitioning and parallelization used in this calculation, please cite:

    Ville Havu, Volker Blum, Paula Havu, and Matthias Scheffler,
    'Efficient O(N) integration for all-electron electronic structure calculation'
    'using numerically tabulated basis functions'
    Journal of Computational Physics 228, 8367-8379 (2009).
    http://dx.doi.org/10.1016/j.jcp.2009.08.008

  Of course, there are many other important community references, e.g., those cited in the
  above references. Our list is limited to references that describe implementations in the
  FHI-aims code. The reason is purely practical (length of this list) - please credit others as well.

------------------------------------------------------------
          Leaving FHI-aims.
          Date     :  20170309, Time     :  190756.320

          Computational steps:
          | Number of self-consistency cycles          :           14

          Detailed time accounting                     :  max(cpu_time)    wall_clock(cpu1)
          | Total time                                 :       31.094 s          31.446 s
          | Preparation time                           :        0.236 s           0.234 s
          | Grid partitioning                          :        0.272 s           0.269 s
          | Preloading free-atom quantities on grid    :        0.032 s           0.028 s
          | Free-atom superposition energy             :        0.040 s           0.038 s
          | Total time for integrations                :       11.333 s          11.316 s
          | Total time for solution of K.-S. equations :        0.532 s           0.504 s
          | Total time for density & force components  :        9.881 s           9.849 s
          | Total time for mixing                      :        0.132 s           0.107 s
          | Total time for Hartree multipole update    :        0.076 s           0.058 s
          | Total time for Hartree multipole sum       :        6.504 s           6.475 s
          | Total time for total energy evaluation     :        0.028 s           0.026 s
          | Total time for vdW correction              :        0.124 s           0.125 s

          Have a nice day.
------------------------------------------------------------
