  MPI-parallelism will be employed.
------------------------------------------------------------
          Invoking FHI-aims ...
          Version 150427
          Git rev.: 9dd23e0 BL: Update Version stamp
          Compiled on 2015/11/03 at 22:05:20 on host eos03.

          When using FHI-aims, please cite the following reference:

          Volker Blum, Ralf Gehrke, Felix Hanke, Paula Havu,
          Ville Havu, Xinguo Ren, Karsten Reuter, and Matthias Scheffler,
          'Ab Initio Molecular Simulations with Numeric Atom-Centered Orbitals: FHI-aims',
          Computer Physics Communications 180, 2175-2196 (2009)

          For any questions about FHI-aims, please visit the aimsclub website
          with its forums and wiki. Contributions to both the forums and the
          wiki are warmly encouraged - they are for you, and everyone is welcome there.

------------------------------------------------------------

  Date     :  20170309, Time     :  182255.562
  Time zero on CPU 1             :   0.420026000000000E+00  s.
  Internal wall clock time zero  :           258315775.562  s.

  Using       32 parallel tasks.
  Task        0 on host eos366 reporting.
  Task        1 on host eos366 reporting.
  Task        2 on host eos366 reporting.
  Task        3 on host eos366 reporting.
  Task        4 on host eos366 reporting.
  Task        5 on host eos366 reporting.
  Task        6 on host eos366 reporting.
  Task        7 on host eos366 reporting.
  Task        8 on host eos366 reporting.
  Task        9 on host eos366 reporting.
  Task       10 on host eos366 reporting.
  Task       11 on host eos366 reporting.
  Task       12 on host eos366 reporting.
  Task       13 on host eos366 reporting.
  Task       14 on host eos366 reporting.
  Task       15 on host eos366 reporting.
  Task       16 on host eos366 reporting.
  Task       17 on host eos366 reporting.
  Task       18 on host eos366 reporting.
  Task       19 on host eos366 reporting.
  Task       20 on host eos366 reporting.
  Task       21 on host eos366 reporting.
  Task       22 on host eos366 reporting.
  Task       23 on host eos366 reporting.
  Task       24 on host eos366 reporting.
  Task       25 on host eos366 reporting.
  Task       26 on host eos366 reporting.
  Task       27 on host eos366 reporting.
  Task       28 on host eos366 reporting.
  Task       29 on host eos366 reporting.
  Task       30 on host eos366 reporting.
  Task       31 on host eos366 reporting.

  Performing system and environment tests:
  | Environment variable OMP_NUM_THREADS correctly set to 1.
  | Stacksize not measured: no C compiler
  | Checking for scalapack...
  | Testing pdtran()...
  | All pdtran() tests passed.

  Obtaining array dimensions for all initial allocations:
  
  -----------------------------------------------------------------------
  Parsing control.in (first pass over file, find array dimensions only).
  The contents of control.in will be repeated verbatim below
  unless switched off by setting 'verbatim_writeout .false.' .
  in the first line of control.in .
  -----------------------------------------------------------------------
  
  #########################################################################################
  #
  # Input for System
  #
  #########################################################################################
  #
  #
  #  Physical model
  #
    xc                 pbe
    vdw_correction_hirshfeld
    spin               none
    charge             0.
  #
  #  SCF convergence
  #
    occupation_type    gaussian 0.05
    mixer              pulay
      n_max_pulay        10
      charge_mix_param   0.5
    sc_accuracy_rho    1E-4
    sc_accuracy_eev    1E-2
    sc_accuracy_etot   1E-5
    sc_accuracy_forces 1E-4
    sc_iter_limit      1000
  #
  #  ESP charge
  #
    output esp
    esp equal_grid_n 80 80 80
  #
  #
  ################################################################################
  #
  #  FHI-aims code project
  # Volker Blum, Fritz Haber Institute Berlin, 2009
  #
  #  Suggested "tight" defaults for H atom (to be pasted into control.in file)
  #
  ################################################################################
    species        H
  #     global species definitions
      nucleus             1
      mass                1.00794
  #
      l_hartree           6
  #
      cut_pot             4.0  2.0  1.0
      basis_dep_cutoff    1e-4
  #
      radial_base         24 7.0
      radial_multiplier   2
      angular_grids       specified
        division   0.1930   50
        division   0.3175  110
        division   0.4293  194
        division   0.5066  302
        division   0.5626  434
  #      division   0.5922  590
  #      division   0.6227  974
  #      division   0.6868 1202
  #      outer_grid  770
        outer_grid  434
  ################################################################################
  #
  #  Definition of "minimal" basis
  #
  ################################################################################
  #     valence basis states
      valence      1  s   1.
  #     ion occupancy
      ion_occ      1  s   0.5
  ################################################################################
  #
  #  Suggested additional basis functions. For production calculations,
  #  uncomment them one after another (the most important basis functions are
  #  listed first).
  #
  #  Basis constructed for dimers: 0.5 A, 0.7 A, 1.0 A, 1.5 A, 2.5 A
  #
  ################################################################################
  #  "First tier" - improvements: -1014.90 meV to -62.69 meV
       hydro 2 s 2.1
       hydro 2 p 3.5
  #  "Second tier" - improvements: -12.89 meV to -1.83 meV
       hydro 1 s 0.85
       hydro 2 p 3.7
       hydro 2 s 1.2
       hydro 3 d 7
  #  "Third tier" - improvements: -0.25 meV to -0.12 meV
  #     hydro 4 f 11.2
  #     hydro 3 p 4.8
  #     hydro 4 d 9
  #     hydro 3 s 3.2
  ################################################################################
  #
  # For methods that use the localized form of the "resolution of identity" for
  # the two-electron Coulomb operator (RI_method LVL), particularly Hartree-Fock and
  # hybrid density functional calculations, the highest accuracy can be obtained by
  # uncommenting the line beginning with "for_aux"  below, thus adding an extra g radial
  # function to the construction of the product basis set for the expansion.
  # See Ref. New J. Phys. 17, 093020 (2015) for more information, particularly Figs. 1 and 6.
  #
  ################################################################################
  #
  # for_aux hydro 5 g 6.0
  ################################################################################
  #
  #  FHI-aims code project
  # Volker Blum, Fritz Haber Institute Berlin, 2009
  #
  #  Suggested "tight" defaults for C atom (to be pasted into control.in file)
  #
  ################################################################################
    species        C
  #     global species definitions
      nucleus             6
      mass                12.0107
  #
      l_hartree           6
  #
      cut_pot             4.0  2.0  1.0
      basis_dep_cutoff    1e-4
  #
      radial_base         34 7.0
      radial_multiplier   2
      angular_grids specified
        division   0.2187   50
        division   0.4416  110
        division   0.6335  194
        division   0.7727  302
        division   0.8772  434
  #      division   0.9334  590
  #      division   0.9924  770
  #      division   1.0230  974
  #      division   1.5020 1202
  #     outer_grid  974
        outer_grid  434
  ################################################################################
  #
  #  Definition of "minimal" basis
  #
  ################################################################################
  #     valence basis states
      valence      2  s   2.
      valence      2  p   2.
  #     ion occupancy
      ion_occ      2  s   1.
      ion_occ      2  p   1.
  ################################################################################
  #
  #  Suggested additional basis functions. For production calculations,
  #  uncomment them one after another (the most important basis functions are
  #  listed first).
  #
  #  Constructed for dimers: 1.0 A, 1.25 A, 1.5 A, 2.0 A, 3.0 A
  #
  ################################################################################
  #  "First tier" - improvements: -1214.57 meV to -155.61 meV
       hydro 2 p 1.7
       hydro 3 d 6
       hydro 2 s 4.9
  #  "Second tier" - improvements: -67.75 meV to -5.23 meV
       hydro 4 f 9.8
       hydro 3 p 5.2
       hydro 3 s 4.3
       hydro 5 g 14.4
       hydro 3 d 6.2
  #  "Third tier" - improvements: -2.43 meV to -0.60 meV
  #     hydro 2 p 5.6
  #     hydro 2 s 1.4
  #     hydro 3 d 4.9
  #     hydro 4 f 11.2
  #  "Fourth tier" - improvements: -0.39 meV to -0.18 meV
  #     hydro 2 p 2.1
  #     hydro 5 g 16.4
  #     hydro 4 d 13.2
  #     hydro 3 s 13.6
  #     hydro 4 f 17.6
  #  Further basis functions - improvements: -0.08 meV and below
  #     hydro 3 s 2
  #     hydro 3 p 6
  #     hydro 4 d 20
  ################################################################################
  #
  # For methods that use the localized form of the "resolution of identity" for
  # the two-electron Coulomb operator (RI_method LVL), particularly Hartree-Fock and
  # hybrid density functional calculations, the highest accuracy can be obtained by
  # uncommenting the line beginning with "for_aux"  below, thus adding an extra g radial
  # function to the construction of the product basis set for the expansion.
  # See Ref. New J. Phys. 17, 093020 (2015) for more information, particularly Figs. 1 and 6.
  #
  ################################################################################
  #
  # for_aux hydro 5 g 6.0
  ################################################################################
  #
  #  FHI-aims code project
  # Volker Blum, Fritz Haber Institute Berlin, 2009
  #
  #  Suggested "tight" defaults for N atom (to be pasted into control.in file)
  #
  ################################################################################
    species        N
  #     global species definitions
      nucleus             7
      mass                14.0067
  #
      l_hartree           6
  #
      cut_pot             4.0  2.0  1.0
      basis_dep_cutoff    1e-4
  #
      radial_base         35 7.0
      radial_multiplier   2
      angular_grids       specified
        division   0.1841   50
        division   0.3514  110
        division   0.5126  194
        division   0.6292  302
        division   0.6939  434
  #      division   0.7396  590
  #      division   0.7632  770
  #      division   0.8122  974
  #      division   1.1604 1202
  #      outer_grid  974
        outer_grid  434
  ################################################################################
  #
  #  Definition of "minimal" basis
  #
  ################################################################################
  #     valence basis states
      valence      2  s   2.
      valence      2  p   3.
  #     ion occupancy
      ion_occ      2  s   1.
      ion_occ      2  p   2.
  ################################################################################
  #
  #  Suggested additional basis functions. For production calculations,
  #  uncomment them one after another (the most important basis functions are
  #  listed first).
  #
  #  Constructed for dimers: 1.0 A, 1.1 A, 1.5 A, 2.0 A, 3.0 A
  #
  ################################################################################
  #  "First tier" - improvements: -1193.42 meV to -220.60 meV
       hydro 2 p 1.8
       hydro 3 d 6.8
       hydro 3 s 5.8
  #  "Second tier" - improvements: -80.21 meV to -6.86 meV
       hydro 4 f 10.8
       hydro 3 p 5.8
       hydro 1 s 0.8
       hydro 5 g 16
       hydro 3 d 4.9
  #  "Third tier" - improvements: -4.29 meV to -0.53 meV
  #     hydro 3 s 16
  #     ionic 2 p auto
  #     hydro 3 d 6.6
  #     hydro 4 f 11.6
  #  "Fourth tier" - improvements: -0.75 meV to -0.25 meV
  #     hydro 2 p 4.5
  #     hydro 2 s 2.4
  #     hydro 5 g 14.4
  #     hydro 4 d 14.4
  #     hydro 4 f 16.8
  # Further basis functions - -0.21 meV and below
  #     hydro 3 p 14.8
  #     hydro 3 s 4.4
  #     hydro 3 d 19.6
  #     hydro 5 g 12.8
  ################################################################################
  #
  # For methods that use the localized form of the "resolution of identity" for
  # the two-electron Coulomb operator (RI_method LVL), particularly Hartree-Fock and
  # hybrid density functional calculations, the highest accuracy can be obtained by
  # uncommenting the line beginning with "for_aux"  below, thus adding an extra g radial
  # function to the construction of the product basis set for the expansion.
  # See Ref. New J. Phys. 17, 093020 (2015) for more information, particularly Figs. 1 and 6.
  #
  ################################################################################
  #
  # for_aux hydro 5 g 6.0
  ################################################################################
  #
  #  FHI-aims code project
  # Volker Blum, Fritz Haber Institute Berlin, 2009
  #
  #  Suggested "tight" defaults for O atom (to be pasted into control.in file)
  #
  ################################################################################
    species        O
  #     global species definitions
      nucleus             8
      mass                15.9994
  #
      l_hartree           6
  #
      cut_pot             4.0  2.0  1.0
      basis_dep_cutoff    1e-4
  #
      radial_base         36 7.0
      radial_multiplier   2
       angular_grids specified
        division   0.1817   50
        division   0.3417  110
        division   0.4949  194
        division   0.6251  302
        division   0.8014  434
  #      division   0.8507  590
  #      division   0.8762  770
  #      division   0.9023  974
  #      division   1.2339 1202
  #      outer_grid 974
        outer_grid  434
  ################################################################################
  #
  #  Definition of "minimal" basis
  #
  ################################################################################
  #     valence basis states
      valence      2  s   2.
      valence      2  p   4.
  #     ion occupancy
      ion_occ      2  s   1.
      ion_occ      2  p   3.
  ################################################################################
  #
  #  Suggested additional basis functions. For production calculations,
  #  uncomment them one after another (the most important basis functions are
  #  listed first).
  #
  #  Constructed for dimers: 1.0 A, 1.208 A, 1.5 A, 2.0 A, 3.0 A
  #
  ################################################################################
  #  "First tier" - improvements: -699.05 meV to -159.38 meV
       hydro 2 p 1.8
       hydro 3 d 7.6
       hydro 3 s 6.4
  #  "Second tier" - improvements: -49.91 meV to -5.39 meV
       hydro 4 f 11.6
       hydro 3 p 6.2
       hydro 3 d 5.6
       hydro 5 g 17.6
       hydro 1 s 0.75
  #  "Third tier" - improvements: -2.83 meV to -0.50 meV
  #     ionic 2 p auto
  #     hydro 4 f 10.8
  #     hydro 4 d 4.7
  #     hydro 2 s 6.8
  #  "Fourth tier" - improvements: -0.40 meV to -0.12 meV
  #     hydro 3 p 5
  #     hydro 3 s 3.3
  #     hydro 5 g 15.6
  #     hydro 4 f 17.6
  #     hydro 4 d 14
  # Further basis functions - -0.08 meV and below
  #     hydro 3 s 2.1
  #     hydro 4 d 11.6
  #     hydro 3 p 16
  #     hydro 2 s 17.2
  ################################################################################
  #
  # For methods that use the localized form of the "resolution of identity" for
  # the two-electron Coulomb operator (RI_method LVL), particularly Hartree-Fock and
  # hybrid density functional calculations, the highest accuracy can be obtained by
  # uncommenting the line beginning with "for_aux"  below, thus adding an extra g radial
  # function to the construction of the product basis set for the expansion.
  # See Ref. New J. Phys. 17, 093020 (2015) for more information, particularly Figs. 1 and 6.
  #
  ################################################################################
  #
  # for_aux hydro 5 g 6.0
  
  -----------------------------------------------------------------------
  Completed first pass over input file control.in .
  -----------------------------------------------------------------------
  
  
  -----------------------------------------------------------------------
  Parsing geometry.in (first pass over file, find array dimensions only).
  The contents of geometry.in will be repeated verbatim below
  unless switched off by setting 'verbatim_writeout .false.' .
  in the first line of geometry.in .
  -----------------------------------------------------------------------
  
  #
  # This is the geometry file that corresponds to the current relaxation step.
  # If you do not want this file to be written, set the "write_restart_geometry" flag to .false.
  #
  atom      -2.22205908     -1.62129950      2.04143326 C
  atom      -1.42821508     -0.60708019      2.85171304 C
  atom      -0.79447778     -0.91977970      3.85651715 O
  atom      -3.16119227     -1.83976298      2.56809794 H
  atom      -1.65270283     -2.55591869      1.98573157 H
  atom      -2.46524969     -1.27870444      1.02695628 H
  atom      -1.46399303      0.67004399      2.36474476 N
  atom      -0.94281143      1.84090890      3.07116600 C
  atom       0.56978549      1.80403620      3.37794905 C
  atom       0.98605058      2.24869259      4.44322107 O
  atom      -2.05192073      0.85450330      1.56109661 H
  atom      -1.04261497      2.66686672      2.34988216 H
  atom      -1.74819469      2.16076039      4.33149852 C
  atom      -1.64938467      1.35828899      5.07086143 H
  atom      -2.80736174      2.27891378      4.06669966 H
  atom      -1.38804982      3.08859174      4.78729506 H
  atom       1.48856650      1.43649656      2.41673093 N
  atom       1.47217346      0.72948381      1.13925515 C
  atom       0.33328626      1.18179338      0.19911544 C
  atom      -0.03940683      2.35138881      0.14427846 O
  atom       2.42196383      1.57119693      2.79681264 H
  atom       2.36507836      1.10600917      0.60766887 H
  atom       1.66582101     -0.78592842      1.31898777 C
  atom       1.88888152     -1.28820667      0.36579622 H
  atom       0.80447871     -1.26085130      1.80123018 H
  atom       2.52892148     -0.96164912      1.97326996 H
  atom      -0.15452692      0.21242238     -0.63001871 N
  atom      -1.18785941      0.48303267     -1.60973998 C
  atom       0.12586728     -0.74646509     -0.46967012 H
  atom      -2.17808014      0.13468840     -1.27321371 H
  atom      -0.95278544     -0.00630636     -2.56334121 H
  atom      -1.23534791      1.56679774     -1.75931245 H
  
  -----------------------------------------------------------------------
  Completed first pass over input file geometry.in .
  -----------------------------------------------------------------------
  

  Basic array size parameters:
  | Number of species                 :        4
  | Number of atoms                   :       32
  | Max. basis fn. angular momentum   :        4
  | Max. atomic/ionic basis occupied n:        2
  | Max. number of basis fn. types    :        2
  | Max. radial fns per species/type  :        8
  | Max. logarithmic grid size        :     1301
  | Max. radial integration grid size :       73
  | Max. angular integration grid size:      434
  | Max. angular grid division number :        8
  | Radial grid for Hartree potential :     1301
  | Number of spin channels           :        1

------------------------------------------------------------
          Reading file control.in.
------------------------------------------------------------
  XC: Using PBE gradient-corrected functionals.
  Spin treatment: No spin polarisation.
  Charge =   0.000000E+00: Neutral system requested explicitly.
  Occupation type: Gaussian broadening, width =   0.500000E-01 eV.
  Using pulay charge density mixing.
  Pulay mixing - number of memorized iterations:   10
  Charge density mixing - mixing parameter:     0.5000
  Convergence accuracy of self-consistent charge density:  0.1000E-03
  Convergence accuracy of sum of eigenvalues:  0.1000E-01
  Convergence accuracy of total energy:  0.1000E-04
  Convergence accuracy of forces:  0.1000E-03
  Maximum number of s.-c. iterations  :  1000
  Fitting ESP-charges to Potential. 
  | Esp charge output options: 
  | ESP Grid method: 3, cubic grid
  | Number of points in x, ,y, z:  0080 0080 0080
  |
 
  Reading configuration options for species H                   .
  | Found nuclear charge :   1.0000
  | Found atomic mass :    1.00794000000000      amu
  | Found l_max for Hartree potential  :   6
  | Found cutoff potl. onset [A], width [A], scale factor :    4.00000    2.00000    1.00000
  | Threshold for basis-dependent cutoff potential is   0.100000E-03
  | Found data for basic radial integration grid :    24 points, outermost radius =    7.000 A
  | Found multiplier for basic radial grid :   2
  | Found angular grid specification: user-specified.
  | Specified grid contains     6 separate shells.
  | Check grid settings after all constraints further below.
  | Found free-atom valence shell :  1 s   1.000
  | No ionic wave fns used. Skipping ion_occ.
  | Found hydrogenic basis function :  2 s   2.100
  | Found hydrogenic basis function :  2 p   3.500
  | Found hydrogenic basis function :  1 s   0.850
  | Found hydrogenic basis function :  2 p   3.700
  | Found hydrogenic basis function :  2 s   1.200
  | Found hydrogenic basis function :  3 d   7.000
  Species H                   : Missing cutoff potential type.
  Defaulting to exp(1/x)/(1-x)^2 type cutoff potential.
  Species H : No 'logarithmic' tag. Using default grid for free atom:
  | Default logarithmic grid data [bohr] : 0.1000E-03 0.1000E+03 0.1012E+01
  Species H : On-site basis accuracy parameter (for Gram-Schmidt orthonormalisation) not specified.
  Using default value basis_acc =  0.1000000E-03.
  Species H                   : Using default innermost maximum threshold i_radial=  2 for radial functions.
  Species H                   : Default cutoff onset for free atom density etc. : 0.40000000E+01 AA.
  Species H                   : Basic radial grid will be enhanced according to radial_multiplier =   2, to contain    49 grid points.
 
  Reading configuration options for species C                   .
  | Found nuclear charge :   6.0000
  | Found atomic mass :    12.0107000000000      amu
  | Found l_max for Hartree potential  :   6
  | Found cutoff potl. onset [A], width [A], scale factor :    4.00000    2.00000    1.00000
  | Threshold for basis-dependent cutoff potential is   0.100000E-03
  | Found data for basic radial integration grid :    34 points, outermost radius =    7.000 A
  | Found multiplier for basic radial grid :   2
  | Found angular grid specification: user-specified.
  | Specified grid contains     6 separate shells.
  | Check grid settings after all constraints further below.
  | Found free-atom valence shell :  2 s   2.000
  | Found free-atom valence shell :  2 p   2.000
  | No ionic wave fns used. Skipping ion_occ.
  | No ionic wave fns used. Skipping ion_occ.
  | Found hydrogenic basis function :  2 p   1.700
  | Found hydrogenic basis function :  3 d   6.000
  | Found hydrogenic basis function :  2 s   4.900
  | Found hydrogenic basis function :  4 f   9.800
  | Found hydrogenic basis function :  3 p   5.200
  | Found hydrogenic basis function :  3 s   4.300
  | Found hydrogenic basis function :  5 g  14.400
  | Found hydrogenic basis function :  3 d   6.200
  Species C                   : Missing cutoff potential type.
  Defaulting to exp(1/x)/(1-x)^2 type cutoff potential.
  Species C : No 'logarithmic' tag. Using default grid for free atom:
  | Default logarithmic grid data [bohr] : 0.1000E-03 0.1000E+03 0.1012E+01
  Species C : On-site basis accuracy parameter (for Gram-Schmidt orthonormalisation) not specified.
  Using default value basis_acc =  0.1000000E-03.
  Species C                   : Using default innermost maximum threshold i_radial=  2 for radial functions.
  Species C                   : Default cutoff onset for free atom density etc. : 0.40000000E+01 AA.
  Species C                   : Basic radial grid will be enhanced according to radial_multiplier =   2, to contain    69 grid points.
 
  Reading configuration options for species N                   .
  | Found nuclear charge :   7.0000
  | Found atomic mass :    14.0067000000000      amu
  | Found l_max for Hartree potential  :   6
  | Found cutoff potl. onset [A], width [A], scale factor :    4.00000    2.00000    1.00000
  | Threshold for basis-dependent cutoff potential is   0.100000E-03
  | Found data for basic radial integration grid :    35 points, outermost radius =    7.000 A
  | Found multiplier for basic radial grid :   2
  | Found angular grid specification: user-specified.
  | Specified grid contains     6 separate shells.
  | Check grid settings after all constraints further below.
  | Found free-atom valence shell :  2 s   2.000
  | Found free-atom valence shell :  2 p   3.000
  | No ionic wave fns used. Skipping ion_occ.
  | No ionic wave fns used. Skipping ion_occ.
  | Found hydrogenic basis function :  2 p   1.800
  | Found hydrogenic basis function :  3 d   6.800
  | Found hydrogenic basis function :  3 s   5.800
  | Found hydrogenic basis function :  4 f  10.800
  | Found hydrogenic basis function :  3 p   5.800
  | Found hydrogenic basis function :  1 s   0.800
  | Found hydrogenic basis function :  5 g  16.000
  | Found hydrogenic basis function :  3 d   4.900
  Species N                   : Missing cutoff potential type.
  Defaulting to exp(1/x)/(1-x)^2 type cutoff potential.
  Species N : No 'logarithmic' tag. Using default grid for free atom:
  | Default logarithmic grid data [bohr] : 0.1000E-03 0.1000E+03 0.1012E+01
  Species N : On-site basis accuracy parameter (for Gram-Schmidt orthonormalisation) not specified.
  Using default value basis_acc =  0.1000000E-03.
  Species N                   : Using default innermost maximum threshold i_radial=  2 for radial functions.
  Species N                   : Default cutoff onset for free atom density etc. : 0.40000000E+01 AA.
  Species N                   : Basic radial grid will be enhanced according to radial_multiplier =   2, to contain    71 grid points.
 
  Reading configuration options for species O                   .
  | Found nuclear charge :   8.0000
  | Found atomic mass :    15.9994000000000      amu
  | Found l_max for Hartree potential  :   6
  | Found cutoff potl. onset [A], width [A], scale factor :    4.00000    2.00000    1.00000
  | Threshold for basis-dependent cutoff potential is   0.100000E-03
  | Found data for basic radial integration grid :    36 points, outermost radius =    7.000 A
  | Found multiplier for basic radial grid :   2
  | Found angular grid specification: user-specified.
  | Specified grid contains     6 separate shells.
  | Check grid settings after all constraints further below.
  | Found free-atom valence shell :  2 s   2.000
  | Found free-atom valence shell :  2 p   4.000
  | No ionic wave fns used. Skipping ion_occ.
  | No ionic wave fns used. Skipping ion_occ.
  | Found hydrogenic basis function :  2 p   1.800
  | Found hydrogenic basis function :  3 d   7.600
  | Found hydrogenic basis function :  3 s   6.400
  | Found hydrogenic basis function :  4 f  11.600
  | Found hydrogenic basis function :  3 p   6.200
  | Found hydrogenic basis function :  3 d   5.600
  | Found hydrogenic basis function :  5 g  17.600
  | Found hydrogenic basis function :  1 s   0.750
  Species O                   : Missing cutoff potential type.
  Defaulting to exp(1/x)/(1-x)^2 type cutoff potential.
  Species O : No 'logarithmic' tag. Using default grid for free atom:
  | Default logarithmic grid data [bohr] : 0.1000E-03 0.1000E+03 0.1012E+01
  Species O : On-site basis accuracy parameter (for Gram-Schmidt orthonormalisation) not specified.
  Using default value basis_acc =  0.1000000E-03.
  Species O                   : Using default innermost maximum threshold i_radial=  2 for radial functions.
  Species O                   : Default cutoff onset for free atom density etc. : 0.40000000E+01 AA.
  Species O                   : Basic radial grid will be enhanced according to radial_multiplier =   2, to contain    73 grid points.
 
  Finished reading input file 'control.in'. Consistency checks are next.
 
  Target number of points in a grid batch is not set. Defaulting to  100
  Method for grid partitioning is not set. Defaulting to parallel hash+maxmin partitioning.
  Batch size limit is not set. Defaulting to    200
  By default, will store active basis functions for each batch.
  If in need of memory, prune_basis_once .false. can be used to disable this option.
  communication_type for Hartree potential was not specified.
  Defaulting to calc_hartree .
  Pulay mixer: Number of initial linear mixing iterations not set.
  Defaulting to    0 iterations.
  Work space size for distributed Hartree potential not set.
  Defaulting to   0.200000E+03 MB.
  Algorithm-dependent basis array size parameters:
  | n_max_pulay                         :       10
  Geometry relaxation not requested: no relaxation will be performed.
  Handling of forces: Unphysical translation and rotation will be removed from forces.
  No accuracy limit for integral partition fn. given. Defaulting to  0.1000E-14.
  No threshold value for u(r) in integrations given. Defaulting to  0.1000E-05.
  No accuracy for occupation numbers given. Defaulting to  0.1000E-07.
  No threshold value for occupation numbers given. Defaulting to  0.0000E+00.
  No accuracy for fermi level given. Defaulting to  0.1000E-19.
  Maximum # of iterations to find E_F not set. Defaulting to  200.
  Preferred method for the eigenvalue solver ('KS_method') not specified in 'control.in'.
  Calling blacs routine to test compilation state
  Since scalapack support is enabled, defaulting to 'elpa'.
  Preferred method for the MBD eigenvalue solver ('mbd_eigensolver') not specified in 'control.in'.
  Calling blacs routine to test compilation state
  Since scalapack support is enabled, defaulting to 'scaLAPACK'.
  Will not use alltoall communication since running on < 1024 CPUs.
  Threshold for basis singularities not set.
  Default threshold for basis singularities:  0.1000E-04
  partition_type (choice of integration weights) for integrals was not specified.
  | Using a version of the partition function of Stratmann and coworkers ('stratmann_smoother').
  | At each grid point, the set of atoms used to build the partition table is smoothly restricted to
  | only those atoms whose free-atom density would be non-zero at that grid point.
  Partitioning for Hartree potential was not defined. Using partition_type for integrals.
  | Adjusted default value of keyword multip_moments_threshold to:       0.10000000E-11
  | This value may affect high angular momentum components of the Hartree potential in periodic systems.
  No q(lm)/r^(l+1) cutoff set for long-range Hartree potential.
  | Using default value of  0.100000E-09 .
  | Verify using the multipole_threshold keyword.
  Defaulting to new monopole extrapolation.
  Density update method: automatic selection selected.
------------------------------------------------------------


------------------------------------------------------------
          Reading geometry description geometry.in.
------------------------------------------------------------
 * Warning! You did not set the 'relativistic' flag in input file 'control.in'.
 * Since you are not attempting to treat any elements beyond Ca(Z=20), FHI-aims
 * will default to 'relativistic none'.
 * You must ensure that this is really what you want!!
 * For example, DO NOT compute total-energy differences between results from
 * different settings of the 'relativistic' flag.
  Input structure read successfully.
  The structure contains       32 atoms,  and a total of        116.000 electrons.

  Input geometry:
  | No unit cell requested.
  | Atomic structure:
  |       Atom                x [A]            y [A]            z [A]
  |    1: Species C             -2.222059        -1.621299         2.041433
  |    2: Species C             -1.428215        -0.607080         2.851713
  |    3: Species O             -0.794478        -0.919780         3.856517
  |    4: Species H             -3.161192        -1.839763         2.568098
  |    5: Species H             -1.652703        -2.555919         1.985732
  |    6: Species H             -2.465250        -1.278704         1.026956
  |    7: Species N             -1.463993         0.670044         2.364745
  |    8: Species C             -0.942811         1.840909         3.071166
  |    9: Species C              0.569785         1.804036         3.377949
  |   10: Species O              0.986051         2.248693         4.443221
  |   11: Species H             -2.051921         0.854503         1.561097
  |   12: Species H             -1.042615         2.666867         2.349882
  |   13: Species C             -1.748195         2.160760         4.331499
  |   14: Species H             -1.649385         1.358289         5.070861
  |   15: Species H             -2.807362         2.278914         4.066700
  |   16: Species H             -1.388050         3.088592         4.787295
  |   17: Species N              1.488566         1.436497         2.416731
  |   18: Species C              1.472173         0.729484         1.139255
  |   19: Species C              0.333286         1.181793         0.199115
  |   20: Species O             -0.039407         2.351389         0.144278
  |   21: Species H              2.421964         1.571197         2.796813
  |   22: Species H              2.365078         1.106009         0.607669
  |   23: Species C              1.665821        -0.785928         1.318988
  |   24: Species H              1.888882        -1.288207         0.365796
  |   25: Species H              0.804479        -1.260851         1.801230
  |   26: Species H              2.528921        -0.961649         1.973270
  |   27: Species N             -0.154527         0.212422        -0.630019
  |   28: Species C             -1.187859         0.483033        -1.609740
  |   29: Species H              0.125867        -0.746465        -0.469670
  |   30: Species H             -2.178080         0.134688        -1.273214
  |   31: Species H             -0.952785        -0.006306        -2.563341
  |   32: Species H             -1.235348         1.566798        -1.759312
  |

  | The smallest distance between any two atoms is         1.01182892 AA.
  |
  | The first atom of this pair is atom number                     27 .
  | The second atom of this pair is atom number                    29 .

  Number of empty states per atom not set in control.in - providing a guess from actual geometry.
  | Total number of empty states used during s.c.f. cycle:       71
  If you use a very high smearing, use empty_states (per atom!) in control.in to increase this value.

  Structure-dependent array size parameters: 
  | Maximum number of distinct radial functions  :       40
  | Maximum number of basis functions            :      840
  | Number of Kohn-Sham states (occupied + empty):      129
------------------------------------------------------------

------------------------------------------------------------
          Preparing all fixed parts of the calculation.
------------------------------------------------------------
  Determining machine precision:
    2.225073858507201E-308
  Setting up grids for atomic and cluster calculations.

  Creating wave function, potential, and density for free atoms.

  Species: H

  List of occupied orbitals and eigenvalues:
    n    l              occ      energy [Ha]    energy [eV]
    1    0           1.0000        -0.238382        -6.4867


  Species: C

  List of occupied orbitals and eigenvalues:
    n    l              occ      energy [Ha]    energy [eV]
    1    0           2.0000       -10.041232      -273.2358
    2    0           2.0000        -0.504327       -13.7234
    2    1           2.0000        -0.193750        -5.2722


  Species: N

  List of occupied orbitals and eigenvalues:
    n    l              occ      energy [Ha]    energy [eV]
    1    0           2.0000       -14.129007      -384.4699
    2    0           2.0000        -0.681802       -18.5528
    2    1           3.0000        -0.260543        -7.0897


  Species: O

  List of occupied orbitals and eigenvalues:
    n    l              occ      energy [Ha]    energy [eV]
    1    0           2.0000       -18.898576      -514.2564
    2    0           2.0000        -0.878795       -23.9132
    2    1           4.0000        -0.332075        -9.0362

  Creating fixed part of basis set: Ionic, confined, hydrogenic.
 
  H                    hydrogenic:
 
  List of hydrogenic basis orbitals: 
    n    l      effective z      eigenvalue [eV]  inner max. [A]     outer max. [A]     outer radius [A]   
    2    0         2.100000       -14.9965           0.193243           1.317208           5.373006
    2    1         3.500000       -41.6672           0.602369           0.602369           4.056063
    1    0         0.850000        -9.8292           0.624871           0.624871           5.373006
    2    1         3.700000       -46.5653           0.573622           0.573622           3.910002
    2    0         1.200000        -4.5995           0.334980           2.228188           5.505995
    3    2         7.000000       -74.0753           0.680699           0.680699           3.769201
 
 
  C                    hydrogenic:
 
  List of hydrogenic basis orbitals: 
    n    l      effective z      eigenvalue [eV]  inner max. [A]     outer max. [A]     outer radius [A]   
    2    1         1.700000        -9.8152           1.245706           1.245706           5.401630
    3    2         6.000000       -54.4226           0.792453           0.792453           4.178599
    2    0         4.900000       -81.6681           0.082559           0.562749           3.353238
    4    3         9.800000       -81.6681           0.863254           0.863254           4.028125
    3    1         5.200000       -40.8774           0.305389           1.215618           4.898362
    3    0         4.300000       -27.9508           0.091041           1.610311           5.401630
    5    4        14.400000      -112.8510           0.917666           0.917666           3.883070
    3    2         6.200000       -58.1113           0.763917           0.763917           4.077671
 
 
  N                    hydrogenic:
 
  List of hydrogenic basis orbitals: 
    n    l      effective z      eigenvalue [eV]  inner max. [A]     outer max. [A]     outer radius [A]   
    2    1         1.800000       -11.0118           1.177451           1.177451           5.427479
    3    2         6.800000       -69.9029           0.704619           0.704619           3.854246
    3    0         5.800000       -50.8549           0.067388           1.191934           4.629968
    4    3        10.800000       -99.1854           0.786571           0.786571           3.761152
    3    1         5.800000       -50.8549           0.274880           1.094176           4.518138
    1    0         0.800000        -8.7059           0.662839           0.662839           5.361532
    5    4        16.000000      -139.3222           0.825990           0.825990           3.625711
    3    2         4.900000       -36.2967           0.968267           0.968267           4.862000
 
 
  O                    hydrogenic:
 
  List of hydrogenic basis orbitals: 
    n    l      effective z      eigenvalue [eV]  inner max. [A]     outer max. [A]     outer radius [A]   
    2    1         1.800000       -11.0118           1.178562           1.178562           5.432602
    3    2         7.600000       -87.3182           0.624125           0.624125           3.541477
    3    0         6.400000       -61.9209           0.061167           1.081902           4.306578
    4    3        11.600000      -114.4238           0.731631           0.731631           3.585037
    3    1         6.200000       -58.1113           0.255680           1.030270           4.306578
    3    2         5.600000       -47.4081           0.847233           0.847233           4.413171
    5    4        17.600000      -168.5799           0.749740           0.749740           3.372465
    1    0         0.750000        -7.6499           0.705284           0.705284           5.366593
 

  Adding cutoff potential to free-atom effective potential.
  Creating atomic-like basis functions for current effective potential.

  Species H                   :

  List of atomic basis orbitals and eigenvalues:
    n    l      energy [Ha]    energy [eV]    outer radius [A]
    1    0        -0.238382        -6.4867       5.373006


  Species C                   :

  List of atomic basis orbitals and eigenvalues:
    n    l      energy [Ha]    energy [eV]    outer radius [A]
    1    0       -10.041232      -273.2358       1.934409
    2    0        -0.504327       -13.7234       5.271162
    2    1        -0.193750        -5.2722       5.401630


  Species N                   :

  List of atomic basis orbitals and eigenvalues:
    n    l      energy [Ha]    energy [eV]    outer radius [A]
    1    0       -14.129007      -384.4699       1.637919
    2    0        -0.681802       -18.5528       5.168461
    2    1        -0.260543        -7.0897       5.361532


  Species O                   :

  List of atomic basis orbitals and eigenvalues:
    n    l      energy [Ha]    energy [eV]    outer radius [A]
    1    0       -18.898576      -514.2564       1.415765
    2    0        -0.878795       -23.9132       5.048385
    2    1        -0.332075        -9.0362       5.301386

  Assembling full basis from fixed parts.
  | Species H :   atomic orbital   1 s accepted.
  | Species H :    hydro orbital   2 s accepted.
  | Species H :    hydro orbital   1 s accepted.
  | Species H :    hydro orbital   2 s accepted.
  | Species H :    hydro orbital   2 p accepted.
  | Species H :    hydro orbital   2 p accepted.
  | Species H :    hydro orbital   3 d accepted.
  | Species C :   atomic orbital   1 s accepted.
  | Species C :    hydro orbital   2 s accepted.
  | Species C :   atomic orbital   2 s accepted.
  | Species C :    hydro orbital   3 s accepted.
  | Species C :    hydro orbital   3 p accepted.
  | Species C :   atomic orbital   2 p accepted.
  | Species C :    hydro orbital   2 p accepted.
  | Species C :    hydro orbital   3 d accepted.
  | Species C :    hydro orbital   3 d accepted.
  | Species C :    hydro orbital   4 f accepted.
  | Species C :    hydro orbital   5 g accepted.
  | Species N :   atomic orbital   1 s accepted.
  | Species N :    hydro orbital   3 s accepted.
  | Species N :   atomic orbital   2 s accepted.
  | Species N :    hydro orbital   1 s accepted.
  | Species N :    hydro orbital   3 p accepted.
  | Species N :   atomic orbital   2 p accepted.
  | Species N :    hydro orbital   2 p accepted.
  | Species N :    hydro orbital   3 d accepted.
  | Species N :    hydro orbital   3 d accepted.
  | Species N :    hydro orbital   4 f accepted.
  | Species N :    hydro orbital   5 g accepted.
  | Species O :   atomic orbital   1 s accepted.
  | Species O :    hydro orbital   3 s accepted.
  | Species O :   atomic orbital   2 s accepted.
  | Species O :    hydro orbital   1 s accepted.
  | Species O :    hydro orbital   3 p accepted.
  | Species O :   atomic orbital   2 p accepted.
  | Species O :    hydro orbital   2 p accepted.
  | Species O :    hydro orbital   3 d accepted.
  | Species O :    hydro orbital   3 d accepted.
  | Species O :    hydro orbital   4 f accepted.
  | Species O :    hydro orbital   5 g accepted.
 
  Basis size parameters after reduction:
  | Total number of radial functions:       40
  | Total number of basis functions :      840
 
  Testing on-site integration grid accuracy.
  |  Species  Function  <phi|h_atom|phi> (log., in eV)  <phi|h_atom|phi> (rad., in eV)
           1        1                 -6.4869821809                 -6.4870742227
           1        2                 13.5044133542                 13.5041049177
           1        3                 32.7854418792                 32.7779770519
           1        4                 33.7995553101                 33.7152624900 ***
           1        5                 28.8558651799                 28.8558652046
           1        6                 59.6361831893                 59.6362535845
           1        7                 60.2733718049                 60.2733715484
           2        8               -273.2358277112               -273.2358261765
           2        9                -10.7624923123                -10.7625144012
           2       10                 17.4634079027                 17.4634252127
           2       11                 53.0363661832                 53.0366180446
           2       12                 15.0981351967                 15.0981317714
           2       13                  3.8522181899                  3.8522770949
           2       14                 12.1181835661                 12.1206868578
           2       15                 29.4320778347                 29.4320780959
           2       16                 54.8753777694                 54.8752901936
           2       17                 59.3533975461                 59.3533974833
           2       18                 93.4537491195                 93.4537492066
           3       19               -384.4698526889               -384.4698499465
           3       20                 12.5691022037                 12.5690910168
           3       21                -15.7489097511                -15.7489165588
           3       22                 27.0978334940                 27.0985589490
           3       23                 18.5949116966                 18.5949125562
           3       24                  1.2212828291                  1.2212855301
           3       25                 13.4428926797                 13.4434051125
           3       26                 35.9380614500                 35.9380613666
           3       27                 39.9231532098                 39.9231654735
           3       28                 72.9957335806                 72.9957336833
           3       29                116.4231321147                116.4231321431
           4       30               -514.2564144315               -514.2564099626
           4       31                 15.1726678541                 15.1726530877
           4       32                -21.5447785304                -21.5447874973
           4       33                 14.4944558459                 14.4944698284
           4       34                 20.8882174564                 20.8882178906
           4       35                 -2.4850315908                 -2.4850322289
           4       36                 13.8600193195                 13.8599826966
           4       37                 45.8243383616                 45.8243383675
           4       38                 52.1840606465                 52.1840622440
           4       39                 85.4074185510                 85.4074185819
           4       40                142.0983717302                142.0983717339
 * Note: Onsite integrals marked "***" above are less accurate than
 * onsite_accuracy_threshold =    0.03000 eV. Usually, this is harmless.
 * When in doubt, tighten the "radial" and/or "radial_multiplier" flags to check.

  Preparing densities etc. for the partition functions (integrals / Hartree potential).

  Preparations completed.
  max(cpu_time)          :      0.240 s.
  Wall clock time (cpu1) :      0.239 s.
------------------------------------------------------------

------------------------------------------------------------
          Begin self-consistency loop: Initialization.

          Date     :  20170309, Time     :  182256.604
------------------------------------------------------------

  Initializing index lists of integration centers etc. from given atomic structure:
  | Number of centers in hartree potential         :        32
  | Number of centers in hartree multipole         :        32
  | Number of centers in electron density summation:        32
  | Number of centers in basis integrals           :        32
  | Number of centers in integrals                 :        32
  | Number of centers in hamiltonian               :        32
  Using modified Scalapack Eigenvalue solver (ELPA)
  * Using 32 tasks for Scalapack Eigenvalue solver.
  Detailed listing of tasks and assigned k-points:
  (for non-periodic systems, the "k-point" denotes an internal label only)
   Task     0 k-point     1 on eos366
   Task     1 k-point     1 on eos366
   Task     2 k-point     1 on eos366
   Task     3 k-point     1 on eos366
   Task     4 k-point     1 on eos366
   Task     5 k-point     1 on eos366
   Task     6 k-point     1 on eos366
   Task     7 k-point     1 on eos366
   Task     8 k-point     1 on eos366
   Task     9 k-point     1 on eos366
   Task    10 k-point     1 on eos366
   Task    11 k-point     1 on eos366
   Task    12 k-point     1 on eos366
   Task    13 k-point     1 on eos366
   Task    14 k-point     1 on eos366
   Task    15 k-point     1 on eos366
   Task    16 k-point     1 on eos366
   Task    17 k-point     1 on eos366
   Task    18 k-point     1 on eos366
   Task    19 k-point     1 on eos366
   Task    20 k-point     1 on eos366
   Task    21 k-point     1 on eos366
   Task    22 k-point     1 on eos366
   Task    23 k-point     1 on eos366
   Task    24 k-point     1 on eos366
   Task    25 k-point     1 on eos366
   Task    26 k-point     1 on eos366
   Task    27 k-point     1 on eos366
   Task    28 k-point     1 on eos366
   Task    29 k-point     1 on eos366
   Task    30 k-point     1 on eos366
   Task    31 k-point     1 on eos366
  Tasks:    32 split into      8 X      4 BLACS grid
  Calculating blocksize based on n_basis =          840 max_nprow =            8 max_npcol =            4
  Scalapack blocksize set to:           16
  Required Scalapack workspace - INTEGER:            1 REAL:             1
  Partitioning the integration grid into batches with parallel hashing+maxmin method.
  | Number of batches:     4806
  | Maximal batch size:     200
  | Minimal batch size:      53
  | Average batch size:     109.806
  | Standard deviation of batch sizes:      36.145

  Integration load balanced across    32 MPI tasks.
  Work distribution over tasks is as follows:
  Task     0 has      16481 integration points.
  Task     1 has      16524 integration points.
  Task     2 has      16437 integration points.
  Task     3 has      16520 integration points.
  Task     4 has      16490 integration points.
  Task     5 has      16443 integration points.
  Task     6 has      16499 integration points.
  Task     7 has      16494 integration points.
  Task     8 has      16503 integration points.
  Task     9 has      16492 integration points.
  Task    10 has      16512 integration points.
  Task    11 has      16509 integration points.
  Task    12 has      16528 integration points.
  Task    13 has      16502 integration points.
  Task    14 has      16434 integration points.
  Task    15 has      16537 integration points.
  Task    16 has      16430 integration points.
  Task    17 has      16486 integration points.
  Task    18 has      16456 integration points.
  Task    19 has      16491 integration points.
  Task    20 has      16503 integration points.
  Task    21 has      16517 integration points.
  Task    22 has      16513 integration points.
  Task    23 has      16516 integration points.
  Task    24 has      16439 integration points.
  Task    25 has      16445 integration points.
  Task    26 has      16513 integration points.
  Task    27 has      16543 integration points.
  Task    28 has      16522 integration points.
  Task    29 has      16445 integration points.
  Task    30 has      16508 integration points.
  Task    31 has      16496 integration points.
  Initializing partition tables, free-atom densities, potentials, etc. across the integration grid (initialize_grid_storage).
  | initialize_grid_storage: Actual outermost partition radius vs. multipole_radius_free
  | (-- VB: in principle, multipole_radius_free should be larger, hence this output)
  | Species        1: Confinement radius =              6.000000000000000 AA, multipole_radius_free =              6.071692442739658 AA.
  | Species        1: outer_partition_radius set to              6.071692442739658 AA .
  | Species        2: Confinement radius =              6.000000000000000 AA, multipole_radius_free =              6.029870734432609 AA.
  | Species        2: outer_partition_radius set to              6.029870734432609 AA .
  | Species        3: Confinement radius =              6.000000000000000 AA, multipole_radius_free =              6.058726835495003 AA.
  | Species        3: outer_partition_radius set to              6.058726835495003 AA .
  | Species        4: Confinement radius =              6.000000000000000 AA, multipole_radius_free =              6.064445521808699 AA.
  | Species        4: outer_partition_radius set to              6.064445521808699 AA .
  | Original list of interatomic distances with          32 x         32 entries is created.
  | Net number of integration points:   527728
  | of which are non-zero points    :   410704
  Obtaining max. number of non-zero basis functions in each batch (get_n_compute_maxes).
  | Maximal number of non-zero basis functions:      825 in task     0
  | Maximal number of non-zero basis functions:      823 in task     1
  | Maximal number of non-zero basis functions:      820 in task     2
  | Maximal number of non-zero basis functions:      822 in task     3
  | Maximal number of non-zero basis functions:      806 in task     4
  | Maximal number of non-zero basis functions:      812 in task     5
  | Maximal number of non-zero basis functions:      827 in task     6
  | Maximal number of non-zero basis functions:      816 in task     7
  | Maximal number of non-zero basis functions:      822 in task     8
  | Maximal number of non-zero basis functions:      804 in task     9
  | Maximal number of non-zero basis functions:      809 in task    10
  | Maximal number of non-zero basis functions:      827 in task    11
  | Maximal number of non-zero basis functions:      814 in task    12
  | Maximal number of non-zero basis functions:      807 in task    13
  | Maximal number of non-zero basis functions:      813 in task    14
  | Maximal number of non-zero basis functions:      830 in task    15
  | Maximal number of non-zero basis functions:      825 in task    16
  | Maximal number of non-zero basis functions:      825 in task    17
  | Maximal number of non-zero basis functions:      820 in task    18
  | Maximal number of non-zero basis functions:      824 in task    19
  | Maximal number of non-zero basis functions:      814 in task    20
  | Maximal number of non-zero basis functions:      820 in task    21
  | Maximal number of non-zero basis functions:      826 in task    22
  | Maximal number of non-zero basis functions:      810 in task    23
  | Maximal number of non-zero basis functions:      814 in task    24
  | Maximal number of non-zero basis functions:      812 in task    25
  | Maximal number of non-zero basis functions:      813 in task    26
  | Maximal number of non-zero basis functions:      820 in task    27
  | Maximal number of non-zero basis functions:      815 in task    28
  | Maximal number of non-zero basis functions:      819 in task    29
  | Maximal number of non-zero basis functions:      818 in task    30
  | Maximal number of non-zero basis functions:      822 in task    31
  Selecting the method for density update.
  Loop over occupied states selected for charge density update.
  Integrating Hamiltonian matrix: batch-based integration.
  Time summed over all CPUs for integration: real work       24.510 s, elapsed       25.742 s
  Integrating overlap matrix.
  Time summed over all CPUs for integration: real work       15.066 s, elapsed       15.863 s
  Deallocating overlap matrix.

  Updating Kohn-Sham eigenvalues, eigenvectors, occupation numbers, and Fermi level.
  Solving generalized eigenproblem
  Solving real symmetric generalised eigenvalue problem by standard ScaLAPACK.
  Transforming overlap matrix with ScaLAPACK and checking for singularities.
  : Overlap matrix is nonsingular, using Cholesky decomposition
  | Lowest eigenvalue:  0.769933E-04
  Factoring overlap matrix with Cholesky decomposition
  Using Cholesky factor for transformation
  Using 1-stage real ELPA solver
  Determining occupation numbers for Kohn-Sham eigenstates.
  | Chemical potential (Fermi level) in eV                 : -.94401770E+01
  | Error in electron count due to remaining E_F inaccuracy: 0.00000000E+00
  | Maximum occupation number of highest empty state:  0.00E+00

  Writing Kohn-Sham eigenvalues.

  State    Occupation    Eigenvalue [Ha]    Eigenvalue [eV]
      1       2.00000         -18.975118         -516.33922
      2       2.00000         -18.974655         -516.32663
      3       2.00000         -18.974280         -516.31643
      4       2.00000         -14.256513         -387.93947
      5       2.00000         -14.254739         -387.89119
      6       2.00000         -14.251720         -387.80904
      7       2.00000         -10.171495         -276.78046
      8       2.00000         -10.170545         -276.75461
      9       2.00000         -10.170441         -276.75177
     10       2.00000         -10.166784         -276.65228
     11       2.00000         -10.148191         -276.14632
     12       2.00000         -10.146993         -276.11374
     13       2.00000         -10.136427         -275.82621
     14       2.00000         -10.134491         -275.77353
     15       2.00000         -10.132915         -275.73065
     16       2.00000          -1.136464          -30.92475
     17       2.00000          -1.131684          -30.79468
     18       2.00000          -1.130516          -30.76289
     19       2.00000          -1.017221          -27.68000
     20       2.00000          -1.014224          -27.59845
     21       2.00000          -1.004735          -27.34022
     22       2.00000          -0.886762          -24.13001
     23       2.00000          -0.878029          -23.89237
     24       2.00000          -0.840823          -22.87995
     25       2.00000          -0.816305          -22.21280
     26       2.00000          -0.778125          -21.17386
     27       2.00000          -0.762282          -20.74275
     28       2.00000          -0.706198          -19.21663
     29       2.00000          -0.690591          -18.79193
     30       2.00000          -0.667329          -18.15895
     31       2.00000          -0.639676          -17.40648
     32       2.00000          -0.627153          -17.06569
     33       2.00000          -0.611930          -16.65147
     34       2.00000          -0.603023          -16.40908
     35       2.00000          -0.590502          -16.06838
     36       2.00000          -0.578427          -15.73980
     37       2.00000          -0.567578          -15.44457
     38       2.00000          -0.563792          -15.34156
     39       2.00000          -0.557123          -15.16010
     40       2.00000          -0.552165          -15.02517
     41       2.00000          -0.549047          -14.94033
     42       2.00000          -0.545296          -14.83825
     43       2.00000          -0.534081          -14.53308
     44       2.00000          -0.528889          -14.39180
     45       2.00000          -0.525611          -14.30259
     46       2.00000          -0.513805          -13.98134
     47       2.00000          -0.510819          -13.90008
     48       2.00000          -0.505322          -13.75051
     49       2.00000          -0.498266          -13.55851
     50       2.00000          -0.482080          -13.11808
     51       2.00000          -0.479615          -13.05098
     52       2.00000          -0.472037          -12.84479
     53       2.00000          -0.411786          -11.20527
     54       2.00000          -0.402322          -10.94774
     55       2.00000          -0.401324          -10.92059
     56       2.00000          -0.388125          -10.56141
     57       2.00000          -0.385232          -10.48270
     58       2.00000          -0.383527          -10.43631
     59       0.00000          -0.164885           -4.48675
     60       0.00000          -0.161986           -4.40786
     61       0.00000          -0.152806           -4.15806
     62       0.00000          -0.087818           -2.38966
     63       0.00000          -0.068653           -1.86814
     64       0.00000          -0.058205           -1.58383
     65       0.00000          -0.050572           -1.37613
     66       0.00000          -0.043335           -1.17919
     67       0.00000          -0.041044           -1.11687
     68       0.00000          -0.032840           -0.89363
     69       0.00000          -0.026582           -0.72335
     70       0.00000          -0.024152           -0.65722
     71       0.00000          -0.020588           -0.56023
     72       0.00000          -0.017334           -0.47167
     73       0.00000          -0.011770           -0.32029
     74       0.00000          -0.007849           -0.21359
     75       0.00000          -0.003557           -0.09680
     76       0.00000          -0.000470           -0.01280
     77       0.00000           0.003697            0.10061
     78       0.00000           0.004749            0.12922
     79       0.00000           0.014723            0.40062
     80       0.00000           0.017188            0.46771
     81       0.00000           0.023719            0.64542
     82       0.00000           0.028178            0.76676
     83       0.00000           0.035460            0.96491
     84       0.00000           0.040270            1.09580
     85       0.00000           0.046962            1.27791
     86       0.00000           0.052190            1.42015
     87       0.00000           0.056975            1.55036
     88       0.00000           0.060546            1.64753
     89       0.00000           0.062905            1.71173
     90       0.00000           0.072877            1.98309
     91       0.00000           0.075710            2.06017
     92       0.00000           0.080225            2.18304
     93       0.00000           0.083363            2.26842
     94       0.00000           0.092000            2.50346
     95       0.00000           0.098510            2.68061
     96       0.00000           0.103932            2.82814
     97       0.00000           0.106836            2.90716
     98       0.00000           0.114627            3.11917
     99       0.00000           0.122382            3.33018
    100       0.00000           0.126187            3.43372
    101       0.00000           0.127700            3.47489
    102       0.00000           0.130389            3.54805
    103       0.00000           0.136545            3.71559
    104       0.00000           0.143317            3.89985
    105       0.00000           0.148758            4.04792
    106       0.00000           0.151589            4.12495
    107       0.00000           0.158792            4.32094
    108       0.00000           0.160545            4.36865
    109       0.00000           0.167008            4.54453
    110       0.00000           0.170101            4.62869
    111       0.00000           0.183440            4.99165
    112       0.00000           0.186219            5.06729
    113       0.00000           0.190881            5.19415
    114       0.00000           0.195329            5.31516
    115       0.00000           0.203237            5.53035
    116       0.00000           0.204884            5.57519
    117       0.00000           0.209118            5.69039
    118       0.00000           0.211388            5.75216
    119       0.00000           0.219085            5.96159
    120       0.00000           0.224932            6.12070
    121       0.00000           0.226422            6.16126
    122       0.00000           0.227738            6.19706
    123       0.00000           0.233408            6.35136
    124       0.00000           0.243331            6.62138
    125       0.00000           0.248332            6.75745
    126       0.00000           0.250259            6.80991
    127       0.00000           0.258935            7.04599
    128       0.00000           0.267861            7.28888
    129       0.00000           0.274893            7.48023

  Highest occupied state (VBM) at    -10.43631128 eV
  | Occupation number:      2.00000000

  Lowest unoccupied state (CBM) at    -4.48674664 eV
  | Occupation number:      0.00000000

  Overall HOMO-LUMO gap:      5.94956464 eV.
  Calculating total energy contributions from superposition of free atom densities.

  Total energy components:
  | Sum of eigenvalues            :        -437.87029205 Ha      -11915.05687820 eV
  | XC energy correction          :         -98.82834937 Ha       -2689.25621417 eV
  | XC potential correction       :         127.03398073 Ha        3456.77049415 eV
  | Free-atom electrostatic energy:        -333.61348683 Ha       -9078.08486462 eV
  | Hartree energy correction     :           0.00000000 Ha           0.00000000 eV
  | vdW energy correction         :           0.00000000 Ha           0.00000000 eV
  | Entropy correction            :          -0.00000000 Ha          -0.00000000 eV
  | ---------------------------
  | Total energy                  :        -743.27814753 Ha      -20225.62746284 eV
  | Total energy, T -> 0          :        -743.27814753 Ha      -20225.62746284 eV  <-- do not rely on this value for anything but (periodic) metals
  | Electronic free energy        :        -743.27814753 Ha      -20225.62746284 eV

  Derived energy quantities:
  | Kinetic energy                :         735.17752013 Ha       20005.19817596 eV
  | Electrostatic energy          :       -1379.62731829 Ha      -37541.56942463 eV
  | Energy correction for multipole
  | error in Hartree potential    :           0.00000000 Ha           0.00000000 eV
  | Sum of eigenvalues per atom                           :        -372.34552744 eV
  | Total energy (T->0) per atom                          :        -632.05085821 eV  <-- do not rely on this value for anything but (periodic) metals
  | Electronic free energy per atom                       :        -632.05085821 eV
  Initialize hartree_potential_storage
  Max. number of atoms included in rho_multipole:           32

  End scf initialization - timings             :  max(cpu_time)    wall_clock(cpu1)
  | Time for scf. initialization               :        2.084 s           2.083 s
  | Boundary condition initialization          :        0.000 s           0.000 s
  | Integration                                :        1.324 s           1.322 s
  | Solution of K.-S. eqns.                    :        0.076 s           0.075 s
  | Grid partitioning                          :        0.300 s           0.296 s
  | Preloading free-atom quantities on grid    :        0.028 s           0.028 s
  | Free-atom superposition energy             :        0.044 s           0.041 s
  | Total energy evaluation                    :        0.000 s           0.001 s
------------------------------------------------------------

------------------------------------------------------------
          Begin self-consistency iteration #    1

  Date     :  20170309, Time     :  182258.687
------------------------------------------------------------
  Evaluating new KS density.
  Integration grid: deviation in total charge (<rho> - N_e) =   1.421085E-14
  Pulay mixing of updated and previous charge densities.

  Evaluating partitioned Hartree potential by multipole expansion.
  | Analytical far-field extrapolation by fixed multipoles:
  | Hartree multipole sum: apparent total charge =   0.324739E-04
  Summing up the Hartree potential.
  Time summed over all CPUs for potential: real work        9.647 s, elapsed       10.014 s
  | RMS charge density error from multipole expansion :   0.107607E-01

  Integrating Hamiltonian matrix: batch-based integration.
  Time summed over all CPUs for integration: real work       24.287 s, elapsed       25.552 s

  Updating Kohn-Sham eigenvalues, eigenvectors, occupation numbers, and Fermi level.
  Solving generalized eigenproblem
  Solving real symmetric generalised eigenvalue problem by standard ScaLAPACK.
  Using Cholesky factor for transformation
  Using 2-stage real ELPA solver
  K-Point:    1, Trafo times: 1-stage=     0.021 s, 2-stage=     0.019 s ==> Using 2-stage solver
  Determining occupation numbers for Kohn-Sham eigenstates.
  | Chemical potential (Fermi level) in eV                 : -.36550392E+01
  | Error in electron count due to remaining E_F inaccuracy: 0.00000000E+00
  | Maximum occupation number of highest empty state:  0.00E+00

  Writing Kohn-Sham eigenvalues.

  State    Occupation    Eigenvalue [Ha]    Eigenvalue [eV]
      1       2.00000         -18.624833         -506.80749
      2       2.00000         -18.609975         -506.40319
      3       2.00000         -18.598089         -506.07975
      4       2.00000         -13.998602         -380.92135
      5       2.00000         -13.993482         -380.78203
      6       2.00000         -13.976353         -380.31592
      7       2.00000         -10.063224         -273.83426
      8       2.00000         -10.051657         -273.51950
      9       2.00000         -10.041525         -273.24379
     10       2.00000          -9.975076         -271.43563
     11       2.00000          -9.947726         -270.69138
     12       2.00000          -9.895901         -269.28117
     13       2.00000          -9.857132         -268.22621
     14       2.00000          -9.848074         -267.97974
     15       2.00000          -9.808187         -266.89435
     16       2.00000          -0.970535          -26.40961
     17       2.00000          -0.956308          -26.02246
     18       2.00000          -0.944551          -25.70254
     19       2.00000          -0.870633          -23.69113
     20       2.00000          -0.863952          -23.50933
     21       2.00000          -0.851445          -23.16899
     22       2.00000          -0.737902          -20.07935
     23       2.00000          -0.727774          -19.80375
     24       2.00000          -0.684650          -18.63027
     25       2.00000          -0.677735          -18.44211
     26       2.00000          -0.634648          -17.26964
     27       2.00000          -0.612987          -16.68022
     28       2.00000          -0.576513          -15.68772
     29       2.00000          -0.566419          -15.41305
     30       2.00000          -0.536996          -14.61242
     31       2.00000          -0.505459          -13.75424
     32       2.00000          -0.494154          -13.44661
     33       2.00000          -0.478564          -13.02240
     34       2.00000          -0.457099          -12.43829
     35       2.00000          -0.439403          -11.95677
     36       2.00000          -0.438145          -11.92253
     37       2.00000          -0.433516          -11.79656
     38       2.00000          -0.427908          -11.64398
     39       2.00000          -0.411961          -11.21004
     40       2.00000          -0.405349          -11.03010
     41       2.00000          -0.399352          -10.86693
     42       2.00000          -0.389217          -10.59114
     43       2.00000          -0.381769          -10.38846
     44       2.00000          -0.376117          -10.23465
     45       2.00000          -0.367469           -9.99935
     46       2.00000          -0.364486           -9.91817
     47       2.00000          -0.359289           -9.77676
     48       2.00000          -0.353621           -9.62251
     49       2.00000          -0.343029           -9.33428
     50       2.00000          -0.337512           -9.18417
     51       2.00000          -0.328139           -8.92911
     52       2.00000          -0.324179           -8.82137
     53       2.00000          -0.244030           -6.64038
     54       2.00000          -0.235192           -6.39991
     55       2.00000          -0.222111           -6.04394
     56       2.00000          -0.216748           -5.89802
     57       2.00000          -0.205443           -5.59037
     58       2.00000          -0.195825           -5.32868
     59       0.00000          -0.059295           -1.61351
     60       0.00000          -0.049370           -1.34342
     61       0.00000          -0.041189           -1.12081
     62       0.00000          -0.037208           -1.01248
     63       0.00000          -0.023000           -0.62587
     64       0.00000          -0.012173           -0.33125
     65       0.00000          -0.008138           -0.22145
     66       0.00000           0.002711            0.07376
     67       0.00000           0.015087            0.41053
     68       0.00000           0.016586            0.45133
     69       0.00000           0.018025            0.49049
     70       0.00000           0.028523            0.77615
     71       0.00000           0.032584            0.88666
     72       0.00000           0.043259            1.17712
     73       0.00000           0.045120            1.22778
     74       0.00000           0.047964            1.30518
     75       0.00000           0.051041            1.38889
     76       0.00000           0.062831            1.70971
     77       0.00000           0.068340            1.85964
     78       0.00000           0.072839            1.98205
     79       0.00000           0.079642            2.16716
     80       0.00000           0.085073            2.31496
     81       0.00000           0.093108            2.53361
     82       0.00000           0.099048            2.69524
     83       0.00000           0.106875            2.90822
     84       0.00000           0.109980            2.99272
     85       0.00000           0.112868            3.07131
     86       0.00000           0.116520            3.17066
     87       0.00000           0.124453            3.38653
     88       0.00000           0.125525            3.41571
     89       0.00000           0.136006            3.70092
     90       0.00000           0.138662            3.77318
     91       0.00000           0.145881            3.96962
     92       0.00000           0.152395            4.14687
     93       0.00000           0.155750            4.23818
     94       0.00000           0.159932            4.35196
     95       0.00000           0.166328            4.52600
     96       0.00000           0.170104            4.62875
     97       0.00000           0.179060            4.87246
     98       0.00000           0.181629            4.94238
     99       0.00000           0.184118            5.01011
    100       0.00000           0.186741            5.08148
    101       0.00000           0.191206            5.20298
    102       0.00000           0.198103            5.39067
    103       0.00000           0.200472            5.45512
    104       0.00000           0.202939            5.52226
    105       0.00000           0.208023            5.66058
    106       0.00000           0.214189            5.82839
    107       0.00000           0.223358            6.07788
    108       0.00000           0.226706            6.16899
    109       0.00000           0.229291            6.23933
    110       0.00000           0.235556            6.40980
    111       0.00000           0.247685            6.73984
    112       0.00000           0.249031            6.77647
    113       0.00000           0.251451            6.84233
    114       0.00000           0.256184            6.97112
    115       0.00000           0.263548            7.17151
    116       0.00000           0.272199            7.40690
    117       0.00000           0.274293            7.46390
    118       0.00000           0.278544            7.57956
    119       0.00000           0.289116            7.86724
    120       0.00000           0.294561            8.01542
    121       0.00000           0.297857            8.10510
    122       0.00000           0.300233            8.16976
    123       0.00000           0.308974            8.40761
    124       0.00000           0.310965            8.46180
    125       0.00000           0.312685            8.50858
    126       0.00000           0.323248            8.79604
    127       0.00000           0.336645            9.16059
    128       0.00000           0.341053            9.28051
    129       0.00000           0.345524            9.40218

  Highest occupied state (VBM) at     -5.32868278 eV
  | Occupation number:      2.00000000

  Lowest unoccupied state (CBM) at    -1.61351241 eV
  | Occupation number:      0.00000000

  Overall HOMO-LUMO gap:      3.71517037 eV.

  Total energy components:
  | Sum of eigenvalues            :        -417.27594427 Ha      -11354.65616223 eV
  | XC energy correction          :        -100.75496871 Ha       -2741.68219394 eV
  | XC potential correction       :         129.53184983 Ha        3524.74097076 eV
  | Free-atom electrostatic energy:        -333.61348683 Ha       -9078.08486462 eV
  | Hartree energy correction     :         -20.59346107 Ha        -560.37658735 eV
  | vdW energy correction         :           0.00000000 Ha           0.00000000 eV
  | Entropy correction            :           0.00000000 Ha           0.00000000 eV
  | ---------------------------
  | Total energy                  :        -742.70601106 Ha      -20210.05883739 eV
  | Total energy, T -> 0          :        -742.70601106 Ha      -20210.05883739 eV  <-- do not rely on this value for anything but (periodic) metals
  | Electronic free energy        :        -742.70601106 Ha      -20210.05883739 eV

  Derived energy quantities:
  | Kinetic energy                :         744.02715669 Ha       20246.00903906 eV
  | Electrostatic energy          :       -1385.97819903 Ha      -37714.38568251 eV
  | Energy correction for multipole
  | error in Hartree potential    :          -0.04329868 Ha          -1.17821703 eV
  | Sum of eigenvalues per atom                           :        -354.83300507 eV
  | Total energy (T->0) per atom                          :        -631.56433867 eV  <-- do not rely on this value for anything but (periodic) metals
  | Electronic free energy per atom                       :        -631.56433867 eV

  Self-consistency convergence accuracy:
  | Change of charge density      :  0.9030E+00
  | Change of sum of eigenvalues  :  0.5604E+03 eV
  | Change of total energy        :  0.1557E+02 eV

  End self-consistency iteration #     1       :  max(cpu_time)    wall_clock(cpu1)
  | Time for this iteration                    :        1.704 s           1.700 s
  | Charge density update                      :        0.536 s           0.533 s
[...]
   ----------------------------------------------------------------
   Total forces(  20)            :  0.683619E-03  0.364798E-02 -0.636384E-03
  atom #   21
   Hellmann-Feynman              : -0.556426E-01  0.107444E-01  0.241947E-01
   Ionic forces                  :  0.000000E+00  0.000000E+00  0.000000E+00
   Multipole                     :  0.470377E-02 -0.175075E-01 -0.342070E-01
   Pulay + GGA                   :  0.646858E-01  0.215602E-02  0.103881E-01
   Van der Waals                 : -0.123872E-01  0.569897E-02  0.278077E-03
   ----------------------------------------------------------------
   Total forces(  21)            :  0.135976E-02  0.109194E-02  0.653950E-03
  atom #   22
   Hellmann-Feynman              : -0.529238E-01 -0.644495E-02  0.431386E-01
   Ionic forces                  :  0.000000E+00  0.000000E+00  0.000000E+00
   Multipole                     : -0.293800E-02 -0.819819E-02 -0.134409E-01
   Pulay + GGA                   :  0.586753E-01  0.107956E-01 -0.322837E-01
   Van der Waals                 : -0.183598E-02  0.403421E-02  0.270053E-02
   ----------------------------------------------------------------
   Total forces(  22)            :  0.977520E-03  0.186708E-03  0.114543E-03
  atom #   23
   Hellmann-Feynman              :  0.188728E+00 -0.716116E+00  0.341760E+00
   Ionic forces                  :  0.000000E+00  0.000000E+00  0.000000E+00
   Multipole                     :  0.132531E-01  0.241123E+00 -0.509812E-01
   Pulay + GGA                   : -0.178221E+00  0.474290E+00 -0.300790E+00
   Van der Waals                 : -0.238080E-01 -0.112162E-02  0.913406E-02
   ----------------------------------------------------------------
   Total forces(  23)            : -0.481085E-04 -0.182474E-02 -0.877101E-03
  atom #   24
   Hellmann-Feynman              :  0.260026E-01  0.438439E-01  0.188764E-01
   Ionic forces                  :  0.000000E+00  0.000000E+00  0.000000E+00
   Multipole                     : -0.161559E-01 -0.126865E-01  0.287297E-01
   Pulay + GGA                   : -0.124724E-01 -0.226262E-01 -0.547005E-01
   Van der Waals                 :  0.215143E-02 -0.880303E-02  0.689676E-02
   ----------------------------------------------------------------
   Total forces(  24)            : -0.474303E-03 -0.271870E-03 -0.197518E-03
  atom #   25
   Hellmann-Feynman              :  0.274489E-01  0.303919E-01  0.308734E-01
   Ionic forces                  :  0.000000E+00  0.000000E+00  0.000000E+00
   Multipole                     :  0.183074E-01  0.362813E-02 -0.219452E-01
   Pulay + GGA                   : -0.541582E-01 -0.308036E-01 -0.116932E-01
   Van der Waals                 :  0.733621E-02 -0.258362E-02  0.388758E-02
   ----------------------------------------------------------------
   Total forces(  25)            : -0.106578E-02  0.632740E-03  0.112253E-02
  atom #   26
   Hellmann-Feynman              : -0.349872E-01  0.407664E-01 -0.119675E-01
   Ionic forces                  :  0.000000E+00  0.000000E+00  0.000000E+00
   Multipole                     : -0.169010E-01 -0.296343E-01 -0.131742E-01
   Pulay + GGA                   :  0.608081E-01 -0.566630E-02  0.255374E-01
   Van der Waals                 : -0.920510E-02 -0.592331E-02  0.116901E-03
   ----------------------------------------------------------------
   Total forces(  26)            : -0.285165E-03 -0.457529E-03  0.512667E-03
  atom #   27
   Hellmann-Feynman              :  0.157120E+01  0.190894E+00  0.115234E+00
   Ionic forces                  :  0.000000E+00  0.000000E+00  0.000000E+00
   Multipole                     :  0.940509E-01  0.211801E+00  0.120645E+00
   Pulay + GGA                   : -0.164945E+01 -0.405202E+00 -0.251366E+00
   Van der Waals                 : -0.171943E-01  0.351338E-02  0.152190E-01
   ----------------------------------------------------------------
   Total forces(  27)            : -0.139856E-02  0.100628E-02 -0.268445E-03
  atom #   28
   Hellmann-Feynman              : -0.143873E+01  0.842900E+00 -0.164987E+01
   Ionic forces                  :  0.000000E+00  0.000000E+00  0.000000E+00
   Multipole                     :  0.131168E+00 -0.624092E-01  0.871723E-01
   Pulay + GGA                   :  0.130454E+01 -0.771300E+00  0.153532E+01
   Van der Waals                 :  0.282338E-02 -0.932930E-02  0.268813E-01
   ----------------------------------------------------------------
   Total forces(  28)            : -0.192594E-03 -0.138910E-03 -0.501942E-03
  atom #   29
   Hellmann-Feynman              :  0.671372E-04  0.355476E-01 -0.339345E-03
   Ionic forces                  :  0.000000E+00  0.000000E+00  0.000000E+00
   Multipole                     : -0.186809E-01  0.159263E-01 -0.265518E-01
   Pulay + GGA                   :  0.256347E-01 -0.557731E-01  0.119049E-01
   Van der Waals                 : -0.650790E-02  0.423869E-02  0.162547E-01
   ----------------------------------------------------------------
   Total forces(  29)            :  0.513016E-03 -0.605136E-04  0.126858E-02
  atom #   30
   Hellmann-Feynman              :  0.456465E-01  0.106552E-01 -0.149361E-01
   Ionic forces                  :  0.000000E+00  0.000000E+00  0.000000E+00
   Multipole                     :  0.169236E-01  0.932983E-02 -0.219110E-01
   Pulay + GGA                   : -0.620755E-01 -0.224745E-01  0.275507E-01
   Van der Waals                 : -0.119027E-02  0.307969E-02  0.980820E-02
   ----------------------------------------------------------------
   Total forces(  30)            : -0.695688E-03  0.590154E-03  0.511787E-03
  atom #   31
   Hellmann-Feynman              :  0.244066E-01  0.142380E-01  0.452410E-01
   Ionic forces                  :  0.000000E+00  0.000000E+00  0.000000E+00
   Multipole                     : -0.315183E-01  0.157988E-01  0.102100E-01
   Pulay + GGA                   :  0.646871E-02 -0.342958E-01 -0.575665E-01
   Van der Waals                 :  0.466828E-03  0.361452E-02  0.248510E-02
   ----------------------------------------------------------------
   Total forces(  31)            : -0.176194E-03 -0.644549E-03  0.369598E-03
  atom #   32
   Hellmann-Feynman              :  0.480006E-01 -0.141406E-01  0.459130E-01
   Ionic forces                  :  0.000000E+00  0.000000E+00  0.000000E+00
   Multipole                     : -0.309239E-01 -0.340069E-01 -0.255054E-01
   Pulay + GGA                   : -0.164597E-01  0.523375E-01 -0.248561E-01
   Van der Waals                 : -0.453310E-03 -0.350608E-02  0.375282E-02
   ----------------------------------------------------------------
   Total forces(  32)            :  0.163768E-03  0.683976E-03 -0.695691E-03

  Timings for VdW correction (Tkatchenko-Scheffler 2009 or later):
  | CPU time:        0.132 s, Wall clock time:        0.130 s.
  Removing unitary transformations (pure translations, rotations) from forces on atoms.
  Atomic forces before filtering:
  | Net force on center of mass :  -0.893248E-03 -0.452578E-04  0.251958E-04 eV/A
  | Net torque on center of mass:   0.132694E-02 -0.328937E-02  0.134807E-02 eV
  Atomic forces after filtering:
  | Net force on center of mass :   0.326671E-18  0.522674E-18  0.784011E-18 eV/A
  | Net torque on center of mass:   0.221270E-17 -0.396442E-17  0.530126E-18 eV

  Energy and forces in a compact form:
  | Total energy uncorrected      :         -0.202084092742640E+05 eV
  | Total energy corrected        :         -0.202084092742640E+05 eV  <-- do not rely on this value for anything but (periodic) metals
  | Electronic free energy        :         -0.202084092742640E+05 eV
  Total atomic forces (unitary forces cleaned) [eV/Ang]:
  |   1          0.912522709456086E-03         -0.101605517370365E-02          0.268559008902505E-03
  |   2         -0.192207876757593E-02         -0.857878755657342E-03         -0.135250355317720E-02
  |   3          0.198926864260934E-02         -0.741545157525954E-03          0.146874789795297E-02
  |   4          0.756915481490348E-03         -0.764114831063450E-03          0.956469665044090E-03
  |   5          0.854240478509881E-04         -0.481927801966301E-03         -0.511788789205690E-03
  |   6         -0.698201635929783E-03         -0.538267312314463E-04          0.422601975309435E-03
  |   7         -0.222941527385323E-02          0.172919831702638E-02         -0.547870081546038E-04
  |   8         -0.139238013971253E-02          0.157269356251338E-03         -0.103959642209922E-02
  |   9         -0.378716375243595E-04         -0.289482006080346E-02         -0.656221725162772E-03
  |  10          0.396238849798816E-03          0.583142923669547E-04          0.299456751440821E-02
  |  11          0.100771133217380E-02         -0.157727483809836E-02         -0.161487090948333E-02
  |  12          0.461732765513814E-03          0.417045696390998E-03         -0.121246586453301E-02
  |  13         -0.186398622700623E-02          0.116507035319729E-02          0.570435402067970E-03
  |  14          0.302752866595855E-03         -0.549121346370548E-03          0.431588110022987E-04
  |  15         -0.148954190653897E-03          0.815206780432719E-04         -0.511139060722617E-03
  |  16          0.758816074610007E-03          0.177414262239844E-03         -0.356346695420179E-03
  |  17          0.271916142310727E-02          0.110787828596252E-02         -0.105416266637104E-02
  |  18         -0.141927000248702E-02          0.162755134410314E-02         -0.419299794023341E-03
  |  19          0.941346671795504E-03         -0.184318702301048E-02          0.842627935227261E-03
  |  20          0.699242690377395E-03          0.363743531072779E-02         -0.654625609470263E-03
  |  21          0.141057074020458E-02          0.108332189866926E-02          0.603628531964574E-03
  |  22          0.992738457510595E-03          0.164833838685006E-03          0.679638406687998E-04
  |  23         -0.333959497174032E-04         -0.183806468496419E-02         -0.901440585353518E-03
  |  24         -0.476857145808983E-03         -0.292433267844644E-03         -0.222084680925714E-03
  |  25         -0.104663382778472E-02          0.627497806533794E-03          0.111405772233701E-02
  |  26         -0.261675024888490E-03         -0.471890354598263E-03          0.476470564603348E-03
  |  27         -0.140718828578004E-02          0.991608170545321E-03         -0.271676533455293E-03
  |  28         -0.214321444299502E-03         -0.153565518823774E-03         -0.491352605415950E-03
  |  29          0.501128695393296E-03         -0.758497388004423E-04          0.126709793502292E-02
  |  30         -0.714423989340697E-03          0.583438976288213E-03          0.539395594422796E-03
  |  31         -0.215117193495172E-03         -0.666515327250676E-03          0.379699714641324E-03
  |  32          0.146199287370280E-03          0.668672024681876E-03         -0.691119610601771E-03

  ------------------------------------ 
  Start decomposition of the XC Energy 
  ------------------------------------ 
  Hartree-Fock part   :          0.000000000 Ha              0.000000000 eV
  ------------------------------------ 
  X Energy            :        -96.983038640 Ha          -2639.042754403 eV
  C Energy GGA        :         -3.872307854 Ha           -105.370857927 eV
  Total XC Energy     :       -100.855346494 Ha          -2744.413612330 eV
  LDA X and C from self-consistent density 
  X Energy LDA        :        -88.006036715 Ha          -2394.766103366 eV
  C Energy LDA        :         -7.532901816 Ha           -204.980687723 eV
  ------------------------------------ 
  End decomposition of the XC Energy 
  ------------------------------------ 
   
  ESP charge fitting starts.
  | Calculation :  00000001  of  00000001
  | Full density
  Computing multipole expansion for total density.
  Generating points for esp charges.
  Partitioning the integration grid into batches with parallel hashing+maxmin method.
  | Number of batches:     3927
  | Maximal batch size:     198
  | Minimal batch size:      51
  | Average batch size:     124.052
  | Standard deviation of batch sizes:      16.458

  Integration load balanced across    32 MPI tasks.
  Work distribution over tasks is as follows:
  Initializing partition tables, free-atom densities, potentials, etc. across the integration grid (initialize_grid_storage).
  | Original list of interatomic distances with          32 x         32 entries is created.
  | Net number of integration points:   487152
  | of which are non-zero points    :   487152
  Summing up potential from multipole expanded  density.
  Summing up the Hartree potential.
  Time summed over all CPUs for potential: real work        6.373 s, elapsed        6.666 s
  Fitting esp charges to potential.
  |
  | ESP charges fitted to the electrostatic potential :
  |
  | Atom         1: C, ESP charge:      0.80880984
  |
  | Atom         2: C, ESP charge:     -0.49588839
  |
  | Atom         3: O, ESP charge:      0.47783556
  |
  | Atom         4: H, ESP charge:     -0.24355941
  |
  | Atom         5: H, ESP charge:     -0.23716963
  |
  | Atom         6: H, ESP charge:     -0.19335330
  |
  | Atom         7: N, ESP charge:      0.31789659
  |
  | Atom         8: C, ESP charge:     -0.63988786
  |
  | Atom         9: C, ESP charge:     -0.41413258
  |
  | Atom        10: O, ESP charge:      0.52113156
  |
  | Atom        11: H, ESP charge:     -0.20713123
  |
  | Atom        12: H, ESP charge:      0.09096451
  |
  | Atom        13: C, ESP charge:      0.31331886
  |
  | Atom        14: H, ESP charge:     -0.09031774
  |
  | Atom        15: H, ESP charge:     -0.02454388
  |
  | Atom        16: H, ESP charge:     -0.07436761
  |
  | Atom        17: N, ESP charge:      0.63814182
  |
  | Atom        18: C, ESP charge:     -0.04492178
  |
  | Atom        19: C, ESP charge:     -0.39066610
  |
  | Atom        20: O, ESP charge:      0.45459753
  |
  | Atom        21: H, ESP charge:     -0.37728253
  |
  | Atom        22: H, ESP charge:     -0.13642712
  |
  | Atom        23: C, ESP charge:      0.39644479
  |
  | Atom        24: H, ESP charge:     -0.06052486
  |
  | Atom        25: H, ESP charge:     -0.12083486
  |
  | Atom        26: H, ESP charge:     -0.17164412
  |
  | Atom        27: N, ESP charge:      0.30922248
  |
  | Atom        28: C, ESP charge:      0.36602496
  |
  | Atom        29: H, ESP charge:     -0.32787299
  |
  | Atom        30: H, ESP charge:     -0.12223647
  |
  | Atom        31: H, ESP charge:     -0.14305607
  |
  | Atom        32: H, ESP charge:     -0.17856996

  RRMS:       0.00207991

  Done.

------------------------------------------------------------------------------
  Final output of selected total energy values:

  The following output summarizes some interesting total energy values
  at the end of a run (AFTER all relaxation, molecular dynamics, etc.).

  | Total energy of the DFT / Hartree-Fock s.c.f. calculation      :         -20208.409274264 eV
  | Final zero-broadening corrected energy (caution - metals only) :         -20208.409274264 eV
  | For reference only, the value of 1 Hartree used in FHI-aims is :             27.211384500 eV

  Before relying on these values, please be sure to understand exactly which
  total energy value is referred to by a given number. Different objects may
  all carry the same name 'total energy'. Definitions:

  Total energy of the DFT / Hartree-Fock s.c.f. calculation:
  | Note that this energy does not include ANY quantities calculated after the
  | s.c.f. cycle, in particular not ANY RPA, MP2, etc. many-body perturbation terms.

  Final zero-broadening corrected energy:
  | For metallic systems only, a broadening of the occupation numbers at the Fermi
  | level can be extrapolated back to zero broadening by an electron-gas inspired
  | formula. For all systems that are not real metals, this value can be
  | meaningless and should be avoided.

------------------------------------------------------------------------------
  Methods described in the following list of references were used in this FHI-aims run.
  If you publish the results, please make sure to cite these reference if they apply.
  FHI-aims is an academic code, and for our developers (often, Ph.D. students
  and postdocs), scientific credit in the community is essential.
  Thank you for helping us!

  For any use of FHI-aims, please cite:

    Volker Blum, Ralf Gehrke, Felix Hanke, Paula Havu, Ville Havu,
    Xinguo Ren, Karsten Reuter, and Matthias Scheffler
    'Ab initio molecular simulations with numeric atom-centered orbitals'
    Computer Physics Communications 180, 2175-2196 (2009)
    http://dx.doi.org/10.1016/j.cpc.2009.06.022


  The scalable eigensolver library ELPA was used in your run.
  ELPA is essential especially for large systems on hundreds or thousands of CPUs.
  For ELPA, please cite:

    Andreas Marek, Volker Blum, Rainer Johanni, Ville Havu, Bruno Lang,
    Thomas Auckenthaler, Alexander Heinecke, Hans-Joachim Bungartz, and Hermann Lederer,
    'The ELPA Library - Scalable Parallel Eigenvalue Solutions
    for Electronic Structure Theory and Computational Science'
    The Journal of Physics: Condensed Matter 26, 213201 (2014).
    http://dx.doi.org/10.1088/0953-8984/26/21/213201


  For ELPA's efficient two-stage tridiagonalization used in your run, please cite:

    T. Auckenthaler, V. Blum, H.-J. Bungartz, T. Huckle, R. Johanni, L. Kraemer,
    B. Lang, H. Lederer, and P. R. Willems,
    'Parallel solution of partial symmetric eigenvalue problems'
    'from  electronic structure calculations'
    Parallel Computing 37, 783-794 (2011).
    http://dx.doi.org/10.1016/j.parco.2011.05.002


  For the real-space grid partitioning and parallelization used in this calculation, please cite:

    Ville Havu, Volker Blum, Paula Havu, and Matthias Scheffler,
    'Efficient O(N) integration for all-electron electronic structure calculation'
    'using numerically tabulated basis functions'
    Journal of Computational Physics 228, 8367-8379 (2009).
    http://dx.doi.org/10.1016/j.jcp.2009.08.008

  Of course, there are many other important community references, e.g., those cited in the
  above references. Our list is limited to references that describe implementations in the
  FHI-aims code. The reason is purely practical (length of this list) - please credit others as well.

------------------------------------------------------------
          Leaving FHI-aims.
          Date     :  20170309, Time     :  182328.721

          Computational steps:
          | Number of self-consistency cycles          :           14

          Detailed time accounting                     :  max(cpu_time)    wall_clock(cpu1)
          | Total time                                 :       33.006 s          33.159 s
          | Preparation time                           :        0.240 s           0.239 s
          | Grid partitioning                          :        0.300 s           0.296 s
          | Preloading free-atom quantities on grid    :        0.028 s           0.028 s
          | Free-atom superposition energy             :        0.044 s           0.041 s
          | Total time for integrations                :       12.681 s          12.653 s
          | Total time for solution of K.-S. equations :        0.528 s           0.496 s
          | Total time for density & force components  :       10.561 s          10.540 s
          | Total time for mixing                      :        0.124 s           0.107 s
          | Total time for Hartree multipole update    :        0.068 s           0.058 s
          | Total time for Hartree multipole sum       :        6.304 s           6.282 s
          | Total time for total energy evaluation     :        0.028 s           0.022 s
          | Total time for vdW correction              :        0.132 s           0.130 s

          Have a nice day.
------------------------------------------------------------
