  MPI-parallelism will be employed.
------------------------------------------------------------
          Invoking FHI-aims ...
          Version 150427
          Git rev.: 9dd23e0 BL: Update Version stamp
          Compiled on 2015/11/03 at 22:05:20 on host eos03.

          When using FHI-aims, please cite the following reference:

          Volker Blum, Ralf Gehrke, Felix Hanke, Paula Havu,
          Ville Havu, Xinguo Ren, Karsten Reuter, and Matthias Scheffler,
          'Ab Initio Molecular Simulations with Numeric Atom-Centered Orbitals: FHI-aims',
          Computer Physics Communications 180, 2175-2196 (2009)

          For any questions about FHI-aims, please visit the aimsclub website
          with its forums and wiki. Contributions to both the forums and the
          wiki are warmly encouraged - they are for you, and everyone is welcome there.

------------------------------------------------------------

  Date     :  20170309, Time     :  162110.247
  Time zero on CPU 1             :   0.296018000000000E+00  s.
  Internal wall clock time zero  :           258308470.247  s.

  Using       32 parallel tasks.
  Task        0 on host eos045 reporting.
  Task        1 on host eos045 reporting.
  Task        2 on host eos045 reporting.
  Task        3 on host eos045 reporting.
  Task        4 on host eos045 reporting.
  Task        5 on host eos045 reporting.
  Task        6 on host eos045 reporting.
  Task        7 on host eos045 reporting.
  Task        8 on host eos045 reporting.
  Task        9 on host eos045 reporting.
  Task       10 on host eos045 reporting.
  Task       11 on host eos045 reporting.
  Task       12 on host eos045 reporting.
  Task       13 on host eos045 reporting.
  Task       14 on host eos045 reporting.
  Task       15 on host eos045 reporting.
  Task       16 on host eos045 reporting.
  Task       17 on host eos045 reporting.
  Task       18 on host eos045 reporting.
  Task       19 on host eos045 reporting.
  Task       20 on host eos045 reporting.
  Task       21 on host eos045 reporting.
  Task       22 on host eos045 reporting.
  Task       23 on host eos045 reporting.
  Task       24 on host eos045 reporting.
  Task       25 on host eos045 reporting.
  Task       26 on host eos045 reporting.
  Task       27 on host eos045 reporting.
  Task       28 on host eos045 reporting.
  Task       29 on host eos045 reporting.
  Task       30 on host eos045 reporting.
  Task       31 on host eos045 reporting.

  Performing system and environment tests:
  | Environment variable OMP_NUM_THREADS correctly set to 1.
  | Stacksize not measured: no C compiler
  | Checking for scalapack...
  | Testing pdtran()...
  | All pdtran() tests passed.

  Obtaining array dimensions for all initial allocations:
  
  -----------------------------------------------------------------------
  Parsing control.in (first pass over file, find array dimensions only).
  The contents of control.in will be repeated verbatim below
  unless switched off by setting 'verbatim_writeout .false.' .
  in the first line of control.in .
  -----------------------------------------------------------------------
  
  #########################################################################################
  #
  # Input for System
  #
  #########################################################################################
  #
  #
  #  Physical model
  #
    xc                 pbe
    vdw_correction_hirshfeld
    spin               none
    charge             0.
  #
  #  SCF convergence
  #
    occupation_type    gaussian 0.05
    mixer              pulay
      n_max_pulay        10
      charge_mix_param   0.5
    sc_accuracy_rho    1E-4
    sc_accuracy_eev    1E-2
    sc_accuracy_etot   1E-5
    sc_accuracy_forces 1E-4
    sc_iter_limit      1000
  #
  #  ESP charge
  #
    output esp
    esp equal_grid_n 80 80 80
  #
  #
  ################################################################################
  #
  #  FHI-aims code project
  # Volker Blum, Fritz Haber Institute Berlin, 2009
  #
  #  Suggested "tight" defaults for H atom (to be pasted into control.in file)
  #
  ################################################################################
    species        H
  #     global species definitions
      nucleus             1
      mass                1.00794
  #
      l_hartree           6
  #
      cut_pot             4.0  2.0  1.0
      basis_dep_cutoff    1e-4
  #
      radial_base         24 7.0
      radial_multiplier   2
      angular_grids       specified
        division   0.1930   50
        division   0.3175  110
        division   0.4293  194
        division   0.5066  302
        division   0.5626  434
  #      division   0.5922  590
  #      division   0.6227  974
  #      division   0.6868 1202
  #      outer_grid  770
        outer_grid  434
  ################################################################################
  #
  #  Definition of "minimal" basis
  #
  ################################################################################
  #     valence basis states
      valence      1  s   1.
  #     ion occupancy
      ion_occ      1  s   0.5
  ################################################################################
  #
  #  Suggested additional basis functions. For production calculations,
  #  uncomment them one after another (the most important basis functions are
  #  listed first).
  #
  #  Basis constructed for dimers: 0.5 A, 0.7 A, 1.0 A, 1.5 A, 2.5 A
  #
  ################################################################################
  #  "First tier" - improvements: -1014.90 meV to -62.69 meV
       hydro 2 s 2.1
       hydro 2 p 3.5
  #  "Second tier" - improvements: -12.89 meV to -1.83 meV
       hydro 1 s 0.85
       hydro 2 p 3.7
       hydro 2 s 1.2
       hydro 3 d 7
  #  "Third tier" - improvements: -0.25 meV to -0.12 meV
  #     hydro 4 f 11.2
  #     hydro 3 p 4.8
  #     hydro 4 d 9
  #     hydro 3 s 3.2
  ################################################################################
  #
  # For methods that use the localized form of the "resolution of identity" for
  # the two-electron Coulomb operator (RI_method LVL), particularly Hartree-Fock and
  # hybrid density functional calculations, the highest accuracy can be obtained by
  # uncommenting the line beginning with "for_aux"  below, thus adding an extra g radial
  # function to the construction of the product basis set for the expansion.
  # See Ref. New J. Phys. 17, 093020 (2015) for more information, particularly Figs. 1 and 6.
  #
  ################################################################################
  #
  # for_aux hydro 5 g 6.0
  ################################################################################
  #
  #  FHI-aims code project
  # Volker Blum, Fritz Haber Institute Berlin, 2009
  #
  #  Suggested "tight" defaults for C atom (to be pasted into control.in file)
  #
  ################################################################################
    species        C
  #     global species definitions
      nucleus             6
      mass                12.0107
  #
      l_hartree           6
  #
      cut_pot             4.0  2.0  1.0
      basis_dep_cutoff    1e-4
  #
      radial_base         34 7.0
      radial_multiplier   2
      angular_grids specified
        division   0.2187   50
        division   0.4416  110
        division   0.6335  194
        division   0.7727  302
        division   0.8772  434
  #      division   0.9334  590
  #      division   0.9924  770
  #      division   1.0230  974
  #      division   1.5020 1202
  #     outer_grid  974
        outer_grid  434
  ################################################################################
  #
  #  Definition of "minimal" basis
  #
  ################################################################################
  #     valence basis states
      valence      2  s   2.
      valence      2  p   2.
  #     ion occupancy
      ion_occ      2  s   1.
      ion_occ      2  p   1.
  ################################################################################
  #
  #  Suggested additional basis functions. For production calculations,
  #  uncomment them one after another (the most important basis functions are
  #  listed first).
  #
  #  Constructed for dimers: 1.0 A, 1.25 A, 1.5 A, 2.0 A, 3.0 A
  #
  ################################################################################
  #  "First tier" - improvements: -1214.57 meV to -155.61 meV
       hydro 2 p 1.7
       hydro 3 d 6
       hydro 2 s 4.9
  #  "Second tier" - improvements: -67.75 meV to -5.23 meV
       hydro 4 f 9.8
       hydro 3 p 5.2
       hydro 3 s 4.3
       hydro 5 g 14.4
       hydro 3 d 6.2
  #  "Third tier" - improvements: -2.43 meV to -0.60 meV
  #     hydro 2 p 5.6
  #     hydro 2 s 1.4
  #     hydro 3 d 4.9
  #     hydro 4 f 11.2
  #  "Fourth tier" - improvements: -0.39 meV to -0.18 meV
  #     hydro 2 p 2.1
  #     hydro 5 g 16.4
  #     hydro 4 d 13.2
  #     hydro 3 s 13.6
  #     hydro 4 f 17.6
  #  Further basis functions - improvements: -0.08 meV and below
  #     hydro 3 s 2
  #     hydro 3 p 6
  #     hydro 4 d 20
  ################################################################################
  #
  # For methods that use the localized form of the "resolution of identity" for
  # the two-electron Coulomb operator (RI_method LVL), particularly Hartree-Fock and
  # hybrid density functional calculations, the highest accuracy can be obtained by
  # uncommenting the line beginning with "for_aux"  below, thus adding an extra g radial
  # function to the construction of the product basis set for the expansion.
  # See Ref. New J. Phys. 17, 093020 (2015) for more information, particularly Figs. 1 and 6.
  #
  ################################################################################
  #
  # for_aux hydro 5 g 6.0
  ################################################################################
  #
  #  FHI-aims code project
  # Volker Blum, Fritz Haber Institute Berlin, 2009
  #
  #  Suggested "tight" defaults for N atom (to be pasted into control.in file)
  #
  ################################################################################
    species        N
  #     global species definitions
      nucleus             7
      mass                14.0067
  #
      l_hartree           6
  #
      cut_pot             4.0  2.0  1.0
      basis_dep_cutoff    1e-4
  #
      radial_base         35 7.0
      radial_multiplier   2
      angular_grids       specified
        division   0.1841   50
        division   0.3514  110
        division   0.5126  194
        division   0.6292  302
        division   0.6939  434
  #      division   0.7396  590
  #      division   0.7632  770
  #      division   0.8122  974
  #      division   1.1604 1202
  #      outer_grid  974
        outer_grid  434
  ################################################################################
  #
  #  Definition of "minimal" basis
  #
  ################################################################################
  #     valence basis states
      valence      2  s   2.
      valence      2  p   3.
  #     ion occupancy
      ion_occ      2  s   1.
      ion_occ      2  p   2.
  ################################################################################
  #
  #  Suggested additional basis functions. For production calculations,
  #  uncomment them one after another (the most important basis functions are
  #  listed first).
  #
  #  Constructed for dimers: 1.0 A, 1.1 A, 1.5 A, 2.0 A, 3.0 A
  #
  ################################################################################
  #  "First tier" - improvements: -1193.42 meV to -220.60 meV
       hydro 2 p 1.8
       hydro 3 d 6.8
       hydro 3 s 5.8
  #  "Second tier" - improvements: -80.21 meV to -6.86 meV
       hydro 4 f 10.8
       hydro 3 p 5.8
       hydro 1 s 0.8
       hydro 5 g 16
       hydro 3 d 4.9
  #  "Third tier" - improvements: -4.29 meV to -0.53 meV
  #     hydro 3 s 16
  #     ionic 2 p auto
  #     hydro 3 d 6.6
  #     hydro 4 f 11.6
  #  "Fourth tier" - improvements: -0.75 meV to -0.25 meV
  #     hydro 2 p 4.5
  #     hydro 2 s 2.4
  #     hydro 5 g 14.4
  #     hydro 4 d 14.4
  #     hydro 4 f 16.8
  # Further basis functions - -0.21 meV and below
  #     hydro 3 p 14.8
  #     hydro 3 s 4.4
  #     hydro 3 d 19.6
  #     hydro 5 g 12.8
  ################################################################################
  #
  # For methods that use the localized form of the "resolution of identity" for
  # the two-electron Coulomb operator (RI_method LVL), particularly Hartree-Fock and
  # hybrid density functional calculations, the highest accuracy can be obtained by
  # uncommenting the line beginning with "for_aux"  below, thus adding an extra g radial
  # function to the construction of the product basis set for the expansion.
  # See Ref. New J. Phys. 17, 093020 (2015) for more information, particularly Figs. 1 and 6.
  #
  ################################################################################
  #
  # for_aux hydro 5 g 6.0
  ################################################################################
  #
  #  FHI-aims code project
  # Volker Blum, Fritz Haber Institute Berlin, 2009
  #
  #  Suggested "tight" defaults for O atom (to be pasted into control.in file)
  #
  ################################################################################
    species        O
  #     global species definitions
      nucleus             8
      mass                15.9994
  #
      l_hartree           6
  #
      cut_pot             4.0  2.0  1.0
      basis_dep_cutoff    1e-4
  #
      radial_base         36 7.0
      radial_multiplier   2
       angular_grids specified
        division   0.1817   50
        division   0.3417  110
        division   0.4949  194
        division   0.6251  302
        division   0.8014  434
  #      division   0.8507  590
  #      division   0.8762  770
  #      division   0.9023  974
  #      division   1.2339 1202
  #      outer_grid 974
        outer_grid  434
  ################################################################################
  #
  #  Definition of "minimal" basis
  #
  ################################################################################
  #     valence basis states
      valence      2  s   2.
      valence      2  p   4.
  #     ion occupancy
      ion_occ      2  s   1.
      ion_occ      2  p   3.
  ################################################################################
  #
  #  Suggested additional basis functions. For production calculations,
  #  uncomment them one after another (the most important basis functions are
  #  listed first).
  #
  #  Constructed for dimers: 1.0 A, 1.208 A, 1.5 A, 2.0 A, 3.0 A
  #
  ################################################################################
  #  "First tier" - improvements: -699.05 meV to -159.38 meV
       hydro 2 p 1.8
       hydro 3 d 7.6
       hydro 3 s 6.4
  #  "Second tier" - improvements: -49.91 meV to -5.39 meV
       hydro 4 f 11.6
       hydro 3 p 6.2
       hydro 3 d 5.6
       hydro 5 g 17.6
       hydro 1 s 0.75
  #  "Third tier" - improvements: -2.83 meV to -0.50 meV
  #     ionic 2 p auto
  #     hydro 4 f 10.8
  #     hydro 4 d 4.7
  #     hydro 2 s 6.8
  #  "Fourth tier" - improvements: -0.40 meV to -0.12 meV
  #     hydro 3 p 5
  #     hydro 3 s 3.3
  #     hydro 5 g 15.6
  #     hydro 4 f 17.6
  #     hydro 4 d 14
  # Further basis functions - -0.08 meV and below
  #     hydro 3 s 2.1
  #     hydro 4 d 11.6
  #     hydro 3 p 16
  #     hydro 2 s 17.2
  ################################################################################
  #
  # For methods that use the localized form of the "resolution of identity" for
  # the two-electron Coulomb operator (RI_method LVL), particularly Hartree-Fock and
  # hybrid density functional calculations, the highest accuracy can be obtained by
  # uncommenting the line beginning with "for_aux"  below, thus adding an extra g radial
  # function to the construction of the product basis set for the expansion.
  # See Ref. New J. Phys. 17, 093020 (2015) for more information, particularly Figs. 1 and 6.
  #
  ################################################################################
  #
  # for_aux hydro 5 g 6.0
  
  -----------------------------------------------------------------------
  Completed first pass over input file control.in .
  -----------------------------------------------------------------------
  
  
  -----------------------------------------------------------------------
  Parsing geometry.in (first pass over file, find array dimensions only).
  The contents of geometry.in will be repeated verbatim below
  unless switched off by setting 'verbatim_writeout .false.' .
  in the first line of geometry.in .
  -----------------------------------------------------------------------
  
  #
  # This is the geometry file that corresponds to the current relaxation step.
  # If you do not want this file to be written, set the "write_restart_geometry" flag to .false.
  #
  atom      -1.42739197     -0.38278526     -0.04627879 C
  atom      -0.73257947     -0.27963749      1.29816292 C
  atom       0.48780031     -0.22435144      1.41018640 O
  atom      -0.92516684      0.28193766     -0.75721573 H
  atom      -2.49725679     -0.14022293     -0.01023102 H
  atom      -1.31780662     -1.41252607     -0.41450077 H
  atom      -1.56821997     -0.30104430      2.39201000 N
  atom      -1.07276806     -0.24069149      3.75839413 C
  atom      -0.78724707     -1.62288905      4.39093596 C
  atom      -0.29109658     -1.70814140      5.51461501 O
  atom      -2.57049903     -0.28144067      2.24074115 H
  atom      -0.08846329      0.24884768      3.70963133 H
  atom      -2.01602007      0.56432384      4.65275480 C
  atom      -3.02276052      0.11965091      4.66984070 H
  atom      -2.09640942      1.59965557      4.29853338 H
  atom      -1.63341502      0.56707877      5.67922985 H
  atom      -1.12313658     -2.69449913      3.63293661 N
  atom      -0.78575159     -4.05164343      4.00553689 C
  atom      -0.61917561     -4.83207550      2.69305789 C
  atom      -1.18793141     -4.46398471      1.66229407 O
  atom      -1.43735508     -2.57359102      2.67178456 H
  atom       0.15660351     -4.01933689      4.57363319 H
  atom      -1.87518879     -4.69522063      4.88456495 C
  atom      -1.61045304     -5.72028912      5.17563374 H
  atom      -2.82883214     -4.72412022      4.34193898 H
  atom      -1.99955016     -4.09903156      5.79619511 H
  atom       0.14121218     -5.96030412      2.72720831 N
  atom       0.97590260     -6.44242579      3.81787820 C
  atom       0.19595815     -6.43779909      1.83310092 H
  atom       1.50841741     -7.33475044      3.47280035 H
  atom       0.38470993     -6.72746318      4.69931394 H
  atom       1.72618902     -5.69928348      4.12396900 H
  
  -----------------------------------------------------------------------
  Completed first pass over input file geometry.in .
  -----------------------------------------------------------------------
  

  Basic array size parameters:
  | Number of species                 :        4
  | Number of atoms                   :       32
  | Max. basis fn. angular momentum   :        4
  | Max. atomic/ionic basis occupied n:        2
  | Max. number of basis fn. types    :        2
  | Max. radial fns per species/type  :        8
  | Max. logarithmic grid size        :     1301
  | Max. radial integration grid size :       73
  | Max. angular integration grid size:      434
  | Max. angular grid division number :        8
  | Radial grid for Hartree potential :     1301
  | Number of spin channels           :        1

------------------------------------------------------------
          Reading file control.in.
------------------------------------------------------------
  XC: Using PBE gradient-corrected functionals.
  Spin treatment: No spin polarisation.
  Charge =   0.000000E+00: Neutral system requested explicitly.
  Occupation type: Gaussian broadening, width =   0.500000E-01 eV.
  Using pulay charge density mixing.
  Pulay mixing - number of memorized iterations:   10
  Charge density mixing - mixing parameter:     0.5000
  Convergence accuracy of self-consistent charge density:  0.1000E-03
  Convergence accuracy of sum of eigenvalues:  0.1000E-01
  Convergence accuracy of total energy:  0.1000E-04
  Convergence accuracy of forces:  0.1000E-03
  Maximum number of s.-c. iterations  :  1000
  Fitting ESP-charges to Potential. 
  | Esp charge output options: 
  | ESP Grid method: 3, cubic grid
  | Number of points in x, ,y, z:  0080 0080 0080
  |
 
  Reading configuration options for species H                   .
  | Found nuclear charge :   1.0000
  | Found atomic mass :    1.00794000000000      amu
  | Found l_max for Hartree potential  :   6
  | Found cutoff potl. onset [A], width [A], scale factor :    4.00000    2.00000    1.00000
  | Threshold for basis-dependent cutoff potential is   0.100000E-03
  | Found data for basic radial integration grid :    24 points, outermost radius =    7.000 A
  | Found multiplier for basic radial grid :   2
  | Found angular grid specification: user-specified.
  | Specified grid contains     6 separate shells.
  | Check grid settings after all constraints further below.
  | Found free-atom valence shell :  1 s   1.000
  | No ionic wave fns used. Skipping ion_occ.
  | Found hydrogenic basis function :  2 s   2.100
  | Found hydrogenic basis function :  2 p   3.500
  | Found hydrogenic basis function :  1 s   0.850
  | Found hydrogenic basis function :  2 p   3.700
  | Found hydrogenic basis function :  2 s   1.200
  | Found hydrogenic basis function :  3 d   7.000
  Species H                   : Missing cutoff potential type.
  Defaulting to exp(1/x)/(1-x)^2 type cutoff potential.
  Species H : No 'logarithmic' tag. Using default grid for free atom:
  | Default logarithmic grid data [bohr] : 0.1000E-03 0.1000E+03 0.1012E+01
  Species H : On-site basis accuracy parameter (for Gram-Schmidt orthonormalisation) not specified.
  Using default value basis_acc =  0.1000000E-03.
  Species H                   : Using default innermost maximum threshold i_radial=  2 for radial functions.
  Species H                   : Default cutoff onset for free atom density etc. : 0.40000000E+01 AA.
  Species H                   : Basic radial grid will be enhanced according to radial_multiplier =   2, to contain    49 grid points.
 
  Reading configuration options for species C                   .
  | Found nuclear charge :   6.0000
  | Found atomic mass :    12.0107000000000      amu
  | Found l_max for Hartree potential  :   6
  | Found cutoff potl. onset [A], width [A], scale factor :    4.00000    2.00000    1.00000
  | Threshold for basis-dependent cutoff potential is   0.100000E-03
  | Found data for basic radial integration grid :    34 points, outermost radius =    7.000 A
  | Found multiplier for basic radial grid :   2
  | Found angular grid specification: user-specified.
  | Specified grid contains     6 separate shells.
  | Check grid settings after all constraints further below.
  | Found free-atom valence shell :  2 s   2.000
  | Found free-atom valence shell :  2 p   2.000
  | No ionic wave fns used. Skipping ion_occ.
  | No ionic wave fns used. Skipping ion_occ.
  | Found hydrogenic basis function :  2 p   1.700
  | Found hydrogenic basis function :  3 d   6.000
  | Found hydrogenic basis function :  2 s   4.900
  | Found hydrogenic basis function :  4 f   9.800
  | Found hydrogenic basis function :  3 p   5.200
  | Found hydrogenic basis function :  3 s   4.300
  | Found hydrogenic basis function :  5 g  14.400
  | Found hydrogenic basis function :  3 d   6.200
  Species C                   : Missing cutoff potential type.
  Defaulting to exp(1/x)/(1-x)^2 type cutoff potential.
  Species C : No 'logarithmic' tag. Using default grid for free atom:
  | Default logarithmic grid data [bohr] : 0.1000E-03 0.1000E+03 0.1012E+01
  Species C : On-site basis accuracy parameter (for Gram-Schmidt orthonormalisation) not specified.
  Using default value basis_acc =  0.1000000E-03.
  Species C                   : Using default innermost maximum threshold i_radial=  2 for radial functions.
  Species C                   : Default cutoff onset for free atom density etc. : 0.40000000E+01 AA.
  Species C                   : Basic radial grid will be enhanced according to radial_multiplier =   2, to contain    69 grid points.
 
  Reading configuration options for species N                   .
  | Found nuclear charge :   7.0000
  | Found atomic mass :    14.0067000000000      amu
  | Found l_max for Hartree potential  :   6
  | Found cutoff potl. onset [A], width [A], scale factor :    4.00000    2.00000    1.00000
  | Threshold for basis-dependent cutoff potential is   0.100000E-03
  | Found data for basic radial integration grid :    35 points, outermost radius =    7.000 A
  | Found multiplier for basic radial grid :   2
  | Found angular grid specification: user-specified.
  | Specified grid contains     6 separate shells.
  | Check grid settings after all constraints further below.
  | Found free-atom valence shell :  2 s   2.000
  | Found free-atom valence shell :  2 p   3.000
  | No ionic wave fns used. Skipping ion_occ.
  | No ionic wave fns used. Skipping ion_occ.
  | Found hydrogenic basis function :  2 p   1.800
  | Found hydrogenic basis function :  3 d   6.800
  | Found hydrogenic basis function :  3 s   5.800
  | Found hydrogenic basis function :  4 f  10.800
  | Found hydrogenic basis function :  3 p   5.800
  | Found hydrogenic basis function :  1 s   0.800
  | Found hydrogenic basis function :  5 g  16.000
  | Found hydrogenic basis function :  3 d   4.900
  Species N                   : Missing cutoff potential type.
  Defaulting to exp(1/x)/(1-x)^2 type cutoff potential.
  Species N : No 'logarithmic' tag. Using default grid for free atom:
  | Default logarithmic grid data [bohr] : 0.1000E-03 0.1000E+03 0.1012E+01
  Species N : On-site basis accuracy parameter (for Gram-Schmidt orthonormalisation) not specified.
  Using default value basis_acc =  0.1000000E-03.
  Species N                   : Using default innermost maximum threshold i_radial=  2 for radial functions.
  Species N                   : Default cutoff onset for free atom density etc. : 0.40000000E+01 AA.
  Species N                   : Basic radial grid will be enhanced according to radial_multiplier =   2, to contain    71 grid points.
 
  Reading configuration options for species O                   .
  | Found nuclear charge :   8.0000
  | Found atomic mass :    15.9994000000000      amu
  | Found l_max for Hartree potential  :   6
  | Found cutoff potl. onset [A], width [A], scale factor :    4.00000    2.00000    1.00000
  | Threshold for basis-dependent cutoff potential is   0.100000E-03
  | Found data for basic radial integration grid :    36 points, outermost radius =    7.000 A
  | Found multiplier for basic radial grid :   2
  | Found angular grid specification: user-specified.
  | Specified grid contains     6 separate shells.
  | Check grid settings after all constraints further below.
  | Found free-atom valence shell :  2 s   2.000
  | Found free-atom valence shell :  2 p   4.000
  | No ionic wave fns used. Skipping ion_occ.
  | No ionic wave fns used. Skipping ion_occ.
  | Found hydrogenic basis function :  2 p   1.800
  | Found hydrogenic basis function :  3 d   7.600
  | Found hydrogenic basis function :  3 s   6.400
  | Found hydrogenic basis function :  4 f  11.600
  | Found hydrogenic basis function :  3 p   6.200
  | Found hydrogenic basis function :  3 d   5.600
  | Found hydrogenic basis function :  5 g  17.600
  | Found hydrogenic basis function :  1 s   0.750
  Species O                   : Missing cutoff potential type.
  Defaulting to exp(1/x)/(1-x)^2 type cutoff potential.
  Species O : No 'logarithmic' tag. Using default grid for free atom:
  | Default logarithmic grid data [bohr] : 0.1000E-03 0.1000E+03 0.1012E+01
  Species O : On-site basis accuracy parameter (for Gram-Schmidt orthonormalisation) not specified.
  Using default value basis_acc =  0.1000000E-03.
  Species O                   : Using default innermost maximum threshold i_radial=  2 for radial functions.
  Species O                   : Default cutoff onset for free atom density etc. : 0.40000000E+01 AA.
  Species O                   : Basic radial grid will be enhanced according to radial_multiplier =   2, to contain    73 grid points.
 
  Finished reading input file 'control.in'. Consistency checks are next.
 
  Target number of points in a grid batch is not set. Defaulting to  100
  Method for grid partitioning is not set. Defaulting to parallel hash+maxmin partitioning.
  Batch size limit is not set. Defaulting to    200
  By default, will store active basis functions for each batch.
  If in need of memory, prune_basis_once .false. can be used to disable this option.
  communication_type for Hartree potential was not specified.
  Defaulting to calc_hartree .
  Pulay mixer: Number of initial linear mixing iterations not set.
  Defaulting to    0 iterations.
  Work space size for distributed Hartree potential not set.
  Defaulting to   0.200000E+03 MB.
  Algorithm-dependent basis array size parameters:
  | n_max_pulay                         :       10
  Geometry relaxation not requested: no relaxation will be performed.
  Handling of forces: Unphysical translation and rotation will be removed from forces.
  No accuracy limit for integral partition fn. given. Defaulting to  0.1000E-14.
  No threshold value for u(r) in integrations given. Defaulting to  0.1000E-05.
  No accuracy for occupation numbers given. Defaulting to  0.1000E-07.
  No threshold value for occupation numbers given. Defaulting to  0.0000E+00.
  No accuracy for fermi level given. Defaulting to  0.1000E-19.
  Maximum # of iterations to find E_F not set. Defaulting to  200.
  Preferred method for the eigenvalue solver ('KS_method') not specified in 'control.in'.
  Calling blacs routine to test compilation state
  Since scalapack support is enabled, defaulting to 'elpa'.
  Preferred method for the MBD eigenvalue solver ('mbd_eigensolver') not specified in 'control.in'.
  Calling blacs routine to test compilation state
  Since scalapack support is enabled, defaulting to 'scaLAPACK'.
  Will not use alltoall communication since running on < 1024 CPUs.
  Threshold for basis singularities not set.
  Default threshold for basis singularities:  0.1000E-04
  partition_type (choice of integration weights) for integrals was not specified.
  | Using a version of the partition function of Stratmann and coworkers ('stratmann_smoother').
  | At each grid point, the set of atoms used to build the partition table is smoothly restricted to
  | only those atoms whose free-atom density would be non-zero at that grid point.
  Partitioning for Hartree potential was not defined. Using partition_type for integrals.
  | Adjusted default value of keyword multip_moments_threshold to:       0.10000000E-11
  | This value may affect high angular momentum components of the Hartree potential in periodic systems.
  No q(lm)/r^(l+1) cutoff set for long-range Hartree potential.
  | Using default value of  0.100000E-09 .
  | Verify using the multipole_threshold keyword.
  Defaulting to new monopole extrapolation.
  Density update method: automatic selection selected.
------------------------------------------------------------


------------------------------------------------------------
          Reading geometry description geometry.in.
------------------------------------------------------------
 * Warning! You did not set the 'relativistic' flag in input file 'control.in'.
 * Since you are not attempting to treat any elements beyond Ca(Z=20), FHI-aims
 * will default to 'relativistic none'.
 * You must ensure that this is really what you want!!
 * For example, DO NOT compute total-energy differences between results from
 * different settings of the 'relativistic' flag.
  Input structure read successfully.
  The structure contains       32 atoms,  and a total of        116.000 electrons.

  Input geometry:
  | No unit cell requested.
  | Atomic structure:
  |       Atom                x [A]            y [A]            z [A]
  |    1: Species C             -1.427392        -0.382785        -0.046279
  |    2: Species C             -0.732579        -0.279637         1.298163
  |    3: Species O              0.487800        -0.224351         1.410186
  |    4: Species H             -0.925167         0.281938        -0.757216
  |    5: Species H             -2.497257        -0.140223        -0.010231
  |    6: Species H             -1.317807        -1.412526        -0.414501
  |    7: Species N             -1.568220        -0.301044         2.392010
  |    8: Species C             -1.072768        -0.240691         3.758394
  |    9: Species C             -0.787247        -1.622889         4.390936
  |   10: Species O             -0.291097        -1.708141         5.514615
  |   11: Species H             -2.570499        -0.281441         2.240741
  |   12: Species H             -0.088463         0.248848         3.709631
  |   13: Species C             -2.016020         0.564324         4.652755
  |   14: Species H             -3.022761         0.119651         4.669841
  |   15: Species H             -2.096409         1.599656         4.298533
  |   16: Species H             -1.633415         0.567079         5.679230
  |   17: Species N             -1.123137        -2.694499         3.632937
  |   18: Species C             -0.785752        -4.051643         4.005537
  |   19: Species C             -0.619176        -4.832076         2.693058
  |   20: Species O             -1.187931        -4.463985         1.662294
  |   21: Species H             -1.437355        -2.573591         2.671785
  |   22: Species H              0.156604        -4.019337         4.573633
  |   23: Species C             -1.875189        -4.695221         4.884565
  |   24: Species H             -1.610453        -5.720289         5.175634
  |   25: Species H             -2.828832        -4.724120         4.341939
  |   26: Species H             -1.999550        -4.099032         5.796195
  |   27: Species N              0.141212        -5.960304         2.727208
  |   28: Species C              0.975903        -6.442426         3.817878
  |   29: Species H              0.195958        -6.437799         1.833101
  |   30: Species H              1.508417        -7.334750         3.472800
  |   31: Species H              0.384710        -6.727463         4.699314
  |   32: Species H              1.726189        -5.699283         4.123969
  |

  | The smallest distance between any two atoms is         1.01381945 AA.
  |
  | The first atom of this pair is atom number                      7 .
  | The second atom of this pair is atom number                    11 .

  Number of empty states per atom not set in control.in - providing a guess from actual geometry.
  | Total number of empty states used during s.c.f. cycle:       71
  If you use a very high smearing, use empty_states (per atom!) in control.in to increase this value.

  Structure-dependent array size parameters: 
  | Maximum number of distinct radial functions  :       40
  | Maximum number of basis functions            :      840
  | Number of Kohn-Sham states (occupied + empty):      129
------------------------------------------------------------

------------------------------------------------------------
          Preparing all fixed parts of the calculation.
------------------------------------------------------------
  Determining machine precision:
    2.225073858507201E-308
  Setting up grids for atomic and cluster calculations.

  Creating wave function, potential, and density for free atoms.

  Species: H

  List of occupied orbitals and eigenvalues:
    n    l              occ      energy [Ha]    energy [eV]
    1    0           1.0000        -0.238382        -6.4867


  Species: C

  List of occupied orbitals and eigenvalues:
    n    l              occ      energy [Ha]    energy [eV]
    1    0           2.0000       -10.041232      -273.2358
    2    0           2.0000        -0.504327       -13.7234
    2    1           2.0000        -0.193750        -5.2722


  Species: N

  List of occupied orbitals and eigenvalues:
    n    l              occ      energy [Ha]    energy [eV]
    1    0           2.0000       -14.129007      -384.4699
    2    0           2.0000        -0.681802       -18.5528
    2    1           3.0000        -0.260543        -7.0897


  Species: O

  List of occupied orbitals and eigenvalues:
    n    l              occ      energy [Ha]    energy [eV]
    1    0           2.0000       -18.898576      -514.2564
    2    0           2.0000        -0.878795       -23.9132
    2    1           4.0000        -0.332075        -9.0362

  Creating fixed part of basis set: Ionic, confined, hydrogenic.
 
  H                    hydrogenic:
 
  List of hydrogenic basis orbitals: 
    n    l      effective z      eigenvalue [eV]  inner max. [A]     outer max. [A]     outer radius [A]   
    2    0         2.100000       -14.9965           0.193243           1.317208           5.373006
    2    1         3.500000       -41.6672           0.602369           0.602369           4.056063
    1    0         0.850000        -9.8292           0.624871           0.624871           5.373006
    2    1         3.700000       -46.5653           0.573622           0.573622           3.910002
    2    0         1.200000        -4.5995           0.334980           2.228188           5.505995
    3    2         7.000000       -74.0753           0.680699           0.680699           3.769201
 
 
  C                    hydrogenic:
 
  List of hydrogenic basis orbitals: 
    n    l      effective z      eigenvalue [eV]  inner max. [A]     outer max. [A]     outer radius [A]   
    2    1         1.700000        -9.8152           1.245706           1.245706           5.401630
    3    2         6.000000       -54.4226           0.792453           0.792453           4.178599
    2    0         4.900000       -81.6681           0.082559           0.562749           3.353238
    4    3         9.800000       -81.6681           0.863254           0.863254           4.028125
    3    1         5.200000       -40.8774           0.305389           1.215618           4.898362
    3    0         4.300000       -27.9508           0.091041           1.610311           5.401630
    5    4        14.400000      -112.8510           0.917666           0.917666           3.883070
    3    2         6.200000       -58.1113           0.763917           0.763917           4.077671
 
 
  N                    hydrogenic:
 
  List of hydrogenic basis orbitals: 
    n    l      effective z      eigenvalue [eV]  inner max. [A]     outer max. [A]     outer radius [A]   
    2    1         1.800000       -11.0118           1.177451           1.177451           5.427479
    3    2         6.800000       -69.9029           0.704619           0.704619           3.854246
    3    0         5.800000       -50.8549           0.067388           1.191934           4.629968
    4    3        10.800000       -99.1854           0.786571           0.786571           3.761152
    3    1         5.800000       -50.8549           0.274880           1.094176           4.518138
    1    0         0.800000        -8.7059           0.662839           0.662839           5.361532
    5    4        16.000000      -139.3222           0.825990           0.825990           3.625711
    3    2         4.900000       -36.2967           0.968267           0.968267           4.862000
 
 
  O                    hydrogenic:
 
  List of hydrogenic basis orbitals: 
    n    l      effective z      eigenvalue [eV]  inner max. [A]     outer max. [A]     outer radius [A]   
    2    1         1.800000       -11.0118           1.178562           1.178562           5.432602
    3    2         7.600000       -87.3182           0.624125           0.624125           3.541477
    3    0         6.400000       -61.9209           0.061167           1.081902           4.306578
    4    3        11.600000      -114.4238           0.731631           0.731631           3.585037
    3    1         6.200000       -58.1113           0.255680           1.030270           4.306578
    3    2         5.600000       -47.4081           0.847233           0.847233           4.413171
    5    4        17.600000      -168.5799           0.749740           0.749740           3.372465
    1    0         0.750000        -7.6499           0.705284           0.705284           5.366593
 

  Adding cutoff potential to free-atom effective potential.
  Creating atomic-like basis functions for current effective potential.

  Species H                   :

  List of atomic basis orbitals and eigenvalues:
    n    l      energy [Ha]    energy [eV]    outer radius [A]
    1    0        -0.238382        -6.4867       5.373006


  Species C                   :

  List of atomic basis orbitals and eigenvalues:
    n    l      energy [Ha]    energy [eV]    outer radius [A]
    1    0       -10.041232      -273.2358       1.934409
    2    0        -0.504327       -13.7234       5.271162
    2    1        -0.193750        -5.2722       5.401630


  Species N                   :

  List of atomic basis orbitals and eigenvalues:
    n    l      energy [Ha]    energy [eV]    outer radius [A]
    1    0       -14.129007      -384.4699       1.637919
    2    0        -0.681802       -18.5528       5.168461
    2    1        -0.260543        -7.0897       5.361532


  Species O                   :

  List of atomic basis orbitals and eigenvalues:
    n    l      energy [Ha]    energy [eV]    outer radius [A]
    1    0       -18.898576      -514.2564       1.415765
    2    0        -0.878795       -23.9132       5.048385
    2    1        -0.332075        -9.0362       5.301386

  Assembling full basis from fixed parts.
  | Species H :   atomic orbital   1 s accepted.
  | Species H :    hydro orbital   2 s accepted.
  | Species H :    hydro orbital   1 s accepted.
  | Species H :    hydro orbital   2 s accepted.
  | Species H :    hydro orbital   2 p accepted.
  | Species H :    hydro orbital   2 p accepted.
  | Species H :    hydro orbital   3 d accepted.
  | Species C :   atomic orbital   1 s accepted.
  | Species C :    hydro orbital   2 s accepted.
  | Species C :   atomic orbital   2 s accepted.
  | Species C :    hydro orbital   3 s accepted.
  | Species C :    hydro orbital   3 p accepted.
  | Species C :   atomic orbital   2 p accepted.
  | Species C :    hydro orbital   2 p accepted.
  | Species C :    hydro orbital   3 d accepted.
  | Species C :    hydro orbital   3 d accepted.
  | Species C :    hydro orbital   4 f accepted.
  | Species C :    hydro orbital   5 g accepted.
  | Species N :   atomic orbital   1 s accepted.
  | Species N :    hydro orbital   3 s accepted.
  | Species N :   atomic orbital   2 s accepted.
  | Species N :    hydro orbital   1 s accepted.
  | Species N :    hydro orbital   3 p accepted.
  | Species N :   atomic orbital   2 p accepted.
  | Species N :    hydro orbital   2 p accepted.
  | Species N :    hydro orbital   3 d accepted.
  | Species N :    hydro orbital   3 d accepted.
  | Species N :    hydro orbital   4 f accepted.
  | Species N :    hydro orbital   5 g accepted.
  | Species O :   atomic orbital   1 s accepted.
  | Species O :    hydro orbital   3 s accepted.
  | Species O :   atomic orbital   2 s accepted.
  | Species O :    hydro orbital   1 s accepted.
  | Species O :    hydro orbital   3 p accepted.
  | Species O :   atomic orbital   2 p accepted.
  | Species O :    hydro orbital   2 p accepted.
  | Species O :    hydro orbital   3 d accepted.
  | Species O :    hydro orbital   3 d accepted.
  | Species O :    hydro orbital   4 f accepted.
  | Species O :    hydro orbital   5 g accepted.
 
  Basis size parameters after reduction:
  | Total number of radial functions:       40
  | Total number of basis functions :      840
 
  Testing on-site integration grid accuracy.
  |  Species  Function  <phi|h_atom|phi> (log., in eV)  <phi|h_atom|phi> (rad., in eV)
           1        1                 -6.4869821809                 -6.4870742227
           1        2                 13.5044133542                 13.5041049177
           1        3                 32.7854418792                 32.7779770519
           1        4                 33.7995553101                 33.7152624900 ***
           1        5                 28.8558651799                 28.8558652046
           1        6                 59.6361831893                 59.6362535845
           1        7                 60.2733718049                 60.2733715484
           2        8               -273.2358277112               -273.2358261765
           2        9                -10.7624923123                -10.7625144012
           2       10                 17.4634079027                 17.4634252127
           2       11                 53.0363661832                 53.0366180446
           2       12                 15.0981351967                 15.0981317714
           2       13                  3.8522181899                  3.8522770949
           2       14                 12.1181835661                 12.1206868578
           2       15                 29.4320778347                 29.4320780959
           2       16                 54.8753777694                 54.8752901936
           2       17                 59.3533975461                 59.3533974833
           2       18                 93.4537491195                 93.4537492066
           3       19               -384.4698526889               -384.4698499465
           3       20                 12.5691022037                 12.5690910168
           3       21                -15.7489097511                -15.7489165588
           3       22                 27.0978334940                 27.0985589490
           3       23                 18.5949116966                 18.5949125562
           3       24                  1.2212828291                  1.2212855301
           3       25                 13.4428926797                 13.4434051125
           3       26                 35.9380614500                 35.9380613666
           3       27                 39.9231532098                 39.9231654735
           3       28                 72.9957335806                 72.9957336833
           3       29                116.4231321147                116.4231321431
           4       30               -514.2564144315               -514.2564099626
           4       31                 15.1726678541                 15.1726530877
           4       32                -21.5447785304                -21.5447874973
           4       33                 14.4944558459                 14.4944698284
           4       34                 20.8882174564                 20.8882178906
           4       35                 -2.4850315908                 -2.4850322289
           4       36                 13.8600193195                 13.8599826966
           4       37                 45.8243383616                 45.8243383675
           4       38                 52.1840606465                 52.1840622440
           4       39                 85.4074185510                 85.4074185819
           4       40                142.0983717302                142.0983717339
 * Note: Onsite integrals marked "***" above are less accurate than
 * onsite_accuracy_threshold =    0.03000 eV. Usually, this is harmless.
 * When in doubt, tighten the "radial" and/or "radial_multiplier" flags to check.

  Preparing densities etc. for the partition functions (integrals / Hartree potential).

  Preparations completed.
  max(cpu_time)          :      0.240 s.
  Wall clock time (cpu1) :      0.241 s.
------------------------------------------------------------

------------------------------------------------------------
          Begin self-consistency loop: Initialization.

          Date     :  20170309, Time     :  162111.249
------------------------------------------------------------

  Initializing index lists of integration centers etc. from given atomic structure:
  | Number of centers in hartree potential         :        32
  | Number of centers in hartree multipole         :        32
  | Number of centers in electron density summation:        32
  | Number of centers in basis integrals           :        32
  | Number of centers in integrals                 :        32
  | Number of centers in hamiltonian               :        32
  Using modified Scalapack Eigenvalue solver (ELPA)
  * Using 32 tasks for Scalapack Eigenvalue solver.
  Detailed listing of tasks and assigned k-points:
  (for non-periodic systems, the "k-point" denotes an internal label only)
   Task     0 k-point     1 on eos045
   Task     1 k-point     1 on eos045
   Task     2 k-point     1 on eos045
   Task     3 k-point     1 on eos045
   Task     4 k-point     1 on eos045
   Task     5 k-point     1 on eos045
   Task     6 k-point     1 on eos045
   Task     7 k-point     1 on eos045
   Task     8 k-point     1 on eos045
   Task     9 k-point     1 on eos045
   Task    10 k-point     1 on eos045
   Task    11 k-point     1 on eos045
   Task    12 k-point     1 on eos045
   Task    13 k-point     1 on eos045
   Task    14 k-point     1 on eos045
   Task    15 k-point     1 on eos045
   Task    16 k-point     1 on eos045
   Task    17 k-point     1 on eos045
   Task    18 k-point     1 on eos045
   Task    19 k-point     1 on eos045
   Task    20 k-point     1 on eos045
   Task    21 k-point     1 on eos045
   Task    22 k-point     1 on eos045
   Task    23 k-point     1 on eos045
   Task    24 k-point     1 on eos045
   Task    25 k-point     1 on eos045
   Task    26 k-point     1 on eos045
   Task    27 k-point     1 on eos045
   Task    28 k-point     1 on eos045
   Task    29 k-point     1 on eos045
   Task    30 k-point     1 on eos045
   Task    31 k-point     1 on eos045
  Tasks:    32 split into      8 X      4 BLACS grid
  Calculating blocksize based on n_basis =          840 max_nprow =            8 max_npcol =            4
  Scalapack blocksize set to:           16
  Required Scalapack workspace - INTEGER:            1 REAL:             1
  Partitioning the integration grid into batches with parallel hashing+maxmin method.
  | Number of batches:     4687
  | Maximal batch size:     196
  | Minimal batch size:      22
  | Average batch size:     112.594
  | Standard deviation of batch sizes:      33.325

  Integration load balanced across    32 MPI tasks.
  Work distribution over tasks is as follows:
  Task     0 has      16505 integration points.
  Task     1 has      16521 integration points.
  Task     2 has      16542 integration points.
  Task     3 has      16496 integration points.
  Task     4 has      16481 integration points.
  Task     5 has      16489 integration points.
  Task     6 has      16420 integration points.
  Task     7 has      16400 integration points.
  Task     8 has      16476 integration points.
  Task     9 has      16484 integration points.
  Task    10 has      16477 integration points.
  Task    11 has      16479 integration points.
  Task    12 has      16483 integration points.
  Task    13 has      16479 integration points.
  Task    14 has      16471 integration points.
  Task    15 has      16424 integration points.
  Task    16 has      16489 integration points.
  Task    17 has      16573 integration points.
  Task    18 has      16549 integration points.
  Task    19 has      16563 integration points.
  Task    20 has      16485 integration points.
  Task    21 has      16566 integration points.
  Task    22 has      16543 integration points.
  Task    23 has      16426 integration points.
  Task    24 has      16484 integration points.
  Task    25 has      16539 integration points.
  Task    26 has      16481 integration points.
  Task    27 has      16487 integration points.
  Task    28 has      16475 integration points.
  Task    29 has      16400 integration points.
  Task    30 has      16491 integration points.
  Task    31 has      16550 integration points.
  Initializing partition tables, free-atom densities, potentials, etc. across the integration grid (initialize_grid_storage).
  | initialize_grid_storage: Actual outermost partition radius vs. multipole_radius_free
  | (-- VB: in principle, multipole_radius_free should be larger, hence this output)
  | Species        1: Confinement radius =              6.000000000000000 AA, multipole_radius_free =              6.071692442739658 AA.
  | Species        1: outer_partition_radius set to              6.071692442739658 AA .
  | Species        2: Confinement radius =              6.000000000000000 AA, multipole_radius_free =              6.029870734432609 AA.
  | Species        2: outer_partition_radius set to              6.029870734432609 AA .
  | Species        3: Confinement radius =              6.000000000000000 AA, multipole_radius_free =              6.058726835495003 AA.
  | Species        3: outer_partition_radius set to              6.058726835495003 AA .
  | Species        4: Confinement radius =              6.000000000000000 AA, multipole_radius_free =              6.064445521808699 AA.
  | Species        4: outer_partition_radius set to              6.064445521808699 AA .
  | Original list of interatomic distances with          32 x         32 entries is created.
  | Net number of integration points:   527728
  | of which are non-zero points    :   415936
  Obtaining max. number of non-zero basis functions in each batch (get_n_compute_maxes).
  | Maximal number of non-zero basis functions:      764 in task     0
  | Maximal number of non-zero basis functions:      746 in task     1
  | Maximal number of non-zero basis functions:      757 in task     2
  | Maximal number of non-zero basis functions:      747 in task     3
  | Maximal number of non-zero basis functions:      765 in task     4
  | Maximal number of non-zero basis functions:      772 in task     5
  | Maximal number of non-zero basis functions:      760 in task     6
  | Maximal number of non-zero basis functions:      739 in task     7
  | Maximal number of non-zero basis functions:      743 in task     8
  | Maximal number of non-zero basis functions:      764 in task     9
  | Maximal number of non-zero basis functions:      768 in task    10
  | Maximal number of non-zero basis functions:      764 in task    11
  | Maximal number of non-zero basis functions:      769 in task    12
  | Maximal number of non-zero basis functions:      740 in task    13
  | Maximal number of non-zero basis functions:      769 in task    14
  | Maximal number of non-zero basis functions:      749 in task    15
  | Maximal number of non-zero basis functions:      762 in task    16
  | Maximal number of non-zero basis functions:      744 in task    17
  | Maximal number of non-zero basis functions:      776 in task    18
  | Maximal number of non-zero basis functions:      760 in task    19
  | Maximal number of non-zero basis functions:      769 in task    20
  | Maximal number of non-zero basis functions:      757 in task    21
  | Maximal number of non-zero basis functions:      746 in task    22
  | Maximal number of non-zero basis functions:      765 in task    23
  | Maximal number of non-zero basis functions:      764 in task    24
  | Maximal number of non-zero basis functions:      769 in task    25
  | Maximal number of non-zero basis functions:      756 in task    26
  | Maximal number of non-zero basis functions:      773 in task    27
  | Maximal number of non-zero basis functions:      744 in task    28
  | Maximal number of non-zero basis functions:      756 in task    29
  | Maximal number of non-zero basis functions:      765 in task    30
  | Maximal number of non-zero basis functions:      754 in task    31
  Selecting the method for density update.
  Loop over occupied states selected for charge density update.
  Integrating Hamiltonian matrix: batch-based integration.
  Time summed over all CPUs for integration: real work       19.619 s, elapsed       20.480 s
  Integrating overlap matrix.
  Time summed over all CPUs for integration: real work       11.529 s, elapsed       11.889 s
  Deallocating overlap matrix.

  Updating Kohn-Sham eigenvalues, eigenvectors, occupation numbers, and Fermi level.
  Solving generalized eigenproblem
  Solving real symmetric generalised eigenvalue problem by standard ScaLAPACK.
  Transforming overlap matrix with ScaLAPACK and checking for singularities.
  : Overlap matrix is nonsingular, using Cholesky decomposition
  | Lowest eigenvalue:  0.799208E-04
  Factoring overlap matrix with Cholesky decomposition
  Using Cholesky factor for transformation
  Using 1-stage real ELPA solver
  Determining occupation numbers for Kohn-Sham eigenstates.
  | Chemical potential (Fermi level) in eV                 : -.92792397E+01
  | Error in electron count due to remaining E_F inaccuracy: 0.00000000E+00
  | Maximum occupation number of highest empty state:  0.00E+00

  Writing Kohn-Sham eigenvalues.

  State    Occupation    Eigenvalue [Ha]    Eigenvalue [eV]
      1       2.00000         -18.974686         -516.32748
      2       2.00000         -18.973545         -516.29642
      3       2.00000         -18.973469         -516.29437
      4       2.00000         -14.257644         -387.97023
      5       2.00000         -14.255490         -387.91163
      6       2.00000         -14.254306         -387.87940
      7       2.00000         -10.171012         -276.76733
      8       2.00000         -10.170865         -276.76331
      9       2.00000         -10.170095         -276.74238
     10       2.00000         -10.166562         -276.64622
     11       2.00000         -10.149586         -276.18427
     12       2.00000         -10.148945         -276.16685
     13       2.00000         -10.135936         -275.81285
     14       2.00000         -10.135049         -275.78873
     15       2.00000         -10.135026         -275.78808
     16       2.00000          -1.134391          -30.86834
     17       2.00000          -1.131770          -30.79702
     18       2.00000          -1.127755          -30.68777
     19       2.00000          -1.024933          -27.88986
     20       2.00000          -1.012463          -27.55051
     21       2.00000          -1.008344          -27.43843
     22       2.00000          -0.889617          -24.20772
     23       2.00000          -0.874579          -23.79852
     24       2.00000          -0.841594          -22.90093
     25       2.00000          -0.816709          -22.22380
     26       2.00000          -0.783806          -21.32844
     27       2.00000          -0.753187          -20.49525
     28       2.00000          -0.702215          -19.10824
     29       2.00000          -0.691989          -18.82998
     30       2.00000          -0.685021          -18.64037
     31       2.00000          -0.642738          -17.48978
     32       2.00000          -0.622286          -16.93327
     33       2.00000          -0.605401          -16.47380
     34       2.00000          -0.602250          -16.38804
     35       2.00000          -0.596512          -16.23193
     36       2.00000          -0.580062          -15.78429
     37       2.00000          -0.572393          -15.57560
     38       2.00000          -0.562246          -15.29950
     39       2.00000          -0.556092          -15.13204
     40       2.00000          -0.553893          -15.07219
     41       2.00000          -0.545975          -14.85673
     42       2.00000          -0.543886          -14.79989
     43       2.00000          -0.542128          -14.75206
     44       2.00000          -0.529822          -14.41718
     45       2.00000          -0.521584          -14.19301
     46       2.00000          -0.514814          -14.00879
     47       2.00000          -0.509527          -13.86493
     48       2.00000          -0.498695          -13.57017
     49       2.00000          -0.496339          -13.50607
     50       2.00000          -0.487656          -13.26979
     51       2.00000          -0.479567          -13.04967
     52       2.00000          -0.470640          -12.80676
     53       2.00000          -0.419079          -11.40372
     54       2.00000          -0.403707          -10.98544
     55       2.00000          -0.402369          -10.94901
     56       2.00000          -0.392619          -10.68372
     57       2.00000          -0.382744          -10.41501
     58       2.00000          -0.378031          -10.28675
     59       0.00000          -0.166190           -4.52227
     60       0.00000          -0.156355           -4.25463
     61       0.00000          -0.153820           -4.18564
     62       0.00000          -0.077916           -2.12021
     63       0.00000          -0.069725           -1.89732
     64       0.00000          -0.056922           -1.54892
     65       0.00000          -0.048765           -1.32697
     66       0.00000          -0.044588           -1.21329
     67       0.00000          -0.040838           -1.11126
     68       0.00000          -0.035607           -0.96890
     69       0.00000          -0.032817           -0.89298
     70       0.00000          -0.027281           -0.74236
     71       0.00000          -0.022293           -0.60661
     72       0.00000          -0.019611           -0.53364
     73       0.00000          -0.008221           -0.22370
     74       0.00000          -0.004978           -0.13546
     75       0.00000          -0.002792           -0.07597
     76       0.00000           0.000085            0.00231
     77       0.00000           0.004017            0.10932
     78       0.00000           0.007923            0.21561
     79       0.00000           0.009667            0.26307
     80       0.00000           0.014017            0.38142
     81       0.00000           0.020841            0.56712
     82       0.00000           0.032117            0.87395
     83       0.00000           0.033330            0.90696
     84       0.00000           0.040109            1.09141
     85       0.00000           0.043635            1.18737
     86       0.00000           0.048210            1.31187
     87       0.00000           0.049868            1.35699
     88       0.00000           0.055756            1.51719
     89       0.00000           0.064903            1.76610
     90       0.00000           0.068780            1.87161
     91       0.00000           0.069989            1.90450
     92       0.00000           0.085850            2.33611
     93       0.00000           0.089262            2.42893
     94       0.00000           0.095646            2.60266
     95       0.00000           0.096691            2.63109
     96       0.00000           0.099576            2.70959
     97       0.00000           0.101800            2.77012
     98       0.00000           0.110662            3.01127
     99       0.00000           0.111744            3.04072
    100       0.00000           0.118406            3.22200
    101       0.00000           0.125176            3.40621
    102       0.00000           0.131904            3.58929
    103       0.00000           0.133196            3.62445
    104       0.00000           0.141724            3.85649
    105       0.00000           0.145320            3.95436
    106       0.00000           0.146888            3.99702
    107       0.00000           0.154202            4.19606
    108       0.00000           0.158186            4.30447
    109       0.00000           0.164920            4.48770
    110       0.00000           0.168216            4.57738
    111       0.00000           0.169578            4.61446
    112       0.00000           0.178280            4.85125
    113       0.00000           0.187109            5.09148
    114       0.00000           0.191492            5.21077
    115       0.00000           0.193278            5.25936
    116       0.00000           0.199500            5.42868
    117       0.00000           0.201402            5.48042
    118       0.00000           0.206348            5.61503
    119       0.00000           0.209184            5.69217
    120       0.00000           0.216304            5.88593
    121       0.00000           0.221395            6.02446
    122       0.00000           0.224964            6.12158
    123       0.00000           0.228046            6.20544
    124       0.00000           0.233405            6.35129
    125       0.00000           0.240740            6.55087
    126       0.00000           0.245920            6.69182
    127       0.00000           0.248750            6.76883
    128       0.00000           0.257125            6.99672
    129       0.00000           0.260729            7.09479

  Highest occupied state (VBM) at    -10.28675276 eV
  | Occupation number:      2.00000000

  Lowest unoccupied state (CBM) at    -4.52226866 eV
  | Occupation number:      0.00000000

  Overall HOMO-LUMO gap:      5.76448410 eV.
  Calculating total energy contributions from superposition of free atom densities.

  Total energy components:
  | Sum of eigenvalues            :        -437.92728294 Ha      -11916.60767919 eV
  | XC energy correction          :         -98.81905182 Ha       -2689.00321501 eV
  | XC potential correction       :         127.01892203 Ha        3456.36072622 eV
  | Free-atom electrostatic energy:        -333.57137024 Ha       -9076.93881382 eV
  | Hartree energy correction     :           0.00000000 Ha           0.00000000 eV
  | vdW energy correction         :           0.00000000 Ha           0.00000000 eV
  | Entropy correction            :          -0.00000000 Ha          -0.00000000 eV
  | ---------------------------
  | Total energy                  :        -743.29878297 Ha      -20226.18898179 eV
  | Total energy, T -> 0          :        -743.29878297 Ha      -20226.18898179 eV  <-- do not rely on this value for anything but (periodic) metals
  | Electronic free energy        :        -743.29878297 Ha      -20226.18898179 eV

  Derived energy quantities:
  | Kinetic energy                :         735.15822738 Ha       20004.67319347 eV
  | Electrostatic energy          :       -1379.63795853 Ha      -37541.85896025 eV
  | Energy correction for multipole
  | error in Hartree potential    :           0.00000000 Ha           0.00000000 eV
  | Sum of eigenvalues per atom                           :        -372.39398997 eV
  | Total energy (T->0) per atom                          :        -632.06840568 eV  <-- do not rely on this value for anything but (periodic) metals
  | Electronic free energy per atom                       :        -632.06840568 eV
  Initialize hartree_potential_storage
  Max. number of atoms included in rho_multipole:           32

  End scf initialization - timings             :  max(cpu_time)    wall_clock(cpu1)
  | Time for scf. initialization               :        1.752 s           1.751 s
  | Boundary condition initialization          :        0.004 s           0.001 s
  | Integration                                :        1.036 s           1.033 s
  | Solution of K.-S. eqns.                    :        0.076 s           0.076 s
  | Grid partitioning                          :        0.312 s           0.310 s
  | Preloading free-atom quantities on grid    :        0.028 s           0.028 s
  | Free-atom superposition energy             :        0.044 s           0.040 s
  | Total energy evaluation                    :        0.000 s           0.001 s
------------------------------------------------------------

------------------------------------------------------------
          Begin self-consistency iteration #    1

  Date     :  20170309, Time     :  162113.001
------------------------------------------------------------
  Evaluating new KS density.
  Integration grid: deviation in total charge (<rho> - N_e) =   8.526513E-14
  Pulay mixing of updated and previous charge densities.

  Evaluating partitioned Hartree potential by multipole expansion.
  | Analytical far-field extrapolation by fixed multipoles:
  | Hartree multipole sum: apparent total charge =   0.162937E-04
  Summing up the Hartree potential.
  Time summed over all CPUs for potential: real work        9.482 s, elapsed        9.788 s
  | RMS charge density error from multipole expansion :   0.108053E-01

  Integrating Hamiltonian matrix: batch-based integration.
  Time summed over all CPUs for integration: real work       19.710 s, elapsed       20.449 s

  Updating Kohn-Sham eigenvalues, eigenvectors, occupation numbers, and Fermi level.
  Solving generalized eigenproblem
  Solving real symmetric generalised eigenvalue problem by standard ScaLAPACK.
  Using Cholesky factor for transformation
  Using 2-stage real ELPA solver
  K-Point:    1, Trafo times: 1-stage=     0.021 s, 2-stage=     0.019 s ==> Using 2-stage solver
  Determining occupation numbers for Kohn-Sham eigenstates.
  | Chemical potential (Fermi level) in eV                 : -.38354938E+01
  | Error in electron count due to remaining E_F inaccuracy: 0.00000000E+00
  | Maximum occupation number of highest empty state:  0.00E+00

  Writing Kohn-Sham eigenvalues.

  State    Occupation    Eigenvalue [Ha]    Eigenvalue [eV]
      1       2.00000         -18.627524         -506.88071
      2       2.00000         -18.606831         -506.31762
      3       2.00000         -18.605878         -506.29171
      4       2.00000         -13.993092         -380.77140
      5       2.00000         -13.990341         -380.69656
      6       2.00000         -13.975770         -380.30004
      7       2.00000         -10.055581         -273.62628
      8       2.00000         -10.048891         -273.44424
      9       2.00000         -10.040171         -273.20697
     10       2.00000          -9.951403         -270.79146
     11       2.00000          -9.950932         -270.77865
     12       2.00000          -9.899271         -269.37286
     13       2.00000          -9.846955         -267.94928
     14       2.00000          -9.833725         -267.58928
     15       2.00000          -9.830760         -267.50860
     16       2.00000          -0.968653          -26.35840
     17       2.00000          -0.956171          -26.01874
     18       2.00000          -0.945819          -25.73706
     19       2.00000          -0.867285          -23.60001
     20       2.00000          -0.863257          -23.49041
     21       2.00000          -0.852026          -23.18480
     22       2.00000          -0.738875          -20.10582
     23       2.00000          -0.717041          -19.51168
     24       2.00000          -0.683303          -18.59361
     25       2.00000          -0.677431          -18.43384
     26       2.00000          -0.631117          -17.17358
     27       2.00000          -0.611529          -16.64055
     28       2.00000          -0.566004          -15.40175
     29       2.00000          -0.563301          -15.32819
     30       2.00000          -0.546432          -14.86917
     31       2.00000          -0.505996          -13.76886
     32       2.00000          -0.475777          -12.94655
     33       2.00000          -0.463010          -12.59915
     34       2.00000          -0.458464          -12.47544
     35       2.00000          -0.449091          -12.22039
     36       2.00000          -0.439243          -11.95240
     37       2.00000          -0.437672          -11.90966
     38       2.00000          -0.421747          -11.47633
     39       2.00000          -0.409081          -11.13166
     40       2.00000          -0.398214          -10.83596
     41       2.00000          -0.395827          -10.77101
     42       2.00000          -0.387067          -10.53264
     43       2.00000          -0.380937          -10.36583
     44       2.00000          -0.374073          -10.17905
     45       2.00000          -0.368303          -10.02203
     46       2.00000          -0.362097           -9.85315
     47       2.00000          -0.355005           -9.66019
     48       2.00000          -0.352272           -9.58581
     49       2.00000          -0.345695           -9.40684
     50       2.00000          -0.342840           -9.32916
     51       2.00000          -0.332378           -9.04446
     52       2.00000          -0.319239           -8.68693
     53       2.00000          -0.245455           -6.67917
     54       2.00000          -0.236063           -6.42359
     55       2.00000          -0.227668           -6.19516
     56       2.00000          -0.219245           -5.96597
     57       2.00000          -0.204651           -5.56883
     58       2.00000          -0.197532           -5.37513
     59       0.00000          -0.049406           -1.34442
     60       0.00000          -0.037919           -1.03182
     61       0.00000          -0.034421           -0.93664
     62       0.00000          -0.033594           -0.91414
     63       0.00000          -0.025774           -0.70135
     64       0.00000          -0.010993           -0.29913
     65       0.00000          -0.001517           -0.04128
     66       0.00000           0.005184            0.14106
     67       0.00000           0.007915            0.21538
     68       0.00000           0.015062            0.40986
     69       0.00000           0.026812            0.72960
     70       0.00000           0.034844            0.94816
     71       0.00000           0.036128            0.98310
     72       0.00000           0.041894            1.14000
     73       0.00000           0.044230            1.20355
     74       0.00000           0.052857            1.43830
     75       0.00000           0.057760            1.57174
     76       0.00000           0.060793            1.65427
     77       0.00000           0.065449            1.78095
     78       0.00000           0.070626            1.92182
     79       0.00000           0.080579            2.19267
     80       0.00000           0.083089            2.26098
     81       0.00000           0.087487            2.38066
     82       0.00000           0.098417            2.67807
     83       0.00000           0.100780            2.74237
     84       0.00000           0.101678            2.76680
     85       0.00000           0.106560            2.89964
     86       0.00000           0.112202            3.05319
     87       0.00000           0.125076            3.40350
     88       0.00000           0.129090            3.51272
     89       0.00000           0.135280            3.68116
     90       0.00000           0.140118            3.81280
     91       0.00000           0.143911            3.91602
     92       0.00000           0.151469            4.12169
     93       0.00000           0.156587            4.26095
     94       0.00000           0.164486            4.47589
     95       0.00000           0.166107            4.52000
     96       0.00000           0.167519            4.55842
     97       0.00000           0.175339            4.77121
     98       0.00000           0.176808            4.81119
     99       0.00000           0.185735            5.05412
    100       0.00000           0.190707            5.18939
    101       0.00000           0.193403            5.26277
    102       0.00000           0.201674            5.48784
    103       0.00000           0.202855            5.51997
    104       0.00000           0.204159            5.55544
    105       0.00000           0.210221            5.72042
    106       0.00000           0.213067            5.79785
    107       0.00000           0.215467            5.86315
    108       0.00000           0.221592            6.02984
    109       0.00000           0.225525            6.13686
    110       0.00000           0.229401            6.24232
    111       0.00000           0.235535            6.40924
    112       0.00000           0.243799            6.63412
    113       0.00000           0.247652            6.73895
    114       0.00000           0.249834            6.79832
    115       0.00000           0.259223            7.05382
    116       0.00000           0.262557            7.14453
    117       0.00000           0.267497            7.27898
    118       0.00000           0.269771            7.34083
    119       0.00000           0.274783            7.47722
    120       0.00000           0.278155            7.56899
    121       0.00000           0.286531            7.79691
    122       0.00000           0.289061            7.86575
    123       0.00000           0.292648            7.96335
    124       0.00000           0.300857            8.18675
    125       0.00000           0.309003            8.40839
    126       0.00000           0.320738            8.72773
    127       0.00000           0.331619            9.02381
    128       0.00000           0.332308            9.04257
    129       0.00000           0.342506            9.32007

  Highest occupied state (VBM) at     -5.37512800 eV
  | Occupation number:      2.00000000

  Lowest unoccupied state (CBM) at    -1.34441651 eV
  | Occupation number:      0.00000000

  Overall HOMO-LUMO gap:      4.03071149 eV.

  Total energy components:
  | Sum of eigenvalues            :        -417.10002735 Ha      -11349.86921920 eV
  | XC energy correction          :        -100.76214557 Ha       -2741.87748619 eV
  | XC potential correction       :         129.53967818 Ha        3524.95399085 eV
  | Free-atom electrostatic energy:        -333.57137024 Ha       -9076.93881382 eV
  | Hartree energy correction     :         -20.83136256 Ha        -566.85021637 eV
  | vdW energy correction         :           0.00000000 Ha           0.00000000 eV
  | Entropy correction            :           0.00000000 Ha           0.00000000 eV
  | ---------------------------
  | Total energy                  :        -742.72522755 Ha      -20210.58174473 eV
  | Total energy, T -> 0          :        -742.72522755 Ha      -20210.58174473 eV  <-- do not rely on this value for anything but (periodic) metals
  | Electronic free energy        :        -742.72522755 Ha      -20210.58174473 eV

  Derived energy quantities:
  | Kinetic energy                :         744.08005505 Ha       20247.44847686 eV
  | Electrostatic energy          :       -1386.04313703 Ha      -37716.15273540 eV
  | Energy correction for multipole
  | error in Hartree potential    :          -0.04159761 Ha          -1.13192843 eV
  | Sum of eigenvalues per atom                           :        -354.68341310 eV
  | Total energy (T->0) per atom                          :        -631.58067952 eV  <-- do not rely on this value for anything but (periodic) metals
  | Electronic free energy per atom                       :        -631.58067952 eV

  Self-consistency convergence accuracy:
  | Change of charge density      :  0.9027E+00
  | Change of sum of eigenvalues  :  0.5667E+03 eV
  | Change of total energy        :  0.1561E+02 eV

  End self-consistency iteration #     1       :  max(cpu_time)    wall_clock(cpu1)
  | Time for this iteration                    :        1.468 s           1.464 s
  | Charge density update                      :        0.464 s           0.461 s
[...]
   ----------------------------------------------------------------
   Total forces(  20)            : -0.684279E-03  0.570957E-04  0.420929E-03
  atom #   21
   Hellmann-Feynman              :  0.279802E-01 -0.245445E-01  0.309127E-01
   Ionic forces                  :  0.000000E+00  0.000000E+00  0.000000E+00
   Multipole                     : -0.646371E-02  0.129583E-01  0.157616E-01
   Pulay + GGA                   : -0.216433E-01  0.134320E-01 -0.485901E-01
   Van der Waals                 :  0.213160E-02 -0.167254E-02 -0.897629E-04
   ----------------------------------------------------------------
   Total forces(  21)            :  0.200483E-02  0.173278E-03 -0.200553E-02
  atom #   22
   Hellmann-Feynman              : -0.642714E-01  0.461525E-01 -0.171728E-01
   Ionic forces                  :  0.000000E+00  0.000000E+00  0.000000E+00
   Multipole                     : -0.178155E-02 -0.302728E-01  0.650507E-02
   Pulay + GGA                   :  0.643839E-01 -0.289637E-01  0.121604E-01
   Van der Waals                 :  0.182986E-02  0.126733E-01 -0.230342E-02
   ----------------------------------------------------------------
   Total forces(  22)            :  0.160763E-03 -0.410570E-03 -0.810739E-03
  atom #   23
   Hellmann-Feynman              : -0.852821E+00 -0.188595E+00  0.670145E+00
   Ionic forces                  :  0.000000E+00  0.000000E+00  0.000000E+00
   Multipole                     :  0.271921E+00  0.151013E+00 -0.156669E+00
   Pulay + GGA                   :  0.587407E+00  0.438235E-01 -0.524588E+00
   Van der Waals                 : -0.334731E-02 -0.498421E-02  0.974018E-02
   ----------------------------------------------------------------
   Total forces(  23)            :  0.315945E-02  0.125774E-02 -0.137255E-02
  atom #   24
   Hellmann-Feynman              :  0.767107E-02  0.426504E-01 -0.234890E-01
   Ionic forces                  :  0.000000E+00  0.000000E+00  0.000000E+00
   Multipole                     : -0.253353E-01  0.162771E-01  0.334768E-02
   Pulay + GGA                   :  0.249739E-01 -0.608769E-01  0.160072E-01
   Van der Waals                 : -0.770204E-02  0.196239E-02  0.438100E-02
   ----------------------------------------------------------------
   Total forces(  24)            : -0.392398E-03  0.129929E-04  0.246946E-03
  atom #   25
   Hellmann-Feynman              :  0.496641E-01  0.186148E-01 -0.585941E-02
   Ionic forces                  :  0.000000E+00  0.000000E+00  0.000000E+00
   Multipole                     :  0.594000E-02 -0.100264E-01  0.261196E-01
   Pulay + GGA                   : -0.579763E-01 -0.914314E-02 -0.209925E-01
   Van der Waals                 :  0.235446E-02  0.812570E-03  0.191241E-03
   ----------------------------------------------------------------
   Total forces(  25)            : -0.177688E-04  0.257911E-03 -0.540990E-03
  atom #   26
   Hellmann-Feynman              :  0.497695E-01  0.218145E-01 -0.481568E-01
   Ionic forces                  :  0.000000E+00  0.000000E+00  0.000000E+00
   Multipole                     : -0.204181E-01 -0.300825E-01 -0.620668E-02
   Pulay + GGA                   : -0.257140E-01  0.151392E-01  0.537277E-01
   Van der Waals                 : -0.422299E-02 -0.719198E-02  0.854685E-03
   ----------------------------------------------------------------
   Total forces(  26)            : -0.585596E-03 -0.320870E-03  0.218881E-03
  atom #   27
   Hellmann-Feynman              : -0.139072E+01  0.117203E+00 -0.823534E+00
   Ionic forces                  :  0.000000E+00  0.000000E+00  0.000000E+00
   Multipole                     : -0.124063E+00  0.120543E+00 -0.111756E+00
   Pulay + GGA                   :  0.151497E+01 -0.240228E+00  0.940181E+00
   Van der Waals                 : -0.255946E-02  0.420009E-02 -0.708995E-02
   ----------------------------------------------------------------
   Total forces(  27)            : -0.238112E-02  0.171831E-02 -0.219899E-02
  atom #   28
   Hellmann-Feynman              :  0.136546E+01 -0.830212E+00  0.161242E+01
   Ionic forces                  :  0.000000E+00  0.000000E+00  0.000000E+00
   Multipole                     : -0.847510E-01  0.349823E-01 -0.133229E+00
   Pulay + GGA                   : -0.128058E+01  0.797833E+00 -0.147700E+01
   Van der Waals                 :  0.294597E-03 -0.339863E-02 -0.333579E-02
   ----------------------------------------------------------------
   Total forces(  28)            :  0.421516E-03 -0.795186E-03 -0.114510E-02
  atom #   29
   Hellmann-Feynman              : -0.282541E-01  0.569822E-01  0.201341E-01
   Ionic forces                  :  0.000000E+00  0.000000E+00  0.000000E+00
   Multipole                     :  0.206674E-01 -0.215961E-01  0.286943E-01
   Pulay + GGA                   :  0.989933E-02 -0.427477E-01 -0.527304E-01
   Van der Waals                 : -0.239297E-02  0.575026E-02  0.746947E-02
   ----------------------------------------------------------------
   Total forces(  29)            : -0.802973E-04 -0.161134E-02  0.356753E-02
  atom #   30
   Hellmann-Feynman              : -0.383100E-01  0.396713E-01 -0.177979E-01
   Ionic forces                  :  0.000000E+00  0.000000E+00  0.000000E+00
   Multipole                     :  0.115587E-01  0.123120E-01  0.415400E-01
   Pulay + GGA                   :  0.294488E-01 -0.537071E-01 -0.255864E-01
   Van der Waals                 : -0.282087E-02  0.443260E-02  0.235780E-02
   ----------------------------------------------------------------
   Total forces(  30)            : -0.123362E-03  0.270885E-02  0.513525E-03
  atom #   31
   Hellmann-Feynman              :  0.299810E-02  0.186483E-01 -0.531642E-01
   Ionic forces                  :  0.000000E+00  0.000000E+00  0.000000E+00
   Multipole                     :  0.228000E-01  0.121321E-01 -0.918208E-02
   Pulay + GGA                   : -0.295153E-01 -0.211108E-01  0.592631E-01
   Van der Waals                 :  0.549474E-02 -0.101506E-01  0.255868E-02
   ----------------------------------------------------------------
   Total forces(  31)            :  0.177752E-02 -0.480940E-03 -0.524439E-03
  atom #   32
   Hellmann-Feynman              : -0.323716E-01 -0.105262E-01 -0.453799E-01
   Ionic forces                  :  0.000000E+00  0.000000E+00  0.000000E+00
   Multipole                     : -0.221726E-01 -0.211047E-01  0.113810E-01
   Pulay + GGA                   :  0.480851E-01  0.348130E-01  0.319467E-01
   Van der Waals                 :  0.484981E-02 -0.359984E-02  0.188779E-02
   ----------------------------------------------------------------
   Total forces(  32)            : -0.160926E-02 -0.417760E-03 -0.164378E-03

  Timings for VdW correction (Tkatchenko-Scheffler 2009 or later):
  | CPU time:        0.120 s, Wall clock time:        0.120 s.
  Removing unitary transformations (pure translations, rotations) from forces on atoms.
  Atomic forces before filtering:
  | Net force on center of mass :  -0.370518E-03 -0.266322E-03  0.583475E-03 eV/A
  | Net torque on center of mass:  -0.667078E-04  0.359981E-02  0.443380E-03 eV
  Atomic forces after filtering:
  | Net force on center of mass :   0.139380E-17 -0.113246E-17 -0.130669E-18 eV/A
  | Net torque on center of mass:  -0.590053E-17 -0.548565E-17 -0.368783E-17 eV

  Energy and forces in a compact form:
  | Total energy uncorrected      :         -0.202088843007997E+05 eV
  | Total energy corrected        :         -0.202088843007997E+05 eV  <-- do not rely on this value for anything but (periodic) metals
  | Electronic free energy        :         -0.202088843007997E+05 eV
  Total atomic forces (unitary forces cleaned) [eV/Ang]:
  |   1          0.956315760394812E-03          0.188933150235503E-02         -0.386311427994142E-03
  |   2         -0.204275450476436E-02         -0.979582668248862E-03          0.428470499385540E-02
  |   3          0.448481074556267E-03          0.201542606528985E-03          0.552570808532263E-03
  |   4          0.617126932184255E-05         -0.148912586442180E-03          0.213247772389682E-04
  |   5         -0.935924219562566E-03          0.112998736866071E-02          0.200667679484807E-03
  |   6         -0.123125622631125E-02         -0.105568314845725E-02          0.221853508498601E-03
  |   7          0.183804674478703E-02          0.953919087455546E-03         -0.249645200271141E-03
  |   8         -0.831104746943162E-03          0.127880162561018E-02         -0.347533624540093E-02
  |   9         -0.511481346827530E-03          0.584071504829673E-03          0.129466958538771E-02
  |  10          0.296660878416550E-05          0.254336328627389E-03         -0.112376946694650E-02
  |  11          0.975315107062662E-03         -0.224432195537717E-03          0.948097373959184E-04
  |  12         -0.110802499588062E-02         -0.510781351199165E-03          0.698626508637754E-03
  |  13          0.714746363809680E-03         -0.215867418329748E-02         -0.352563621861593E-03
  |  14         -0.359724651628165E-03          0.106980411553149E-02         -0.620335365154313E-03
  |  15          0.102381742690924E-02          0.632934338457068E-03         -0.281732233889130E-03
  |  16         -0.418250448740906E-03          0.274201586704457E-03         -0.597301561325742E-03
  |  17         -0.166311945654367E-02         -0.157169425926019E-02          0.152498873707575E-02
  |  18         -0.912149160794312E-03         -0.220033299469117E-02          0.131895461258999E-02
  |  19          0.238765717313249E-02         -0.165374534778730E-02          0.894534114888269E-03
  |  20         -0.627940053458225E-03          0.718287527847824E-04          0.387793368224920E-03
  |  21          0.203068878388200E-02          0.183009774905971E-03         -0.203683074591628E-02
  |  22          0.139306070370840E-03         -0.406092132178540E-03         -0.806380848301002E-03
  |  23          0.313114688300826E-02          0.125673097934823E-02         -0.142486796105056E-02
  |  24         -0.426321060165812E-03          0.112205297599857E-04          0.197053201733022E-03
  |  25         -0.316825209199406E-04          0.257392807310820E-03         -0.618625775063630E-03
  |  26         -0.639183535883876E-03         -0.326192920170031E-03          0.165933918886978E-03
  |  27         -0.234988533736080E-02          0.173098103338219E-02         -0.220369021242557E-02
  |  28          0.424913535562853E-03         -0.785687018229889E-03         -0.112989400901022E-02
  |  29         -0.244846129800336E-04         -0.159457047275597E-02          0.356214856316915E-02
  |  30         -0.109047594313445E-03          0.272095978834502E-02          0.538818091823951E-03
  |  31          0.175821213534470E-02         -0.476562118284331E-03         -0.526120639341751E-03
  |  32         -0.161545046384817E-02         -0.408110334057464E-03         -0.126046893470948E-03

  ------------------------------------ 
  Start decomposition of the XC Energy 
  ------------------------------------ 
  Hartree-Fock part   :          0.000000000 Ha              0.000000000 eV
  ------------------------------------ 
  X Energy            :        -96.992352096 Ha          -2639.296186444 eV
  C Energy GGA        :         -3.867854661 Ha           -105.249680380 eV
  Total XC Energy     :       -100.860206757 Ha          -2744.545866824 eV
  LDA X and C from self-consistent density 
  X Energy LDA        :        -88.007150332 Ha          -2394.796406428 eV
  C Energy LDA        :         -7.531799548 Ha           -204.950693479 eV
  ------------------------------------ 
  End decomposition of the XC Energy 
  ------------------------------------ 
   
  ESP charge fitting starts.
  | Calculation :  00000001  of  00000001
  | Full density
  Computing multipole expansion for total density.
  Generating points for esp charges.
  Partitioning the integration grid into batches with parallel hashing+maxmin method.
  | Number of batches:     3847
  | Maximal batch size:     193
  | Minimal batch size:      87
  | Average batch size:     126.416
  | Standard deviation of batch sizes:      17.019

  Integration load balanced across    32 MPI tasks.
  Work distribution over tasks is as follows:
  Initializing partition tables, free-atom densities, potentials, etc. across the integration grid (initialize_grid_storage).
  | Original list of interatomic distances with          32 x         32 entries is created.
  | Net number of integration points:   486323
  | of which are non-zero points    :   486323
  Summing up potential from multipole expanded  density.
  Summing up the Hartree potential.
  Time summed over all CPUs for potential: real work        6.345 s, elapsed        6.724 s
  Fitting esp charges to potential.
  |
  | ESP charges fitted to the electrostatic potential :
  |
  | Atom         1: C, ESP charge:      0.82138640
  |
  | Atom         2: C, ESP charge:     -0.65446699
  |
  | Atom         3: O, ESP charge:      0.53894546
  |
  | Atom         4: H, ESP charge:     -0.23451647
  |
  | Atom         5: H, ESP charge:     -0.20332701
  |
  | Atom         6: H, ESP charge:     -0.24422502
  |
  | Atom         7: N, ESP charge:      0.35905769
  |
  | Atom         8: C, ESP charge:     -0.22949022
  |
  | Atom         9: C, ESP charge:     -0.32878274
  |
  | Atom        10: O, ESP charge:      0.51523833
  |
  | Atom        11: H, ESP charge:     -0.23165907
  |
  | Atom        12: H, ESP charge:     -0.09041390
  |
  | Atom        13: C, ESP charge:      0.54073098
  |
  | Atom        14: H, ESP charge:     -0.14886760
  |
  | Atom        15: H, ESP charge:     -0.13264667
  |
  | Atom        16: H, ESP charge:     -0.17814194
  |
  | Atom        17: N, ESP charge:      0.43984819
  |
  | Atom        18: C, ESP charge:     -0.63903536
  |
  | Atom        19: C, ESP charge:     -0.22973935
  |
  | Atom        20: O, ESP charge:      0.51093486
  |
  | Atom        21: H, ESP charge:     -0.24343542
  |
  | Atom        22: H, ESP charge:     -0.01296826
  |
  | Atom        23: C, ESP charge:      0.84097114
  |
  | Atom        24: H, ESP charge:     -0.20610831
  |
  | Atom        25: H, ESP charge:     -0.21744715
  |
  | Atom        26: H, ESP charge:     -0.23431821
  |
  | Atom        27: N, ESP charge:      0.23077236
  |
  | Atom        28: C, ESP charge:      0.40137405
  |
  | Atom        29: H, ESP charge:     -0.29680640
  |
  | Atom        30: H, ESP charge:     -0.17216838
  |
  | Atom        31: H, ESP charge:     -0.12634835
  |
  | Atom        32: H, ESP charge:     -0.14434664

  RRMS:       0.00406531

  Done.

------------------------------------------------------------------------------
  Final output of selected total energy values:

  The following output summarizes some interesting total energy values
  at the end of a run (AFTER all relaxation, molecular dynamics, etc.).

  | Total energy of the DFT / Hartree-Fock s.c.f. calculation      :         -20208.884300800 eV
  | Final zero-broadening corrected energy (caution - metals only) :         -20208.884300800 eV
  | For reference only, the value of 1 Hartree used in FHI-aims is :             27.211384500 eV

  Before relying on these values, please be sure to understand exactly which
  total energy value is referred to by a given number. Different objects may
  all carry the same name 'total energy'. Definitions:

  Total energy of the DFT / Hartree-Fock s.c.f. calculation:
  | Note that this energy does not include ANY quantities calculated after the
  | s.c.f. cycle, in particular not ANY RPA, MP2, etc. many-body perturbation terms.

  Final zero-broadening corrected energy:
  | For metallic systems only, a broadening of the occupation numbers at the Fermi
  | level can be extrapolated back to zero broadening by an electron-gas inspired
  | formula. For all systems that are not real metals, this value can be
  | meaningless and should be avoided.

------------------------------------------------------------------------------
  Methods described in the following list of references were used in this FHI-aims run.
  If you publish the results, please make sure to cite these reference if they apply.
  FHI-aims is an academic code, and for our developers (often, Ph.D. students
  and postdocs), scientific credit in the community is essential.
  Thank you for helping us!

  For any use of FHI-aims, please cite:

    Volker Blum, Ralf Gehrke, Felix Hanke, Paula Havu, Ville Havu,
    Xinguo Ren, Karsten Reuter, and Matthias Scheffler
    'Ab initio molecular simulations with numeric atom-centered orbitals'
    Computer Physics Communications 180, 2175-2196 (2009)
    http://dx.doi.org/10.1016/j.cpc.2009.06.022


  The scalable eigensolver library ELPA was used in your run.
  ELPA is essential especially for large systems on hundreds or thousands of CPUs.
  For ELPA, please cite:

    Andreas Marek, Volker Blum, Rainer Johanni, Ville Havu, Bruno Lang,
    Thomas Auckenthaler, Alexander Heinecke, Hans-Joachim Bungartz, and Hermann Lederer,
    'The ELPA Library - Scalable Parallel Eigenvalue Solutions
    for Electronic Structure Theory and Computational Science'
    The Journal of Physics: Condensed Matter 26, 213201 (2014).
    http://dx.doi.org/10.1088/0953-8984/26/21/213201


  For ELPA's efficient two-stage tridiagonalization used in your run, please cite:

    T. Auckenthaler, V. Blum, H.-J. Bungartz, T. Huckle, R. Johanni, L. Kraemer,
    B. Lang, H. Lederer, and P. R. Willems,
    'Parallel solution of partial symmetric eigenvalue problems'
    'from  electronic structure calculations'
    Parallel Computing 37, 783-794 (2011).
    http://dx.doi.org/10.1016/j.parco.2011.05.002


  For the real-space grid partitioning and parallelization used in this calculation, please cite:

    Ville Havu, Volker Blum, Paula Havu, and Matthias Scheffler,
    'Efficient O(N) integration for all-electron electronic structure calculation'
    'using numerically tabulated basis functions'
    Journal of Computational Physics 228, 8367-8379 (2009).
    http://dx.doi.org/10.1016/j.jcp.2009.08.008

  Of course, there are many other important community references, e.g., those cited in the
  above references. Our list is limited to references that describe implementations in the
  FHI-aims code. The reason is purely practical (length of this list) - please credit others as well.

------------------------------------------------------------
          Leaving FHI-aims.
          Date     :  20170309, Time     :  162139.905

          Computational steps:
          | Number of self-consistency cycles          :           14

          Detailed time accounting                     :  max(cpu_time)    wall_clock(cpu1)
          | Total time                                 :       29.470 s          29.658 s
          | Preparation time                           :        0.240 s           0.241 s
          | Grid partitioning                          :        0.312 s           0.310 s
          | Preloading free-atom quantities on grid    :        0.028 s           0.028 s
          | Free-atom superposition energy             :        0.044 s           0.040 s
          | Total time for integrations                :       10.205 s          10.183 s
          | Total time for solution of K.-S. equations :        0.528 s           0.498 s
          | Total time for density & force components  :        9.445 s           9.422 s
          | Total time for mixing                      :        0.124 s           0.104 s
          | Total time for Hartree multipole update    :        0.072 s           0.061 s
          | Total time for Hartree multipole sum       :        6.464 s           6.449 s
          | Total time for total energy evaluation     :        0.024 s           0.025 s
          | Total time for vdW correction              :        0.120 s           0.120 s

          Have a nice day.
------------------------------------------------------------
