  MPI-parallelism will be employed.
------------------------------------------------------------
          Invoking FHI-aims ...
          Version 150427
          Git rev.: 9dd23e0 BL: Update Version stamp
          Compiled on 2015/11/03 at 22:05:20 on host eos03.

          When using FHI-aims, please cite the following reference:

          Volker Blum, Ralf Gehrke, Felix Hanke, Paula Havu,
          Ville Havu, Xinguo Ren, Karsten Reuter, and Matthias Scheffler,
          'Ab Initio Molecular Simulations with Numeric Atom-Centered Orbitals: FHI-aims',
          Computer Physics Communications 180, 2175-2196 (2009)

          For any questions about FHI-aims, please visit the aimsclub website
          with its forums and wiki. Contributions to both the forums and the
          wiki are warmly encouraged - they are for you, and everyone is welcome there.

------------------------------------------------------------

  Date     :  20170309, Time     :  184225.731
  Time zero on CPU 1             :   0.388023000000000E+00  s.
  Internal wall clock time zero  :           258316945.731  s.

  Using       32 parallel tasks.
  Task        0 on host eos026 reporting.
  Task        1 on host eos026 reporting.
  Task        2 on host eos026 reporting.
  Task        3 on host eos026 reporting.
  Task        4 on host eos026 reporting.
  Task        5 on host eos026 reporting.
  Task        6 on host eos026 reporting.
  Task        7 on host eos026 reporting.
  Task        8 on host eos026 reporting.
  Task        9 on host eos026 reporting.
  Task       10 on host eos026 reporting.
  Task       11 on host eos026 reporting.
  Task       12 on host eos026 reporting.
  Task       13 on host eos026 reporting.
  Task       14 on host eos026 reporting.
  Task       15 on host eos026 reporting.
  Task       16 on host eos026 reporting.
  Task       17 on host eos026 reporting.
  Task       18 on host eos026 reporting.
  Task       19 on host eos026 reporting.
  Task       20 on host eos026 reporting.
  Task       21 on host eos026 reporting.
  Task       22 on host eos026 reporting.
  Task       23 on host eos026 reporting.
  Task       24 on host eos026 reporting.
  Task       25 on host eos026 reporting.
  Task       26 on host eos026 reporting.
  Task       27 on host eos026 reporting.
  Task       28 on host eos026 reporting.
  Task       29 on host eos026 reporting.
  Task       30 on host eos026 reporting.
  Task       31 on host eos026 reporting.

  Performing system and environment tests:
  | Environment variable OMP_NUM_THREADS correctly set to 1.
  | Stacksize not measured: no C compiler
  | Checking for scalapack...
  | Testing pdtran()...
  | All pdtran() tests passed.

  Obtaining array dimensions for all initial allocations:
  
  -----------------------------------------------------------------------
  Parsing control.in (first pass over file, find array dimensions only).
  The contents of control.in will be repeated verbatim below
  unless switched off by setting 'verbatim_writeout .false.' .
  in the first line of control.in .
  -----------------------------------------------------------------------
  
  #########################################################################################
  #
  # Input for System
  #
  #########################################################################################
  #
  #
  #  Physical model
  #
    xc                 pbe
    vdw_correction_hirshfeld
    spin               none
    charge             0.
  #
  #  SCF convergence
  #
    occupation_type    gaussian 0.05
    mixer              pulay
      n_max_pulay        10
      charge_mix_param   0.5
    sc_accuracy_rho    1E-4
    sc_accuracy_eev    1E-2
    sc_accuracy_etot   1E-5
    sc_accuracy_forces 1E-4
    sc_iter_limit      1000
  #
  #  ESP charge
  #
    output esp
    esp equal_grid_n 80 80 80
  #
  #
  ################################################################################
  #
  #  FHI-aims code project
  # Volker Blum, Fritz Haber Institute Berlin, 2009
  #
  #  Suggested "tight" defaults for H atom (to be pasted into control.in file)
  #
  ################################################################################
    species        H
  #     global species definitions
      nucleus             1
      mass                1.00794
  #
      l_hartree           6
  #
      cut_pot             4.0  2.0  1.0
      basis_dep_cutoff    1e-4
  #
      radial_base         24 7.0
      radial_multiplier   2
      angular_grids       specified
        division   0.1930   50
        division   0.3175  110
        division   0.4293  194
        division   0.5066  302
        division   0.5626  434
  #      division   0.5922  590
  #      division   0.6227  974
  #      division   0.6868 1202
  #      outer_grid  770
        outer_grid  434
  ################################################################################
  #
  #  Definition of "minimal" basis
  #
  ################################################################################
  #     valence basis states
      valence      1  s   1.
  #     ion occupancy
      ion_occ      1  s   0.5
  ################################################################################
  #
  #  Suggested additional basis functions. For production calculations,
  #  uncomment them one after another (the most important basis functions are
  #  listed first).
  #
  #  Basis constructed for dimers: 0.5 A, 0.7 A, 1.0 A, 1.5 A, 2.5 A
  #
  ################################################################################
  #  "First tier" - improvements: -1014.90 meV to -62.69 meV
       hydro 2 s 2.1
       hydro 2 p 3.5
  #  "Second tier" - improvements: -12.89 meV to -1.83 meV
       hydro 1 s 0.85
       hydro 2 p 3.7
       hydro 2 s 1.2
       hydro 3 d 7
  #  "Third tier" - improvements: -0.25 meV to -0.12 meV
  #     hydro 4 f 11.2
  #     hydro 3 p 4.8
  #     hydro 4 d 9
  #     hydro 3 s 3.2
  ################################################################################
  #
  # For methods that use the localized form of the "resolution of identity" for
  # the two-electron Coulomb operator (RI_method LVL), particularly Hartree-Fock and
  # hybrid density functional calculations, the highest accuracy can be obtained by
  # uncommenting the line beginning with "for_aux"  below, thus adding an extra g radial
  # function to the construction of the product basis set for the expansion.
  # See Ref. New J. Phys. 17, 093020 (2015) for more information, particularly Figs. 1 and 6.
  #
  ################################################################################
  #
  # for_aux hydro 5 g 6.0
  ################################################################################
  #
  #  FHI-aims code project
  # Volker Blum, Fritz Haber Institute Berlin, 2009
  #
  #  Suggested "tight" defaults for C atom (to be pasted into control.in file)
  #
  ################################################################################
    species        C
  #     global species definitions
      nucleus             6
      mass                12.0107
  #
      l_hartree           6
  #
      cut_pot             4.0  2.0  1.0
      basis_dep_cutoff    1e-4
  #
      radial_base         34 7.0
      radial_multiplier   2
      angular_grids specified
        division   0.2187   50
        division   0.4416  110
        division   0.6335  194
        division   0.7727  302
        division   0.8772  434
  #      division   0.9334  590
  #      division   0.9924  770
  #      division   1.0230  974
  #      division   1.5020 1202
  #     outer_grid  974
        outer_grid  434
  ################################################################################
  #
  #  Definition of "minimal" basis
  #
  ################################################################################
  #     valence basis states
      valence      2  s   2.
      valence      2  p   2.
  #     ion occupancy
      ion_occ      2  s   1.
      ion_occ      2  p   1.
  ################################################################################
  #
  #  Suggested additional basis functions. For production calculations,
  #  uncomment them one after another (the most important basis functions are
  #  listed first).
  #
  #  Constructed for dimers: 1.0 A, 1.25 A, 1.5 A, 2.0 A, 3.0 A
  #
  ################################################################################
  #  "First tier" - improvements: -1214.57 meV to -155.61 meV
       hydro 2 p 1.7
       hydro 3 d 6
       hydro 2 s 4.9
  #  "Second tier" - improvements: -67.75 meV to -5.23 meV
       hydro 4 f 9.8
       hydro 3 p 5.2
       hydro 3 s 4.3
       hydro 5 g 14.4
       hydro 3 d 6.2
  #  "Third tier" - improvements: -2.43 meV to -0.60 meV
  #     hydro 2 p 5.6
  #     hydro 2 s 1.4
  #     hydro 3 d 4.9
  #     hydro 4 f 11.2
  #  "Fourth tier" - improvements: -0.39 meV to -0.18 meV
  #     hydro 2 p 2.1
  #     hydro 5 g 16.4
  #     hydro 4 d 13.2
  #     hydro 3 s 13.6
  #     hydro 4 f 17.6
  #  Further basis functions - improvements: -0.08 meV and below
  #     hydro 3 s 2
  #     hydro 3 p 6
  #     hydro 4 d 20
  ################################################################################
  #
  # For methods that use the localized form of the "resolution of identity" for
  # the two-electron Coulomb operator (RI_method LVL), particularly Hartree-Fock and
  # hybrid density functional calculations, the highest accuracy can be obtained by
  # uncommenting the line beginning with "for_aux"  below, thus adding an extra g radial
  # function to the construction of the product basis set for the expansion.
  # See Ref. New J. Phys. 17, 093020 (2015) for more information, particularly Figs. 1 and 6.
  #
  ################################################################################
  #
  # for_aux hydro 5 g 6.0
  ################################################################################
  #
  #  FHI-aims code project
  # Volker Blum, Fritz Haber Institute Berlin, 2009
  #
  #  Suggested "tight" defaults for N atom (to be pasted into control.in file)
  #
  ################################################################################
    species        N
  #     global species definitions
      nucleus             7
      mass                14.0067
  #
      l_hartree           6
  #
      cut_pot             4.0  2.0  1.0
      basis_dep_cutoff    1e-4
  #
      radial_base         35 7.0
      radial_multiplier   2
      angular_grids       specified
        division   0.1841   50
        division   0.3514  110
        division   0.5126  194
        division   0.6292  302
        division   0.6939  434
  #      division   0.7396  590
  #      division   0.7632  770
  #      division   0.8122  974
  #      division   1.1604 1202
  #      outer_grid  974
        outer_grid  434
  ################################################################################
  #
  #  Definition of "minimal" basis
  #
  ################################################################################
  #     valence basis states
      valence      2  s   2.
      valence      2  p   3.
  #     ion occupancy
      ion_occ      2  s   1.
      ion_occ      2  p   2.
  ################################################################################
  #
  #  Suggested additional basis functions. For production calculations,
  #  uncomment them one after another (the most important basis functions are
  #  listed first).
  #
  #  Constructed for dimers: 1.0 A, 1.1 A, 1.5 A, 2.0 A, 3.0 A
  #
  ################################################################################
  #  "First tier" - improvements: -1193.42 meV to -220.60 meV
       hydro 2 p 1.8
       hydro 3 d 6.8
       hydro 3 s 5.8
  #  "Second tier" - improvements: -80.21 meV to -6.86 meV
       hydro 4 f 10.8
       hydro 3 p 5.8
       hydro 1 s 0.8
       hydro 5 g 16
       hydro 3 d 4.9
  #  "Third tier" - improvements: -4.29 meV to -0.53 meV
  #     hydro 3 s 16
  #     ionic 2 p auto
  #     hydro 3 d 6.6
  #     hydro 4 f 11.6
  #  "Fourth tier" - improvements: -0.75 meV to -0.25 meV
  #     hydro 2 p 4.5
  #     hydro 2 s 2.4
  #     hydro 5 g 14.4
  #     hydro 4 d 14.4
  #     hydro 4 f 16.8
  # Further basis functions - -0.21 meV and below
  #     hydro 3 p 14.8
  #     hydro 3 s 4.4
  #     hydro 3 d 19.6
  #     hydro 5 g 12.8
  ################################################################################
  #
  # For methods that use the localized form of the "resolution of identity" for
  # the two-electron Coulomb operator (RI_method LVL), particularly Hartree-Fock and
  # hybrid density functional calculations, the highest accuracy can be obtained by
  # uncommenting the line beginning with "for_aux"  below, thus adding an extra g radial
  # function to the construction of the product basis set for the expansion.
  # See Ref. New J. Phys. 17, 093020 (2015) for more information, particularly Figs. 1 and 6.
  #
  ################################################################################
  #
  # for_aux hydro 5 g 6.0
  ################################################################################
  #
  #  FHI-aims code project
  # Volker Blum, Fritz Haber Institute Berlin, 2009
  #
  #  Suggested "tight" defaults for O atom (to be pasted into control.in file)
  #
  ################################################################################
    species        O
  #     global species definitions
      nucleus             8
      mass                15.9994
  #
      l_hartree           6
  #
      cut_pot             4.0  2.0  1.0
      basis_dep_cutoff    1e-4
  #
      radial_base         36 7.0
      radial_multiplier   2
       angular_grids specified
        division   0.1817   50
        division   0.3417  110
        division   0.4949  194
        division   0.6251  302
        division   0.8014  434
  #      division   0.8507  590
  #      division   0.8762  770
  #      division   0.9023  974
  #      division   1.2339 1202
  #      outer_grid 974
        outer_grid  434
  ################################################################################
  #
  #  Definition of "minimal" basis
  #
  ################################################################################
  #     valence basis states
      valence      2  s   2.
      valence      2  p   4.
  #     ion occupancy
      ion_occ      2  s   1.
      ion_occ      2  p   3.
  ################################################################################
  #
  #  Suggested additional basis functions. For production calculations,
  #  uncomment them one after another (the most important basis functions are
  #  listed first).
  #
  #  Constructed for dimers: 1.0 A, 1.208 A, 1.5 A, 2.0 A, 3.0 A
  #
  ################################################################################
  #  "First tier" - improvements: -699.05 meV to -159.38 meV
       hydro 2 p 1.8
       hydro 3 d 7.6
       hydro 3 s 6.4
  #  "Second tier" - improvements: -49.91 meV to -5.39 meV
       hydro 4 f 11.6
       hydro 3 p 6.2
       hydro 3 d 5.6
       hydro 5 g 17.6
       hydro 1 s 0.75
  #  "Third tier" - improvements: -2.83 meV to -0.50 meV
  #     ionic 2 p auto
  #     hydro 4 f 10.8
  #     hydro 4 d 4.7
  #     hydro 2 s 6.8
  #  "Fourth tier" - improvements: -0.40 meV to -0.12 meV
  #     hydro 3 p 5
  #     hydro 3 s 3.3
  #     hydro 5 g 15.6
  #     hydro 4 f 17.6
  #     hydro 4 d 14
  # Further basis functions - -0.08 meV and below
  #     hydro 3 s 2.1
  #     hydro 4 d 11.6
  #     hydro 3 p 16
  #     hydro 2 s 17.2
  ################################################################################
  #
  # For methods that use the localized form of the "resolution of identity" for
  # the two-electron Coulomb operator (RI_method LVL), particularly Hartree-Fock and
  # hybrid density functional calculations, the highest accuracy can be obtained by
  # uncommenting the line beginning with "for_aux"  below, thus adding an extra g radial
  # function to the construction of the product basis set for the expansion.
  # See Ref. New J. Phys. 17, 093020 (2015) for more information, particularly Figs. 1 and 6.
  #
  ################################################################################
  #
  # for_aux hydro 5 g 6.0
  
  -----------------------------------------------------------------------
  Completed first pass over input file control.in .
  -----------------------------------------------------------------------
  
  
  -----------------------------------------------------------------------
  Parsing geometry.in (first pass over file, find array dimensions only).
  The contents of geometry.in will be repeated verbatim below
  unless switched off by setting 'verbatim_writeout .false.' .
  in the first line of geometry.in .
  -----------------------------------------------------------------------
  
  #
  # This is the geometry file that corresponds to the current relaxation step.
  # If you do not want this file to be written, set the "write_restart_geometry" flag to .false.
  #
  atom      -0.54834665      0.19582786     -0.01309328 C
  atom      -0.35099350     -0.17397637      1.44893835 C
  atom       0.72202939     -0.57534013      1.87869810 O
  atom      -0.21927505      1.23519149     -0.15376181 H
  atom      -1.58930537      0.11228064     -0.35226378 H
  atom       0.08864625     -0.44664717     -0.62906607 H
  atom      -1.48843849     -0.02721410      2.21914700 N
  atom      -1.54008253     -0.01246333      3.67388821 C
  atom      -1.04445877      1.35131146      4.22100716 C
  atom      -0.31774785      2.09511730      3.57463787 O
  atom      -2.26423906      0.43513897      1.75932407 H
  atom      -2.60656042     -0.11422313      3.92964192 H
  atom      -0.78316899     -1.18244286      4.32596081 C
  atom      -0.99863693     -1.22774799      5.40114393 H
  atom       0.29485849     -1.08233968      4.17710229 H
  atom      -1.10671991     -2.12705240      3.87215890 H
  atom      -1.45490825      1.69458441      5.49159111 N
  atom      -2.49786636      1.09657838      6.31595308 C
  atom      -3.94682248      1.41801830      5.87088367 C
  atom      -4.88834973      0.78904023      6.34715106 O
  atom      -1.02850496      2.55547033      5.82794412 H
  atom      -2.42735014      0.00112456      6.26754334 H
  atom      -2.31012154      1.51891626      7.77573148 C
  atom      -3.11018802      1.09163145      8.38951485 H
  atom      -2.35098091      2.61374623      7.87489099 H
  atom      -1.34235698      1.16841338      8.15585682 H
  atom      -4.07758348      2.42063230      4.95978067 N
  atom      -5.36592822      2.86878944      4.46774469 C
  atom      -3.22988725      2.86751518      4.62761180 H
  atom      -5.42928518      2.77217754      3.37498998 H
  atom      -5.55412972      3.91656303      4.74087708 H
  atom      -6.13405940      2.23789540      4.92813662 H
  
  -----------------------------------------------------------------------
  Completed first pass over input file geometry.in .
  -----------------------------------------------------------------------
  

  Basic array size parameters:
  | Number of species                 :        4
  | Number of atoms                   :       32
  | Max. basis fn. angular momentum   :        4
  | Max. atomic/ionic basis occupied n:        2
  | Max. number of basis fn. types    :        2
  | Max. radial fns per species/type  :        8
  | Max. logarithmic grid size        :     1301
  | Max. radial integration grid size :       73
  | Max. angular integration grid size:      434
  | Max. angular grid division number :        8
  | Radial grid for Hartree potential :     1301
  | Number of spin channels           :        1

------------------------------------------------------------
          Reading file control.in.
------------------------------------------------------------
  XC: Using PBE gradient-corrected functionals.
  Spin treatment: No spin polarisation.
  Charge =   0.000000E+00: Neutral system requested explicitly.
  Occupation type: Gaussian broadening, width =   0.500000E-01 eV.
  Using pulay charge density mixing.
  Pulay mixing - number of memorized iterations:   10
  Charge density mixing - mixing parameter:     0.5000
  Convergence accuracy of self-consistent charge density:  0.1000E-03
  Convergence accuracy of sum of eigenvalues:  0.1000E-01
  Convergence accuracy of total energy:  0.1000E-04
  Convergence accuracy of forces:  0.1000E-03
  Maximum number of s.-c. iterations  :  1000
  Fitting ESP-charges to Potential. 
  | Esp charge output options: 
  | ESP Grid method: 3, cubic grid
  | Number of points in x, ,y, z:  0080 0080 0080
  |
 
  Reading configuration options for species H                   .
  | Found nuclear charge :   1.0000
  | Found atomic mass :    1.00794000000000      amu
  | Found l_max for Hartree potential  :   6
  | Found cutoff potl. onset [A], width [A], scale factor :    4.00000    2.00000    1.00000
  | Threshold for basis-dependent cutoff potential is   0.100000E-03
  | Found data for basic radial integration grid :    24 points, outermost radius =    7.000 A
  | Found multiplier for basic radial grid :   2
  | Found angular grid specification: user-specified.
  | Specified grid contains     6 separate shells.
  | Check grid settings after all constraints further below.
  | Found free-atom valence shell :  1 s   1.000
  | No ionic wave fns used. Skipping ion_occ.
  | Found hydrogenic basis function :  2 s   2.100
  | Found hydrogenic basis function :  2 p   3.500
  | Found hydrogenic basis function :  1 s   0.850
  | Found hydrogenic basis function :  2 p   3.700
  | Found hydrogenic basis function :  2 s   1.200
  | Found hydrogenic basis function :  3 d   7.000
  Species H                   : Missing cutoff potential type.
  Defaulting to exp(1/x)/(1-x)^2 type cutoff potential.
  Species H : No 'logarithmic' tag. Using default grid for free atom:
  | Default logarithmic grid data [bohr] : 0.1000E-03 0.1000E+03 0.1012E+01
  Species H : On-site basis accuracy parameter (for Gram-Schmidt orthonormalisation) not specified.
  Using default value basis_acc =  0.1000000E-03.
  Species H                   : Using default innermost maximum threshold i_radial=  2 for radial functions.
  Species H                   : Default cutoff onset for free atom density etc. : 0.40000000E+01 AA.
  Species H                   : Basic radial grid will be enhanced according to radial_multiplier =   2, to contain    49 grid points.
 
  Reading configuration options for species C                   .
  | Found nuclear charge :   6.0000
  | Found atomic mass :    12.0107000000000      amu
  | Found l_max for Hartree potential  :   6
  | Found cutoff potl. onset [A], width [A], scale factor :    4.00000    2.00000    1.00000
  | Threshold for basis-dependent cutoff potential is   0.100000E-03
  | Found data for basic radial integration grid :    34 points, outermost radius =    7.000 A
  | Found multiplier for basic radial grid :   2
  | Found angular grid specification: user-specified.
  | Specified grid contains     6 separate shells.
  | Check grid settings after all constraints further below.
  | Found free-atom valence shell :  2 s   2.000
  | Found free-atom valence shell :  2 p   2.000
  | No ionic wave fns used. Skipping ion_occ.
  | No ionic wave fns used. Skipping ion_occ.
  | Found hydrogenic basis function :  2 p   1.700
  | Found hydrogenic basis function :  3 d   6.000
  | Found hydrogenic basis function :  2 s   4.900
  | Found hydrogenic basis function :  4 f   9.800
  | Found hydrogenic basis function :  3 p   5.200
  | Found hydrogenic basis function :  3 s   4.300
  | Found hydrogenic basis function :  5 g  14.400
  | Found hydrogenic basis function :  3 d   6.200
  Species C                   : Missing cutoff potential type.
  Defaulting to exp(1/x)/(1-x)^2 type cutoff potential.
  Species C : No 'logarithmic' tag. Using default grid for free atom:
  | Default logarithmic grid data [bohr] : 0.1000E-03 0.1000E+03 0.1012E+01
  Species C : On-site basis accuracy parameter (for Gram-Schmidt orthonormalisation) not specified.
  Using default value basis_acc =  0.1000000E-03.
  Species C                   : Using default innermost maximum threshold i_radial=  2 for radial functions.
  Species C                   : Default cutoff onset for free atom density etc. : 0.40000000E+01 AA.
  Species C                   : Basic radial grid will be enhanced according to radial_multiplier =   2, to contain    69 grid points.
 
  Reading configuration options for species N                   .
  | Found nuclear charge :   7.0000
  | Found atomic mass :    14.0067000000000      amu
  | Found l_max for Hartree potential  :   6
  | Found cutoff potl. onset [A], width [A], scale factor :    4.00000    2.00000    1.00000
  | Threshold for basis-dependent cutoff potential is   0.100000E-03
  | Found data for basic radial integration grid :    35 points, outermost radius =    7.000 A
  | Found multiplier for basic radial grid :   2
  | Found angular grid specification: user-specified.
  | Specified grid contains     6 separate shells.
  | Check grid settings after all constraints further below.
  | Found free-atom valence shell :  2 s   2.000
  | Found free-atom valence shell :  2 p   3.000
  | No ionic wave fns used. Skipping ion_occ.
  | No ionic wave fns used. Skipping ion_occ.
  | Found hydrogenic basis function :  2 p   1.800
  | Found hydrogenic basis function :  3 d   6.800
  | Found hydrogenic basis function :  3 s   5.800
  | Found hydrogenic basis function :  4 f  10.800
  | Found hydrogenic basis function :  3 p   5.800
  | Found hydrogenic basis function :  1 s   0.800
  | Found hydrogenic basis function :  5 g  16.000
  | Found hydrogenic basis function :  3 d   4.900
  Species N                   : Missing cutoff potential type.
  Defaulting to exp(1/x)/(1-x)^2 type cutoff potential.
  Species N : No 'logarithmic' tag. Using default grid for free atom:
  | Default logarithmic grid data [bohr] : 0.1000E-03 0.1000E+03 0.1012E+01
  Species N : On-site basis accuracy parameter (for Gram-Schmidt orthonormalisation) not specified.
  Using default value basis_acc =  0.1000000E-03.
  Species N                   : Using default innermost maximum threshold i_radial=  2 for radial functions.
  Species N                   : Default cutoff onset for free atom density etc. : 0.40000000E+01 AA.
  Species N                   : Basic radial grid will be enhanced according to radial_multiplier =   2, to contain    71 grid points.
 
  Reading configuration options for species O                   .
  | Found nuclear charge :   8.0000
  | Found atomic mass :    15.9994000000000      amu
  | Found l_max for Hartree potential  :   6
  | Found cutoff potl. onset [A], width [A], scale factor :    4.00000    2.00000    1.00000
  | Threshold for basis-dependent cutoff potential is   0.100000E-03
  | Found data for basic radial integration grid :    36 points, outermost radius =    7.000 A
  | Found multiplier for basic radial grid :   2
  | Found angular grid specification: user-specified.
  | Specified grid contains     6 separate shells.
  | Check grid settings after all constraints further below.
  | Found free-atom valence shell :  2 s   2.000
  | Found free-atom valence shell :  2 p   4.000
  | No ionic wave fns used. Skipping ion_occ.
  | No ionic wave fns used. Skipping ion_occ.
  | Found hydrogenic basis function :  2 p   1.800
  | Found hydrogenic basis function :  3 d   7.600
  | Found hydrogenic basis function :  3 s   6.400
  | Found hydrogenic basis function :  4 f  11.600
  | Found hydrogenic basis function :  3 p   6.200
  | Found hydrogenic basis function :  3 d   5.600
  | Found hydrogenic basis function :  5 g  17.600
  | Found hydrogenic basis function :  1 s   0.750
  Species O                   : Missing cutoff potential type.
  Defaulting to exp(1/x)/(1-x)^2 type cutoff potential.
  Species O : No 'logarithmic' tag. Using default grid for free atom:
  | Default logarithmic grid data [bohr] : 0.1000E-03 0.1000E+03 0.1012E+01
  Species O : On-site basis accuracy parameter (for Gram-Schmidt orthonormalisation) not specified.
  Using default value basis_acc =  0.1000000E-03.
  Species O                   : Using default innermost maximum threshold i_radial=  2 for radial functions.
  Species O                   : Default cutoff onset for free atom density etc. : 0.40000000E+01 AA.
  Species O                   : Basic radial grid will be enhanced according to radial_multiplier =   2, to contain    73 grid points.
 
  Finished reading input file 'control.in'. Consistency checks are next.
 
  Target number of points in a grid batch is not set. Defaulting to  100
  Method for grid partitioning is not set. Defaulting to parallel hash+maxmin partitioning.
  Batch size limit is not set. Defaulting to    200
  By default, will store active basis functions for each batch.
  If in need of memory, prune_basis_once .false. can be used to disable this option.
  communication_type for Hartree potential was not specified.
  Defaulting to calc_hartree .
  Pulay mixer: Number of initial linear mixing iterations not set.
  Defaulting to    0 iterations.
  Work space size for distributed Hartree potential not set.
  Defaulting to   0.200000E+03 MB.
  Algorithm-dependent basis array size parameters:
  | n_max_pulay                         :       10
  Geometry relaxation not requested: no relaxation will be performed.
  Handling of forces: Unphysical translation and rotation will be removed from forces.
  No accuracy limit for integral partition fn. given. Defaulting to  0.1000E-14.
  No threshold value for u(r) in integrations given. Defaulting to  0.1000E-05.
  No accuracy for occupation numbers given. Defaulting to  0.1000E-07.
  No threshold value for occupation numbers given. Defaulting to  0.0000E+00.
  No accuracy for fermi level given. Defaulting to  0.1000E-19.
  Maximum # of iterations to find E_F not set. Defaulting to  200.
  Preferred method for the eigenvalue solver ('KS_method') not specified in 'control.in'.
  Calling blacs routine to test compilation state
  Since scalapack support is enabled, defaulting to 'elpa'.
  Preferred method for the MBD eigenvalue solver ('mbd_eigensolver') not specified in 'control.in'.
  Calling blacs routine to test compilation state
  Since scalapack support is enabled, defaulting to 'scaLAPACK'.
  Will not use alltoall communication since running on < 1024 CPUs.
  Threshold for basis singularities not set.
  Default threshold for basis singularities:  0.1000E-04
  partition_type (choice of integration weights) for integrals was not specified.
  | Using a version of the partition function of Stratmann and coworkers ('stratmann_smoother').
  | At each grid point, the set of atoms used to build the partition table is smoothly restricted to
  | only those atoms whose free-atom density would be non-zero at that grid point.
  Partitioning for Hartree potential was not defined. Using partition_type for integrals.
  | Adjusted default value of keyword multip_moments_threshold to:       0.10000000E-11
  | This value may affect high angular momentum components of the Hartree potential in periodic systems.
  No q(lm)/r^(l+1) cutoff set for long-range Hartree potential.
  | Using default value of  0.100000E-09 .
  | Verify using the multipole_threshold keyword.
  Defaulting to new monopole extrapolation.
  Density update method: automatic selection selected.
------------------------------------------------------------


------------------------------------------------------------
          Reading geometry description geometry.in.
------------------------------------------------------------
 * Warning! You did not set the 'relativistic' flag in input file 'control.in'.
 * Since you are not attempting to treat any elements beyond Ca(Z=20), FHI-aims
 * will default to 'relativistic none'.
 * You must ensure that this is really what you want!!
 * For example, DO NOT compute total-energy differences between results from
 * different settings of the 'relativistic' flag.
  Input structure read successfully.
  The structure contains       32 atoms,  and a total of        116.000 electrons.

  Input geometry:
  | No unit cell requested.
  | Atomic structure:
  |       Atom                x [A]            y [A]            z [A]
  |    1: Species C             -0.548347         0.195828        -0.013093
  |    2: Species C             -0.350994        -0.173976         1.448938
  |    3: Species O              0.722029        -0.575340         1.878698
  |    4: Species H             -0.219275         1.235191        -0.153762
  |    5: Species H             -1.589305         0.112281        -0.352264
  |    6: Species H              0.088646        -0.446647        -0.629066
  |    7: Species N             -1.488438        -0.027214         2.219147
  |    8: Species C             -1.540083        -0.012463         3.673888
  |    9: Species C             -1.044459         1.351311         4.221007
  |   10: Species O             -0.317748         2.095117         3.574638
  |   11: Species H             -2.264239         0.435139         1.759324
  |   12: Species H             -2.606560        -0.114223         3.929642
  |   13: Species C             -0.783169        -1.182443         4.325961
  |   14: Species H             -0.998637        -1.227748         5.401144
  |   15: Species H              0.294858        -1.082340         4.177102
  |   16: Species H             -1.106720        -2.127052         3.872159
  |   17: Species N             -1.454908         1.694584         5.491591
  |   18: Species C             -2.497866         1.096578         6.315953
  |   19: Species C             -3.946822         1.418018         5.870884
  |   20: Species O             -4.888350         0.789040         6.347151
  |   21: Species H             -1.028505         2.555470         5.827944
  |   22: Species H             -2.427350         0.001125         6.267543
  |   23: Species C             -2.310122         1.518916         7.775731
  |   24: Species H             -3.110188         1.091631         8.389515
  |   25: Species H             -2.350981         2.613746         7.874891
  |   26: Species H             -1.342357         1.168413         8.155857
  |   27: Species N             -4.077583         2.420632         4.959781
  |   28: Species C             -5.365928         2.868789         4.467745
  |   29: Species H             -3.229887         2.867515         4.627612
  |   30: Species H             -5.429285         2.772178         3.374990
  |   31: Species H             -5.554130         3.916563         4.740877
  |   32: Species H             -6.134059         2.237895         4.928137
  |

  | The smallest distance between any two atoms is         1.01344660 AA.
  |
  | The first atom of this pair is atom number                      7 .
  | The second atom of this pair is atom number                    11 .

  Number of empty states per atom not set in control.in - providing a guess from actual geometry.
  | Total number of empty states used during s.c.f. cycle:       71
  If you use a very high smearing, use empty_states (per atom!) in control.in to increase this value.

  Structure-dependent array size parameters: 
  | Maximum number of distinct radial functions  :       40
  | Maximum number of basis functions            :      840
  | Number of Kohn-Sham states (occupied + empty):      129
------------------------------------------------------------

------------------------------------------------------------
          Preparing all fixed parts of the calculation.
------------------------------------------------------------
  Determining machine precision:
    2.225073858507201E-308
  Setting up grids for atomic and cluster calculations.

  Creating wave function, potential, and density for free atoms.

  Species: H

  List of occupied orbitals and eigenvalues:
    n    l              occ      energy [Ha]    energy [eV]
    1    0           1.0000        -0.238382        -6.4867


  Species: C

  List of occupied orbitals and eigenvalues:
    n    l              occ      energy [Ha]    energy [eV]
    1    0           2.0000       -10.041232      -273.2358
    2    0           2.0000        -0.504327       -13.7234
    2    1           2.0000        -0.193750        -5.2722


  Species: N

  List of occupied orbitals and eigenvalues:
    n    l              occ      energy [Ha]    energy [eV]
    1    0           2.0000       -14.129007      -384.4699
    2    0           2.0000        -0.681802       -18.5528
    2    1           3.0000        -0.260543        -7.0897


  Species: O

  List of occupied orbitals and eigenvalues:
    n    l              occ      energy [Ha]    energy [eV]
    1    0           2.0000       -18.898576      -514.2564
    2    0           2.0000        -0.878795       -23.9132
    2    1           4.0000        -0.332075        -9.0362

  Creating fixed part of basis set: Ionic, confined, hydrogenic.
 
  H                    hydrogenic:
 
  List of hydrogenic basis orbitals: 
    n    l      effective z      eigenvalue [eV]  inner max. [A]     outer max. [A]     outer radius [A]   
    2    0         2.100000       -14.9965           0.193243           1.317208           5.373006
    2    1         3.500000       -41.6672           0.602369           0.602369           4.056063
    1    0         0.850000        -9.8292           0.624871           0.624871           5.373006
    2    1         3.700000       -46.5653           0.573622           0.573622           3.910002
    2    0         1.200000        -4.5995           0.334980           2.228188           5.505995
    3    2         7.000000       -74.0753           0.680699           0.680699           3.769201
 
 
  C                    hydrogenic:
 
  List of hydrogenic basis orbitals: 
    n    l      effective z      eigenvalue [eV]  inner max. [A]     outer max. [A]     outer radius [A]   
    2    1         1.700000        -9.8152           1.245706           1.245706           5.401630
    3    2         6.000000       -54.4226           0.792453           0.792453           4.178599
    2    0         4.900000       -81.6681           0.082559           0.562749           3.353238
    4    3         9.800000       -81.6681           0.863254           0.863254           4.028125
    3    1         5.200000       -40.8774           0.305389           1.215618           4.898362
    3    0         4.300000       -27.9508           0.091041           1.610311           5.401630
    5    4        14.400000      -112.8510           0.917666           0.917666           3.883070
    3    2         6.200000       -58.1113           0.763917           0.763917           4.077671
 
 
  N                    hydrogenic:
 
  List of hydrogenic basis orbitals: 
    n    l      effective z      eigenvalue [eV]  inner max. [A]     outer max. [A]     outer radius [A]   
    2    1         1.800000       -11.0118           1.177451           1.177451           5.427479
    3    2         6.800000       -69.9029           0.704619           0.704619           3.854246
    3    0         5.800000       -50.8549           0.067388           1.191934           4.629968
    4    3        10.800000       -99.1854           0.786571           0.786571           3.761152
    3    1         5.800000       -50.8549           0.274880           1.094176           4.518138
    1    0         0.800000        -8.7059           0.662839           0.662839           5.361532
    5    4        16.000000      -139.3222           0.825990           0.825990           3.625711
    3    2         4.900000       -36.2967           0.968267           0.968267           4.862000
 
 
  O                    hydrogenic:
 
  List of hydrogenic basis orbitals: 
    n    l      effective z      eigenvalue [eV]  inner max. [A]     outer max. [A]     outer radius [A]   
    2    1         1.800000       -11.0118           1.178562           1.178562           5.432602
    3    2         7.600000       -87.3182           0.624125           0.624125           3.541477
    3    0         6.400000       -61.9209           0.061167           1.081902           4.306578
    4    3        11.600000      -114.4238           0.731631           0.731631           3.585037
    3    1         6.200000       -58.1113           0.255680           1.030270           4.306578
    3    2         5.600000       -47.4081           0.847233           0.847233           4.413171
    5    4        17.600000      -168.5799           0.749740           0.749740           3.372465
    1    0         0.750000        -7.6499           0.705284           0.705284           5.366593
 

  Adding cutoff potential to free-atom effective potential.
  Creating atomic-like basis functions for current effective potential.

  Species H                   :

  List of atomic basis orbitals and eigenvalues:
    n    l      energy [Ha]    energy [eV]    outer radius [A]
    1    0        -0.238382        -6.4867       5.373006


  Species C                   :

  List of atomic basis orbitals and eigenvalues:
    n    l      energy [Ha]    energy [eV]    outer radius [A]
    1    0       -10.041232      -273.2358       1.934409
    2    0        -0.504327       -13.7234       5.271162
    2    1        -0.193750        -5.2722       5.401630


  Species N                   :

  List of atomic basis orbitals and eigenvalues:
    n    l      energy [Ha]    energy [eV]    outer radius [A]
    1    0       -14.129007      -384.4699       1.637919
    2    0        -0.681802       -18.5528       5.168461
    2    1        -0.260543        -7.0897       5.361532


  Species O                   :

  List of atomic basis orbitals and eigenvalues:
    n    l      energy [Ha]    energy [eV]    outer radius [A]
    1    0       -18.898576      -514.2564       1.415765
    2    0        -0.878795       -23.9132       5.048385
    2    1        -0.332075        -9.0362       5.301386

  Assembling full basis from fixed parts.
  | Species H :   atomic orbital   1 s accepted.
  | Species H :    hydro orbital   2 s accepted.
  | Species H :    hydro orbital   1 s accepted.
  | Species H :    hydro orbital   2 s accepted.
  | Species H :    hydro orbital   2 p accepted.
  | Species H :    hydro orbital   2 p accepted.
  | Species H :    hydro orbital   3 d accepted.
  | Species C :   atomic orbital   1 s accepted.
  | Species C :    hydro orbital   2 s accepted.
  | Species C :   atomic orbital   2 s accepted.
  | Species C :    hydro orbital   3 s accepted.
  | Species C :    hydro orbital   3 p accepted.
  | Species C :   atomic orbital   2 p accepted.
  | Species C :    hydro orbital   2 p accepted.
  | Species C :    hydro orbital   3 d accepted.
  | Species C :    hydro orbital   3 d accepted.
  | Species C :    hydro orbital   4 f accepted.
  | Species C :    hydro orbital   5 g accepted.
  | Species N :   atomic orbital   1 s accepted.
  | Species N :    hydro orbital   3 s accepted.
  | Species N :   atomic orbital   2 s accepted.
  | Species N :    hydro orbital   1 s accepted.
  | Species N :    hydro orbital   3 p accepted.
  | Species N :   atomic orbital   2 p accepted.
  | Species N :    hydro orbital   2 p accepted.
  | Species N :    hydro orbital   3 d accepted.
  | Species N :    hydro orbital   3 d accepted.
  | Species N :    hydro orbital   4 f accepted.
  | Species N :    hydro orbital   5 g accepted.
  | Species O :   atomic orbital   1 s accepted.
  | Species O :    hydro orbital   3 s accepted.
  | Species O :   atomic orbital   2 s accepted.
  | Species O :    hydro orbital   1 s accepted.
  | Species O :    hydro orbital   3 p accepted.
  | Species O :   atomic orbital   2 p accepted.
  | Species O :    hydro orbital   2 p accepted.
  | Species O :    hydro orbital   3 d accepted.
  | Species O :    hydro orbital   3 d accepted.
  | Species O :    hydro orbital   4 f accepted.
  | Species O :    hydro orbital   5 g accepted.
 
  Basis size parameters after reduction:
  | Total number of radial functions:       40
  | Total number of basis functions :      840
 
  Testing on-site integration grid accuracy.
  |  Species  Function  <phi|h_atom|phi> (log., in eV)  <phi|h_atom|phi> (rad., in eV)
           1        1                 -6.4869821809                 -6.4870742227
           1        2                 13.5044133542                 13.5041049177
           1        3                 32.7854418792                 32.7779770519
           1        4                 33.7995553101                 33.7152624900 ***
           1        5                 28.8558651799                 28.8558652046
           1        6                 59.6361831893                 59.6362535845
           1        7                 60.2733718049                 60.2733715484
           2        8               -273.2358277112               -273.2358261765
           2        9                -10.7624923123                -10.7625144012
           2       10                 17.4634079027                 17.4634252127
           2       11                 53.0363661832                 53.0366180446
           2       12                 15.0981351967                 15.0981317714
           2       13                  3.8522181899                  3.8522770949
           2       14                 12.1181835661                 12.1206868578
           2       15                 29.4320778347                 29.4320780959
           2       16                 54.8753777694                 54.8752901936
           2       17                 59.3533975461                 59.3533974833
           2       18                 93.4537491195                 93.4537492066
           3       19               -384.4698526889               -384.4698499465
           3       20                 12.5691022037                 12.5690910168
           3       21                -15.7489097511                -15.7489165588
           3       22                 27.0978334940                 27.0985589490
           3       23                 18.5949116966                 18.5949125562
           3       24                  1.2212828291                  1.2212855301
           3       25                 13.4428926797                 13.4434051125
           3       26                 35.9380614500                 35.9380613666
           3       27                 39.9231532098                 39.9231654735
           3       28                 72.9957335806                 72.9957336833
           3       29                116.4231321147                116.4231321431
           4       30               -514.2564144315               -514.2564099626
           4       31                 15.1726678541                 15.1726530877
           4       32                -21.5447785304                -21.5447874973
           4       33                 14.4944558459                 14.4944698284
           4       34                 20.8882174564                 20.8882178906
           4       35                 -2.4850315908                 -2.4850322289
           4       36                 13.8600193195                 13.8599826966
           4       37                 45.8243383616                 45.8243383675
           4       38                 52.1840606465                 52.1840622440
           4       39                 85.4074185510                 85.4074185819
           4       40                142.0983717302                142.0983717339
 * Note: Onsite integrals marked "***" above are less accurate than
 * onsite_accuracy_threshold =    0.03000 eV. Usually, this is harmless.
 * When in doubt, tighten the "radial" and/or "radial_multiplier" flags to check.

  Preparing densities etc. for the partition functions (integrals / Hartree potential).

  Preparations completed.
  max(cpu_time)          :      0.244 s.
  Wall clock time (cpu1) :      0.236 s.
------------------------------------------------------------

------------------------------------------------------------
          Begin self-consistency loop: Initialization.

          Date     :  20170309, Time     :  184226.763
------------------------------------------------------------

  Initializing index lists of integration centers etc. from given atomic structure:
  | Number of centers in hartree potential         :        32
  | Number of centers in hartree multipole         :        32
  | Number of centers in electron density summation:        32
  | Number of centers in basis integrals           :        32
  | Number of centers in integrals                 :        32
  | Number of centers in hamiltonian               :        32
  Using modified Scalapack Eigenvalue solver (ELPA)
  * Using 32 tasks for Scalapack Eigenvalue solver.
  Detailed listing of tasks and assigned k-points:
  (for non-periodic systems, the "k-point" denotes an internal label only)
   Task     0 k-point     1 on eos026
   Task     1 k-point     1 on eos026
   Task     2 k-point     1 on eos026
   Task     3 k-point     1 on eos026
   Task     4 k-point     1 on eos026
   Task     5 k-point     1 on eos026
   Task     6 k-point     1 on eos026
   Task     7 k-point     1 on eos026
   Task     8 k-point     1 on eos026
   Task     9 k-point     1 on eos026
   Task    10 k-point     1 on eos026
   Task    11 k-point     1 on eos026
   Task    12 k-point     1 on eos026
   Task    13 k-point     1 on eos026
   Task    14 k-point     1 on eos026
   Task    15 k-point     1 on eos026
   Task    16 k-point     1 on eos026
   Task    17 k-point     1 on eos026
   Task    18 k-point     1 on eos026
   Task    19 k-point     1 on eos026
   Task    20 k-point     1 on eos026
   Task    21 k-point     1 on eos026
   Task    22 k-point     1 on eos026
   Task    23 k-point     1 on eos026
   Task    24 k-point     1 on eos026
   Task    25 k-point     1 on eos026
   Task    26 k-point     1 on eos026
   Task    27 k-point     1 on eos026
   Task    28 k-point     1 on eos026
   Task    29 k-point     1 on eos026
   Task    30 k-point     1 on eos026
   Task    31 k-point     1 on eos026
  Tasks:    32 split into      8 X      4 BLACS grid
  Calculating blocksize based on n_basis =          840 max_nprow =            8 max_npcol =            4
  Scalapack blocksize set to:           16
  Required Scalapack workspace - INTEGER:            1 REAL:             1
  Partitioning the integration grid into batches with parallel hashing+maxmin method.
  | Number of batches:     5025
  | Maximal batch size:     190
  | Minimal batch size:       9
  | Average batch size:     105.020
  | Standard deviation of batch sizes:      33.184

  Integration load balanced across    32 MPI tasks.
  Work distribution over tasks is as follows:
  Task     0 has      16444 integration points.
  Task     1 has      16463 integration points.
  Task     2 has      16456 integration points.
  Task     3 has      16541 integration points.
  Task     4 has      16450 integration points.
  Task     5 has      16496 integration points.
  Task     6 has      16461 integration points.
  Task     7 has      16518 integration points.
  Task     8 has      16524 integration points.
  Task     9 has      16513 integration points.
  Task    10 has      16459 integration points.
  Task    11 has      16459 integration points.
  Task    12 has      16499 integration points.
  Task    13 has      16533 integration points.
  Task    14 has      16528 integration points.
  Task    15 has      16527 integration points.
  Task    16 has      16506 integration points.
  Task    17 has      16536 integration points.
  Task    18 has      16458 integration points.
  Task    19 has      16527 integration points.
  Task    20 has      16463 integration points.
  Task    21 has      16438 integration points.
  Task    22 has      16457 integration points.
  Task    23 has      16453 integration points.
  Task    24 has      16532 integration points.
  Task    25 has      16455 integration points.
  Task    26 has      16450 integration points.
  Task    27 has      16517 integration points.
  Task    28 has      16484 integration points.
  Task    29 has      16502 integration points.
  Task    30 has      16551 integration points.
  Task    31 has      16528 integration points.
  Initializing partition tables, free-atom densities, potentials, etc. across the integration grid (initialize_grid_storage).
  | initialize_grid_storage: Actual outermost partition radius vs. multipole_radius_free
  | (-- VB: in principle, multipole_radius_free should be larger, hence this output)
  | Species        1: Confinement radius =              6.000000000000000 AA, multipole_radius_free =              6.071692442739658 AA.
  | Species        1: outer_partition_radius set to              6.071692442739658 AA .
  | Species        2: Confinement radius =              6.000000000000000 AA, multipole_radius_free =              6.029870734432609 AA.
  | Species        2: outer_partition_radius set to              6.029870734432609 AA .
  | Species        3: Confinement radius =              6.000000000000000 AA, multipole_radius_free =              6.058726835495003 AA.
  | Species        3: outer_partition_radius set to              6.058726835495003 AA .
  | Species        4: Confinement radius =              6.000000000000000 AA, multipole_radius_free =              6.064445521808699 AA.
  | Species        4: outer_partition_radius set to              6.064445521808699 AA .
  | Original list of interatomic distances with          32 x         32 entries is created.
  | Net number of integration points:   527728
  | of which are non-zero points    :   414791
  Obtaining max. number of non-zero basis functions in each batch (get_n_compute_maxes).
  | Maximal number of non-zero basis functions:      739 in task     0
  | Maximal number of non-zero basis functions:      771 in task     1
  | Maximal number of non-zero basis functions:      742 in task     2
  | Maximal number of non-zero basis functions:      741 in task     3
  | Maximal number of non-zero basis functions:      771 in task     4
  | Maximal number of non-zero basis functions:      746 in task     5
  | Maximal number of non-zero basis functions:      748 in task     6
  | Maximal number of non-zero basis functions:      739 in task     7
  | Maximal number of non-zero basis functions:      742 in task     8
  | Maximal number of non-zero basis functions:      734 in task     9
  | Maximal number of non-zero basis functions:      752 in task    10
  | Maximal number of non-zero basis functions:      745 in task    11
  | Maximal number of non-zero basis functions:      762 in task    12
  | Maximal number of non-zero basis functions:      739 in task    13
  | Maximal number of non-zero basis functions:      732 in task    14
  | Maximal number of non-zero basis functions:      730 in task    15
  | Maximal number of non-zero basis functions:      752 in task    16
  | Maximal number of non-zero basis functions:      746 in task    17
  | Maximal number of non-zero basis functions:      736 in task    18
  | Maximal number of non-zero basis functions:      738 in task    19
  | Maximal number of non-zero basis functions:      763 in task    20
  | Maximal number of non-zero basis functions:      743 in task    21
  | Maximal number of non-zero basis functions:      747 in task    22
  | Maximal number of non-zero basis functions:      742 in task    23
  | Maximal number of non-zero basis functions:      743 in task    24
  | Maximal number of non-zero basis functions:      755 in task    25
  | Maximal number of non-zero basis functions:      756 in task    26
  | Maximal number of non-zero basis functions:      735 in task    27
  | Maximal number of non-zero basis functions:      732 in task    28
  | Maximal number of non-zero basis functions:      739 in task    29
  | Maximal number of non-zero basis functions:      745 in task    30
  | Maximal number of non-zero basis functions:      738 in task    31
  Selecting the method for density update.
  Loop over occupied states selected for charge density update.
  Integrating Hamiltonian matrix: batch-based integration.
  Time summed over all CPUs for integration: real work       20.738 s, elapsed       21.716 s
  Integrating overlap matrix.
  Time summed over all CPUs for integration: real work       12.596 s, elapsed       13.096 s
  Deallocating overlap matrix.

  Updating Kohn-Sham eigenvalues, eigenvectors, occupation numbers, and Fermi level.
  Solving generalized eigenproblem
  Solving real symmetric generalised eigenvalue problem by standard ScaLAPACK.
  Transforming overlap matrix with ScaLAPACK and checking for singularities.
  : Overlap matrix is nonsingular, using Cholesky decomposition
  | Lowest eigenvalue:  0.904915E-04
  Factoring overlap matrix with Cholesky decomposition
  Using Cholesky factor for transformation
  Using 1-stage real ELPA solver
  Determining occupation numbers for Kohn-Sham eigenstates.
  | Chemical potential (Fermi level) in eV                 : -.96264283E+01
  | Error in electron count due to remaining E_F inaccuracy: 0.00000000E+00
  | Maximum occupation number of highest empty state:  0.00E+00

  Writing Kohn-Sham eigenvalues.

  State    Occupation    Eigenvalue [Ha]    Eigenvalue [eV]
      1       2.00000         -18.975696         -516.35495
      2       2.00000         -18.975066         -516.33781
      3       2.00000         -18.974420         -516.32025
      4       2.00000         -14.256468         -387.93823
      5       2.00000         -14.252878         -387.84055
      6       2.00000         -14.252714         -387.83609
      7       2.00000         -10.171105         -276.76984
      8       2.00000         -10.170966         -276.76607
      9       2.00000         -10.170602         -276.75617
     10       2.00000         -10.166810         -276.65298
     11       2.00000         -10.148637         -276.15846
     12       2.00000         -10.147528         -276.12829
     13       2.00000         -10.135410         -275.79855
     14       2.00000         -10.134711         -275.77951
     15       2.00000         -10.132811         -275.72782
     16       2.00000          -1.136032          -30.91300
     17       2.00000          -1.131983          -30.80281
     18       2.00000          -1.129894          -30.74599
     19       2.00000          -1.022128          -27.81350
     20       2.00000          -1.013124          -27.56850
     21       2.00000          -1.004144          -27.32415
     22       2.00000          -0.887900          -24.16098
     23       2.00000          -0.876669          -23.85538
     24       2.00000          -0.840244          -22.86420
     25       2.00000          -0.821003          -22.34063
     26       2.00000          -0.770425          -20.96434
     27       2.00000          -0.757545          -20.61384
     28       2.00000          -0.705995          -19.21109
     29       2.00000          -0.686711          -18.68636
     30       2.00000          -0.668092          -18.17972
     31       2.00000          -0.646536          -17.59315
     32       2.00000          -0.623326          -16.96156
     33       2.00000          -0.618359          -16.82641
     34       2.00000          -0.602937          -16.40675
     35       2.00000          -0.590443          -16.06678
     36       2.00000          -0.576767          -15.69462
     37       2.00000          -0.567193          -15.43412
     38       2.00000          -0.562272          -15.30019
     39       2.00000          -0.557055          -15.15824
     40       2.00000          -0.554786          -15.09651
     41       2.00000          -0.549823          -14.96144
     42       2.00000          -0.538154          -14.64393
     43       2.00000          -0.533009          -14.50392
     44       2.00000          -0.529728          -14.41464
     45       2.00000          -0.523011          -14.23185
     46       2.00000          -0.514152          -13.99078
     47       2.00000          -0.512238          -13.93870
     48       2.00000          -0.506636          -13.78628
     49       2.00000          -0.498434          -13.56307
     50       2.00000          -0.485102          -13.20030
     51       2.00000          -0.478148          -13.01107
     52       2.00000          -0.474090          -12.90064
     53       2.00000          -0.418626          -11.39139
     54       2.00000          -0.408756          -11.12283
     55       2.00000          -0.402516          -10.95303
     56       2.00000          -0.386357          -10.51331
     57       2.00000          -0.381867          -10.39114
     58       2.00000          -0.376061          -10.23313
     59       0.00000          -0.168208           -4.57717
     60       0.00000          -0.157926           -4.29738
     61       0.00000          -0.151553           -4.12397
     62       0.00000          -0.085191           -2.31816
     63       0.00000          -0.066720           -1.81554
     64       0.00000          -0.057927           -1.57626
     65       0.00000          -0.049402           -1.34429
     66       0.00000          -0.043181           -1.17501
     67       0.00000          -0.040205           -1.09404
     68       0.00000          -0.031697           -0.86251
     69       0.00000          -0.028517           -0.77599
     70       0.00000          -0.023123           -0.62920
     71       0.00000          -0.021071           -0.57336
     72       0.00000          -0.017280           -0.47022
     73       0.00000          -0.013577           -0.36946
     74       0.00000          -0.007730           -0.21033
     75       0.00000          -0.004529           -0.12323
     76       0.00000          -0.003323           -0.09042
     77       0.00000           0.001971            0.05364
     78       0.00000           0.003751            0.10206
     79       0.00000           0.005324            0.14486
     80       0.00000           0.010878            0.29599
     81       0.00000           0.018871            0.51351
     82       0.00000           0.023830            0.64844
     83       0.00000           0.039835            1.08397
     84       0.00000           0.043991            1.19705
     85       0.00000           0.044238            1.20378
     86       0.00000           0.049970            1.35976
     87       0.00000           0.053951            1.46808
     88       0.00000           0.058683            1.59685
     89       0.00000           0.067683            1.84175
     90       0.00000           0.071736            1.95205
     91       0.00000           0.074003            2.01374
     92       0.00000           0.077665            2.11336
     93       0.00000           0.082830            2.25393
     94       0.00000           0.090979            2.47567
     95       0.00000           0.094024            2.55852
     96       0.00000           0.096911            2.63707
     97       0.00000           0.107176            2.91639
     98       0.00000           0.109081            2.96825
     99       0.00000           0.115238            3.13578
    100       0.00000           0.118669            3.22914
    101       0.00000           0.123633            3.36423
    102       0.00000           0.135364            3.68344
    103       0.00000           0.139391            3.79302
    104       0.00000           0.144380            3.92877
    105       0.00000           0.147320            4.00879
    106       0.00000           0.151721            4.12854
    107       0.00000           0.157848            4.29527
    108       0.00000           0.162008            4.40845
    109       0.00000           0.165151            4.49399
    110       0.00000           0.169321            4.60746
    111       0.00000           0.178354            4.85326
    112       0.00000           0.179622            4.88776
    113       0.00000           0.185365            5.04404
    114       0.00000           0.186551            5.07632
    115       0.00000           0.193869            5.27545
    116       0.00000           0.198414            5.39912
    117       0.00000           0.202659            5.51463
    118       0.00000           0.205666            5.59646
    119       0.00000           0.210664            5.73246
    120       0.00000           0.212944            5.79451
    121       0.00000           0.216639            5.89504
    122       0.00000           0.220619            6.00335
    123       0.00000           0.226931            6.17510
    124       0.00000           0.238115            6.47943
    125       0.00000           0.246355            6.70367
    126       0.00000           0.247426            6.73282
    127       0.00000           0.252778            6.87845
    128       0.00000           0.258979            7.04717
    129       0.00000           0.263197            7.16197

  Highest occupied state (VBM) at    -10.23312866 eV
  | Occupation number:      2.00000000

  Lowest unoccupied state (CBM) at    -4.57716609 eV
  | Occupation number:      0.00000000

  Overall HOMO-LUMO gap:      5.65596258 eV.
  Calculating total energy contributions from superposition of free atom densities.

  Total energy components:
  | Sum of eigenvalues            :        -437.86818938 Ha      -11914.99966144 eV
  | XC energy correction          :         -98.81152007 Ha       -2688.79826554 eV
  | XC potential correction       :         127.00911827 Ha        3456.09395215 eV
  | Free-atom electrostatic energy:        -333.61995305 Ha       -9078.26081930 eV
  | Hartree energy correction     :           0.00000000 Ha           0.00000000 eV
  | vdW energy correction         :           0.00000000 Ha           0.00000000 eV
  | Entropy correction            :          -0.00000000 Ha          -0.00000000 eV
  | ---------------------------
  | Total energy                  :        -743.29054423 Ha      -20225.96479414 eV
  | Total energy, T -> 0          :        -743.29054423 Ha      -20225.96479414 eV  <-- do not rely on this value for anything but (periodic) metals
  | Electronic free energy        :        -743.29054423 Ha      -20225.96479414 eV

  Derived energy quantities:
  | Kinetic energy                :         735.13834130 Ha       20004.13206589 eV
  | Electrostatic energy          :       -1379.61736546 Ha      -37541.29859448 eV
  | Energy correction for multipole
  | error in Hartree potential    :           0.00000000 Ha           0.00000000 eV
  | Sum of eigenvalues per atom                           :        -372.34373942 eV
  | Total energy (T->0) per atom                          :        -632.06139982 eV  <-- do not rely on this value for anything but (periodic) metals
  | Electronic free energy per atom                       :        -632.06139982 eV
  Initialize hartree_potential_storage
  Max. number of atoms included in rho_multipole:           32

  End scf initialization - timings             :  max(cpu_time)    wall_clock(cpu1)
  | Time for scf. initialization               :        1.860 s           1.859 s
  | Boundary condition initialization          :        0.004 s           0.000 s
  | Integration                                :        1.112 s           1.109 s
  | Solution of K.-S. eqns.                    :        0.080 s           0.078 s
  | Grid partitioning                          :        0.340 s           0.335 s
  | Preloading free-atom quantities on grid    :        0.028 s           0.027 s
  | Free-atom superposition energy             :        0.040 s           0.038 s
  | Total energy evaluation                    :        0.004 s           0.001 s
------------------------------------------------------------

------------------------------------------------------------
          Begin self-consistency iteration #    1

  Date     :  20170309, Time     :  184228.623
------------------------------------------------------------
  Evaluating new KS density.
  Integration grid: deviation in total charge (<rho> - N_e) =   1.421085E-14
  Pulay mixing of updated and previous charge densities.

  Evaluating partitioned Hartree potential by multipole expansion.
  | Analytical far-field extrapolation by fixed multipoles:
  | Hartree multipole sum: apparent total charge =  -0.200866E-04
  Summing up the Hartree potential.
  Time summed over all CPUs for potential: real work        9.499 s, elapsed        9.744 s
  | RMS charge density error from multipole expansion :   0.105356E-01

  Integrating Hamiltonian matrix: batch-based integration.
  Time summed over all CPUs for integration: real work       20.502 s, elapsed       21.491 s

  Updating Kohn-Sham eigenvalues, eigenvectors, occupation numbers, and Fermi level.
  Solving generalized eigenproblem
  Solving real symmetric generalised eigenvalue problem by standard ScaLAPACK.
  Using Cholesky factor for transformation
  Using 2-stage real ELPA solver
  K-Point:    1, Trafo times: 1-stage=     0.021 s, 2-stage=     0.020 s ==> Using 2-stage solver
  Determining occupation numbers for Kohn-Sham eigenstates.
  | Chemical potential (Fermi level) in eV                 : -.40278774E+01
  | Error in electron count due to remaining E_F inaccuracy: 0.00000000E+00
  | Maximum occupation number of highest empty state:  0.00E+00

  Writing Kohn-Sham eigenvalues.

  State    Occupation    Eigenvalue [Ha]    Eigenvalue [eV]
      1       2.00000         -18.624615         -506.80156
      2       2.00000         -18.617904         -506.61895
      3       2.00000         -18.597514         -506.06410
      4       2.00000         -14.007337         -381.15904
      5       2.00000         -13.997372         -380.88787
      6       2.00000         -13.981349         -380.45188
      7       2.00000         -10.067527         -273.95136
      8       2.00000         -10.056591         -273.65376
      9       2.00000         -10.037518         -273.13475
     10       2.00000          -9.978426         -271.52680
     11       2.00000          -9.966834         -271.21135
     12       2.00000          -9.889694         -269.11226
     13       2.00000          -9.847535         -267.96506
     14       2.00000          -9.840189         -267.76517
     15       2.00000          -9.829805         -267.48260
     16       2.00000          -0.975646          -26.54868
     17       2.00000          -0.963328          -26.21348
     18       2.00000          -0.941242          -25.61250
     19       2.00000          -0.883310          -24.03609
     20       2.00000          -0.863563          -23.49874
     21       2.00000          -0.859345          -23.38397
     22       2.00000          -0.744139          -20.24906
     23       2.00000          -0.731861          -19.91495
     24       2.00000          -0.681781          -18.55220
     25       2.00000          -0.678871          -18.47301
     26       2.00000          -0.628560          -17.10398
     27       2.00000          -0.624271          -16.98727
     28       2.00000          -0.582406          -15.84808
     29       2.00000          -0.564394          -15.35795
     30       2.00000          -0.538507          -14.65353
     31       2.00000          -0.522470          -14.21713
     32       2.00000          -0.493090          -13.41766
     33       2.00000          -0.485806          -13.21946
     34       2.00000          -0.469789          -12.78362
     35       2.00000          -0.443996          -12.08175
     36       2.00000          -0.433924          -11.80767
     37       2.00000          -0.432318          -11.76397
     38       2.00000          -0.417960          -11.37326
     39       2.00000          -0.410856          -11.17997
     40       2.00000          -0.405065          -11.02239
     41       2.00000          -0.395748          -10.76885
     42       2.00000          -0.389934          -10.61065
     43       2.00000          -0.388388          -10.56858
     44       2.00000          -0.376348          -10.24096
     45       2.00000          -0.371076          -10.09750
     46       2.00000          -0.366125           -9.96277
     47       2.00000          -0.362128           -9.85402
     48       2.00000          -0.356393           -9.69796
     49       2.00000          -0.346849           -9.43824
     50       2.00000          -0.342831           -9.32891
     51       2.00000          -0.339531           -9.23910
     52       2.00000          -0.325109           -8.84666
     53       2.00000          -0.258285           -7.02829
     54       2.00000          -0.238695           -6.49522
     55       2.00000          -0.235312           -6.40317
     56       2.00000          -0.216272           -5.88506
     57       2.00000          -0.212797           -5.79049
     58       2.00000          -0.191841           -5.22026
     59       0.00000          -0.059362           -1.61532
     60       0.00000          -0.050030           -1.36140
     61       0.00000          -0.046041           -1.25285
     62       0.00000          -0.030910           -0.84111
     63       0.00000          -0.026458           -0.71995
     64       0.00000          -0.014151           -0.38507
     65       0.00000          -0.009239           -0.25142
     66       0.00000           0.001582            0.04305
     67       0.00000           0.009790            0.26640
     68       0.00000           0.015691            0.42698
     69       0.00000           0.016584            0.45128
     70       0.00000           0.029419            0.80052
     71       0.00000           0.034142            0.92906
     72       0.00000           0.041853            1.13887
     73       0.00000           0.043677            1.18850
     74       0.00000           0.047490            1.29226
     75       0.00000           0.049339            1.34259
     76       0.00000           0.051998            1.41492
     77       0.00000           0.060807            1.65464
     78       0.00000           0.067871            1.84687
     79       0.00000           0.077086            2.09762
     80       0.00000           0.079905            2.17433
     81       0.00000           0.087195            2.37269
     82       0.00000           0.093179            2.53553
     83       0.00000           0.098693            2.68556
     84       0.00000           0.104211            2.83573
     85       0.00000           0.105140            2.86100
     86       0.00000           0.112266            3.05491
     87       0.00000           0.119056            3.23969
     88       0.00000           0.120016            3.26580
     89       0.00000           0.123376            3.35723
     90       0.00000           0.129110            3.51327
     91       0.00000           0.136388            3.71131
     92       0.00000           0.140335            3.81870
     93       0.00000           0.150428            4.09335
     94       0.00000           0.155389            4.22835
     95       0.00000           0.160448            4.36600
     96       0.00000           0.165853            4.51308
     97       0.00000           0.170576            4.64161
     98       0.00000           0.177338            4.82561
     99       0.00000           0.185580            5.04989
    100       0.00000           0.187544            5.10332
    101       0.00000           0.195739            5.32634
    102       0.00000           0.197201            5.36611
    103       0.00000           0.202206            5.50232
    104       0.00000           0.205173            5.58305
    105       0.00000           0.208137            5.66371
    106       0.00000           0.209789            5.70864
    107       0.00000           0.216738            5.89775
    108       0.00000           0.225719            6.14214
    109       0.00000           0.229561            6.24669
    110       0.00000           0.233145            6.34420
    111       0.00000           0.237242            6.45567
    112       0.00000           0.240755            6.55128
    113       0.00000           0.244866            6.66315
    114       0.00000           0.248648            6.76606
    115       0.00000           0.253117            6.88766
    116       0.00000           0.257578            7.00905
    117       0.00000           0.258801            7.04233
    118       0.00000           0.264342            7.19312
    119       0.00000           0.271173            7.37901
    120       0.00000           0.276722            7.52998
    121       0.00000           0.282417            7.68494
    122       0.00000           0.287237            7.81611
    123       0.00000           0.299093            8.13874
    124       0.00000           0.302336            8.22699
    125       0.00000           0.313142            8.52102
    126       0.00000           0.318273            8.66064
    127       0.00000           0.322131            8.76562
    128       0.00000           0.328951            8.95120
    129       0.00000           0.335121            9.11911

  Highest occupied state (VBM) at     -5.22025703 eV
  | Occupation number:      2.00000000

  Lowest unoccupied state (CBM) at    -1.61532103 eV
  | Occupation number:      0.00000000

  Overall HOMO-LUMO gap:      3.60493600 eV.

  Total energy components:
  | Sum of eigenvalues            :        -417.66074302 Ha      -11365.12706897 eV
  | XC energy correction          :        -100.75214781 Ha       -2741.60543318 eV
  | XC potential correction       :         129.52644478 Ha        3524.59389182 eV
  | Free-atom electrostatic energy:        -333.61995305 Ha       -9078.26081930 eV
  | Hartree energy correction     :         -20.21192409 Ha        -549.99443790 eV
  | vdW energy correction         :           0.00000000 Ha           0.00000000 eV
  | Entropy correction            :          -0.00000000 Ha          -0.00000000 eV
  | ---------------------------
  | Total energy                  :        -742.71832319 Ha      -20210.39386753 eV
  | Total energy, T -> 0          :        -742.71832319 Ha      -20210.39386753 eV  <-- do not rely on this value for anything but (periodic) metals
  | Electronic free energy        :        -742.71832319 Ha      -20210.39386753 eV

  Derived energy quantities:
  | Kinetic energy                :         744.04307345 Ha       20246.44215616 eV
  | Electrostatic energy          :       -1386.00924883 Ha      -37715.23059051 eV
  | Energy correction for multipole
  | error in Hartree potential    :          -0.04087426 Ha          -1.11224516 eV
  | Sum of eigenvalues per atom                           :        -355.16022091 eV
  | Total energy (T->0) per atom                          :        -631.57480836 eV  <-- do not rely on this value for anything but (periodic) metals
  | Electronic free energy per atom                       :        -631.57480836 eV

  Self-consistency convergence accuracy:
  | Change of charge density      :  0.9035E+00
  | Change of sum of eigenvalues  :  0.5499E+03 eV
  | Change of total energy        :  0.1557E+02 eV

  End self-consistency iteration #     1       :  max(cpu_time)    wall_clock(cpu1)
  | Time for this iteration                    :        1.516 s           1.511 s
  | Charge density update                      :        0.480 s           0.478 s
[...]
   ----------------------------------------------------------------
   Total forces(  20)            :  0.972088E-03 -0.425476E-04 -0.140970E-02
  atom #   21
   Hellmann-Feynman              :  0.490667E-02 -0.341685E-01 -0.489915E-01
   Ionic forces                  :  0.000000E+00  0.000000E+00  0.000000E+00
   Multipole                     : -0.211500E-01 -0.834387E-02  0.275232E-01
   Pulay + GGA                   :  0.133017E-01  0.513742E-01  0.306646E-01
   Van der Waals                 :  0.258469E-02 -0.774977E-02 -0.867976E-02
   ----------------------------------------------------------------
   Total forces(  21)            : -0.356911E-03  0.111202E-02  0.516556E-03
  atom #   22
   Hellmann-Feynman              : -0.125000E-01  0.542384E-01  0.256704E-01
   Ionic forces                  :  0.000000E+00  0.000000E+00  0.000000E+00
   Multipole                     : -0.313627E-03  0.908157E-02 -0.106512E-01
   Pulay + GGA                   :  0.193477E-01 -0.656049E-01 -0.192235E-01
   Van der Waals                 : -0.577027E-02  0.207589E-02  0.430831E-02
   ----------------------------------------------------------------
   Total forces(  22)            :  0.763760E-03 -0.209094E-03  0.104027E-03
  atom #   23
   Hellmann-Feynman              :  0.527127E-01  0.923397E-01  0.118213E+01
   Ionic forces                  :  0.000000E+00  0.000000E+00  0.000000E+00
   Multipole                     : -0.332619E-01 -0.117836E+00 -0.240322E+00
   Pulay + GGA                   : -0.272032E-01  0.263308E-01 -0.927355E+00
   Van der Waals                 :  0.756138E-02 -0.643728E-03 -0.133310E-01
   ----------------------------------------------------------------
   Total forces(  23)            : -0.191094E-03  0.191224E-03  0.112241E-02
  atom #   24
   Hellmann-Feynman              : -0.716799E-02 -0.780391E-02 -0.705993E-01
   Ionic forces                  :  0.000000E+00  0.000000E+00  0.000000E+00
   Multipole                     :  0.303783E-01  0.228167E-01  0.185338E-01
   Pulay + GGA                   : -0.294708E-01 -0.187180E-01  0.468458E-01
   Van der Waals                 :  0.646619E-02  0.375458E-02  0.594579E-02
   ----------------------------------------------------------------
   Total forces(  24)            :  0.205659E-03  0.494313E-04  0.726130E-03
  atom #   25
   Hellmann-Feynman              : -0.170181E-01 -0.412156E-01 -0.533097E-02
   Ionic forces                  :  0.000000E+00  0.000000E+00  0.000000E+00
   Multipole                     :  0.915903E-02 -0.238621E-01  0.106214E-01
   Pulay + GGA                   :  0.129788E-01  0.636524E-01 -0.965204E-02
   Van der Waals                 : -0.525035E-02  0.140346E-02  0.443239E-02
   ----------------------------------------------------------------
   Total forces(  25)            : -0.130626E-03 -0.218351E-04  0.708022E-04
  atom #   26
   Hellmann-Feynman              : -0.297015E-01 -0.902245E-02 -0.418334E-01
   Ionic forces                  :  0.000000E+00  0.000000E+00  0.000000E+00
   Multipole                     : -0.212468E-01  0.254017E-01  0.161910E-01
   Pulay + GGA                   :  0.524136E-01 -0.158964E-01  0.224313E-01
   Van der Waals                 : -0.129983E-02 -0.447380E-03  0.296935E-02
   ----------------------------------------------------------------
   Total forces(  26)            :  0.165512E-03  0.355085E-04 -0.241699E-03
  atom #   27
   Hellmann-Feynman              :  0.856770E+00 -0.494641E+00  0.495270E+00
   Ionic forces                  :  0.000000E+00  0.000000E+00  0.000000E+00
   Multipole                     : -0.104852E-01 -0.213969E+00  0.157456E+00
   Pulay + GGA                   : -0.852717E+00  0.716753E+00 -0.655080E+00
   Van der Waals                 :  0.101204E-01 -0.796367E-02  0.357789E-02
   ----------------------------------------------------------------
   Total forces(  27)            :  0.368768E-02  0.179547E-03  0.122441E-02
  atom #   28
   Hellmann-Feynman              : -0.228592E+01  0.497281E+00 -0.583597E+00
   Ionic forces                  :  0.000000E+00  0.000000E+00  0.000000E+00
   Multipole                     :  0.160244E+00 -0.489021E-01  0.537277E-01
   Pulay + GGA                   :  0.210632E+01 -0.443863E+00  0.528606E+00
   Van der Waals                 :  0.153507E-01 -0.317759E-02 -0.561966E-03
   ----------------------------------------------------------------
   Total forces(  28)            : -0.400421E-02  0.133815E-02 -0.182548E-02
  atom #   29
   Hellmann-Feynman              : -0.818795E-02 -0.237461E-01  0.233003E-01
   Ionic forces                  :  0.000000E+00  0.000000E+00  0.000000E+00
   Multipole                     : -0.447502E-01  0.152052E-01 -0.140705E-01
   Pulay + GGA                   :  0.488981E-01  0.186178E-01 -0.116707E-01
   Van der Waals                 :  0.361449E-02 -0.101958E-01  0.184510E-02
   ----------------------------------------------------------------
   Total forces(  29)            : -0.425536E-03 -0.118943E-03 -0.595829E-03
  atom #   30
   Hellmann-Feynman              :  0.216259E-01 -0.100817E-01  0.415820E-01
   Ionic forces                  :  0.000000E+00  0.000000E+00  0.000000E+00
   Multipole                     : -0.163272E-01  0.154729E-01  0.261053E-01
   Pulay + GGA                   : -0.537510E-02 -0.818555E-03 -0.688936E-01
   Van der Waals                 :  0.348848E-03 -0.458736E-02  0.132353E-02
   ----------------------------------------------------------------
   Total forces(  30)            :  0.272394E-03 -0.146734E-04  0.117223E-03
  atom #   31
   Hellmann-Feynman              :  0.296670E-01 -0.401673E-01  0.114563E-01
   Ionic forces                  :  0.000000E+00  0.000000E+00  0.000000E+00
   Multipole                     : -0.115146E-01 -0.240301E-01 -0.216987E-01
   Pulay + GGA                   : -0.163414E-01  0.664459E-01  0.750058E-02
   Van der Waals                 : -0.123014E-02 -0.229125E-02  0.293786E-02
   ----------------------------------------------------------------
   Total forces(  31)            :  0.580912E-03 -0.427237E-04  0.196078E-03
  atom #   32
   Hellmann-Feynman              :  0.625175E-01 -0.175175E-01  0.222299E-01
   Ionic forces                  :  0.000000E+00  0.000000E+00  0.000000E+00
   Multipole                     : -0.101423E-01  0.382012E-01 -0.313416E-01
   Pulay + GGA                   : -0.547580E-01 -0.219389E-01  0.106545E-01
   Van der Waals                 :  0.239391E-02  0.111952E-02 -0.146789E-02
   ----------------------------------------------------------------
   Total forces(  32)            :  0.111669E-04 -0.135726E-03  0.748921E-04

  Timings for VdW correction (Tkatchenko-Scheffler 2009 or later):
  | CPU time:        0.124 s, Wall clock time:        0.123 s.
  Removing unitary transformations (pure translations, rotations) from forces on atoms.
  Atomic forces before filtering:
  | Net force on center of mass :  -0.772093E-03 -0.174975E-03  0.800845E-03 eV/A
  | Net torque on center of mass:  -0.618163E-03 -0.500451E-03 -0.201564E-02 eV
  Atomic forces after filtering:
  | Net force on center of mass :  -0.152447E-17  0.000000E+00 -0.326671E-19 eV/A
  | Net torque on center of mass:   0.472503E-17 -0.783664E-18 -0.213779E-17 eV

  Energy and forces in a compact form:
  | Total energy uncorrected      :         -0.202085567985009E+05 eV
  | Total energy corrected        :         -0.202085567985009E+05 eV  <-- do not rely on this value for anything but (periodic) metals
  | Electronic free energy        :         -0.202085567985009E+05 eV
  Total atomic forces (unitary forces cleaned) [eV/Ang]:
  |   1          0.477244800188747E-03         -0.279707858756915E-03         -0.117260442267733E-02
  |   2         -0.546237134254621E-03         -0.323779127107950E-03          0.972705104236980E-03
  |   3         -0.462794065823156E-03         -0.123404436777878E-02         -0.565117639243742E-03
  |   4          0.752079459059529E-03         -0.370272937545401E-03          0.349673433592709E-03
  |   5          0.321481419479205E-04          0.776846189413022E-03          0.245486771983335E-03
  |   6         -0.786182574704273E-03         -0.314011175285411E-03         -0.462994203118048E-03
  |   7          0.112584174689756E-02          0.110042678477138E-02         -0.211323751062287E-02
  |   8         -0.132997173901222E-02         -0.137250595853504E-02          0.818817456523538E-04
  |   9          0.111000208353519E-02          0.260993195555596E-02         -0.123905137320006E-02
  |  10         -0.936106367704883E-03          0.356485889965655E-03          0.416640736117977E-03
  |  11          0.619899185007092E-03         -0.553444707971122E-03          0.665191518101409E-03
  |  12         -0.296972379629589E-03          0.641278776505761E-03         -0.650624447029509E-04
  |  13          0.719465956269589E-03         -0.468109436808849E-03          0.694315260829819E-03
  |  14          0.149777053166152E-04          0.548408335592109E-03          0.379270577360843E-03
  |  15          0.784848112433280E-04          0.858324003715098E-04         -0.407335029840643E-03
  |  16         -0.636499820977973E-03         -0.174426456866274E-03          0.816096043366160E-04
  |  17          0.265970105730705E-02          0.298581932468491E-03         -0.404635075588361E-03
  |  18         -0.304539386014963E-02         -0.140984561449046E-02          0.118008609763945E-02
  |  19         -0.130367959101415E-02         -0.208783238847622E-02          0.155840893251548E-02
  |  20          0.100529989679304E-02         -0.697446383601418E-04         -0.142512025302388E-02
  |  21         -0.348108048859804E-03          0.113366538520506E-02          0.485843028808835E-03
  |  22          0.806782672291644E-03         -0.204874270702378E-03          0.809607264946288E-04
  |  23         -0.162284449377862E-03          0.198603267448441E-03          0.109727439894181E-02
  |  24          0.242062157338477E-03          0.472432404150571E-04          0.704227053382207E-03
  |  25         -0.115488841332887E-03         -0.148702366350567E-04          0.445989454824957E-04
  |  26          0.200123505158904E-03          0.556941005442584E-04         -0.269801838723479E-03
  |  27          0.369520976150975E-02          0.161203203233536E-03          0.120438670328784E-02
  |  28         -0.400411853544180E-02          0.130277267331903E-02         -0.184153233346292E-02
  |  29         -0.424879199534242E-03         -0.126800288910331E-03         -0.619270810707701E-03
  |  30          0.269939044614162E-03         -0.520638003907896E-04          0.101493181515634E-03
  |  31          0.568531315901919E-03         -0.802101773050730E-04          0.179521439796236E-03
  |  32          0.209233074365813E-04         -0.180430692883082E-03          0.621876748353446E-04

  ------------------------------------ 
  Start decomposition of the XC Energy 
  ------------------------------------ 
  Hartree-Fock part   :          0.000000000 Ha              0.000000000 eV
  ------------------------------------ 
  X Energy            :        -96.984004899 Ha          -2639.069047667 eV
  C Energy GGA        :         -3.868005571 Ha           -105.253786854 eV
  Total XC Energy     :       -100.852010471 Ha          -2744.322834521 eV
  LDA X and C from self-consistent density 
  X Energy LDA        :        -87.998946846 Ha          -2394.573178230 eV
  C Energy LDA        :         -7.531608193 Ha           -204.945486451 eV
  ------------------------------------ 
  End decomposition of the XC Energy 
  ------------------------------------ 
   
  ESP charge fitting starts.
  | Calculation :  00000001  of  00000001
  | Full density
  Computing multipole expansion for total density.
  Generating points for esp charges.
  Partitioning the integration grid into batches with parallel hashing+maxmin method.
  | Number of batches:     3811
  | Maximal batch size:     200
  | Minimal batch size:      91
  | Average batch size:     128.050
  | Standard deviation of batch sizes:      19.078

  Integration load balanced across    32 MPI tasks.
  Work distribution over tasks is as follows:
  Initializing partition tables, free-atom densities, potentials, etc. across the integration grid (initialize_grid_storage).
  | Original list of interatomic distances with          32 x         32 entries is created.
  | Net number of integration points:   487999
  | of which are non-zero points    :   487999
  Summing up potential from multipole expanded  density.
  Summing up the Hartree potential.
  Time summed over all CPUs for potential: real work        6.232 s, elapsed        6.467 s
  Fitting esp charges to potential.
  |
  | ESP charges fitted to the electrostatic potential :
  |
  | Atom         1: C, ESP charge:      0.70577715
  |
  | Atom         2: C, ESP charge:     -0.84572929
  |
  | Atom         3: O, ESP charge:      0.57393851
  |
  | Atom         4: H, ESP charge:     -0.19090477
  |
  | Atom         5: H, ESP charge:     -0.17874275
  |
  | Atom         6: H, ESP charge:     -0.19280096
  |
  | Atom         7: N, ESP charge:      0.83018222
  |
  | Atom         8: C, ESP charge:     -0.79020158
  |
  | Atom         9: C, ESP charge:     -0.45295664
  |
  | Atom        10: O, ESP charge:      0.51252444
  |
  | Atom        11: H, ESP charge:     -0.30606596
  |
  | Atom        12: H, ESP charge:      0.09837381
  |
  | Atom        13: C, ESP charge:      0.67599789
  |
  | Atom        14: H, ESP charge:     -0.15765692
  |
  | Atom        15: H, ESP charge:     -0.20800646
  |
  | Atom        16: H, ESP charge:     -0.16788736
  |
  | Atom        17: N, ESP charge:      0.64339908
  |
  | Atom        18: C, ESP charge:     -0.19390846
  |
  | Atom        19: C, ESP charge:     -0.22324438
  |
  | Atom        20: O, ESP charge:      0.46564373
  |
  | Atom        21: H, ESP charge:     -0.35299802
  |
  | Atom        22: H, ESP charge:     -0.04051846
  |
  | Atom        23: C, ESP charge:      0.38298539
  |
  | Atom        24: H, ESP charge:     -0.14427354
  |
  | Atom        25: H, ESP charge:     -0.10292296
  |
  | Atom        26: H, ESP charge:     -0.12723517
  |
  | Atom        27: N, ESP charge:     -0.04835505
  |
  | Atom        28: C, ESP charge:      0.20973414
  |
  | Atom        29: H, ESP charge:     -0.10596254
  |
  | Atom        30: H, ESP charge:     -0.07523910
  |
  | Atom        31: H, ESP charge:     -0.07987472
  |
  | Atom        32: H, ESP charge:     -0.11307127

  RRMS:       0.00500247

  Done.

------------------------------------------------------------------------------
  Final output of selected total energy values:

  The following output summarizes some interesting total energy values
  at the end of a run (AFTER all relaxation, molecular dynamics, etc.).

  | Total energy of the DFT / Hartree-Fock s.c.f. calculation      :         -20208.556798501 eV
  | Final zero-broadening corrected energy (caution - metals only) :         -20208.556798501 eV
  | For reference only, the value of 1 Hartree used in FHI-aims is :             27.211384500 eV

  Before relying on these values, please be sure to understand exactly which
  total energy value is referred to by a given number. Different objects may
  all carry the same name 'total energy'. Definitions:

  Total energy of the DFT / Hartree-Fock s.c.f. calculation:
  | Note that this energy does not include ANY quantities calculated after the
  | s.c.f. cycle, in particular not ANY RPA, MP2, etc. many-body perturbation terms.

  Final zero-broadening corrected energy:
  | For metallic systems only, a broadening of the occupation numbers at the Fermi
  | level can be extrapolated back to zero broadening by an electron-gas inspired
  | formula. For all systems that are not real metals, this value can be
  | meaningless and should be avoided.

------------------------------------------------------------------------------
  Methods described in the following list of references were used in this FHI-aims run.
  If you publish the results, please make sure to cite these reference if they apply.
  FHI-aims is an academic code, and for our developers (often, Ph.D. students
  and postdocs), scientific credit in the community is essential.
  Thank you for helping us!

  For any use of FHI-aims, please cite:

    Volker Blum, Ralf Gehrke, Felix Hanke, Paula Havu, Ville Havu,
    Xinguo Ren, Karsten Reuter, and Matthias Scheffler
    'Ab initio molecular simulations with numeric atom-centered orbitals'
    Computer Physics Communications 180, 2175-2196 (2009)
    http://dx.doi.org/10.1016/j.cpc.2009.06.022


  The scalable eigensolver library ELPA was used in your run.
  ELPA is essential especially for large systems on hundreds or thousands of CPUs.
  For ELPA, please cite:

    Andreas Marek, Volker Blum, Rainer Johanni, Ville Havu, Bruno Lang,
    Thomas Auckenthaler, Alexander Heinecke, Hans-Joachim Bungartz, and Hermann Lederer,
    'The ELPA Library - Scalable Parallel Eigenvalue Solutions
    for Electronic Structure Theory and Computational Science'
    The Journal of Physics: Condensed Matter 26, 213201 (2014).
    http://dx.doi.org/10.1088/0953-8984/26/21/213201


  For ELPA's efficient two-stage tridiagonalization used in your run, please cite:

    T. Auckenthaler, V. Blum, H.-J. Bungartz, T. Huckle, R. Johanni, L. Kraemer,
    B. Lang, H. Lederer, and P. R. Willems,
    'Parallel solution of partial symmetric eigenvalue problems'
    'from  electronic structure calculations'
    Parallel Computing 37, 783-794 (2011).
    http://dx.doi.org/10.1016/j.parco.2011.05.002


  For the real-space grid partitioning and parallelization used in this calculation, please cite:

    Ville Havu, Volker Blum, Paula Havu, and Matthias Scheffler,
    'Efficient O(N) integration for all-electron electronic structure calculation'
    'using numerically tabulated basis functions'
    Journal of Computational Physics 228, 8367-8379 (2009).
    http://dx.doi.org/10.1016/j.jcp.2009.08.008

  Of course, there are many other important community references, e.g., those cited in the
  above references. Our list is limited to references that describe implementations in the
  FHI-aims code. The reason is purely practical (length of this list) - please credit others as well.

------------------------------------------------------------
          Leaving FHI-aims.
          Date     :  20170309, Time     :  184255.913

          Computational steps:
          | Number of self-consistency cycles          :           14

          Detailed time accounting                     :  max(cpu_time)    wall_clock(cpu1)
          | Total time                                 :       30.006 s          30.182 s
          | Preparation time                           :        0.244 s           0.236 s
          | Grid partitioning                          :        0.340 s           0.335 s
          | Preloading free-atom quantities on grid    :        0.028 s           0.027 s
          | Free-atom superposition energy             :        0.040 s           0.038 s
          | Total time for integrations                :       10.721 s          10.699 s
          | Total time for solution of K.-S. equations :        0.532 s           0.500 s
          | Total time for density & force components  :        9.497 s           9.483 s
          | Total time for mixing                      :        0.128 s           0.106 s
          | Total time for Hartree multipole update    :        0.072 s           0.057 s
          | Total time for Hartree multipole sum       :        6.380 s           6.350 s
          | Total time for total energy evaluation     :        0.028 s           0.024 s
          | Total time for vdW correction              :        0.124 s           0.123 s

          Have a nice day.
------------------------------------------------------------
