  MPI-parallelism will be employed.
------------------------------------------------------------
          Invoking FHI-aims ...
          Version 150427
          Git rev.: 9dd23e0 BL: Update Version stamp
          Compiled on 2015/11/03 at 22:05:20 on host eos03.

          When using FHI-aims, please cite the following reference:

          Volker Blum, Ralf Gehrke, Felix Hanke, Paula Havu,
          Ville Havu, Xinguo Ren, Karsten Reuter, and Matthias Scheffler,
          'Ab Initio Molecular Simulations with Numeric Atom-Centered Orbitals: FHI-aims',
          Computer Physics Communications 180, 2175-2196 (2009)

          For any questions about FHI-aims, please visit the aimsclub website
          with its forums and wiki. Contributions to both the forums and the
          wiki are warmly encouraged - they are for you, and everyone is welcome there.

------------------------------------------------------------

  Date     :  20170309, Time     :  175725.777
  Time zero on CPU 1             :   0.392024000000000E+00  s.
  Internal wall clock time zero  :           258314245.777  s.

  Using       32 parallel tasks.
  Task        0 on host eos060 reporting.
  Task        1 on host eos060 reporting.
  Task        2 on host eos060 reporting.
  Task        3 on host eos060 reporting.
  Task        4 on host eos060 reporting.
  Task        5 on host eos060 reporting.
  Task        6 on host eos060 reporting.
  Task        7 on host eos060 reporting.
  Task        8 on host eos060 reporting.
  Task        9 on host eos060 reporting.
  Task       10 on host eos060 reporting.
  Task       11 on host eos060 reporting.
  Task       12 on host eos060 reporting.
  Task       13 on host eos060 reporting.
  Task       14 on host eos060 reporting.
  Task       15 on host eos060 reporting.
  Task       16 on host eos060 reporting.
  Task       17 on host eos060 reporting.
  Task       18 on host eos060 reporting.
  Task       19 on host eos060 reporting.
  Task       20 on host eos060 reporting.
  Task       21 on host eos060 reporting.
  Task       22 on host eos060 reporting.
  Task       23 on host eos060 reporting.
  Task       24 on host eos060 reporting.
  Task       25 on host eos060 reporting.
  Task       26 on host eos060 reporting.
  Task       27 on host eos060 reporting.
  Task       28 on host eos060 reporting.
  Task       29 on host eos060 reporting.
  Task       30 on host eos060 reporting.
  Task       31 on host eos060 reporting.

  Performing system and environment tests:
  | Environment variable OMP_NUM_THREADS correctly set to 1.
  | Stacksize not measured: no C compiler
  | Checking for scalapack...
  | Testing pdtran()...
  | All pdtran() tests passed.

  Obtaining array dimensions for all initial allocations:
  
  -----------------------------------------------------------------------
  Parsing control.in (first pass over file, find array dimensions only).
  The contents of control.in will be repeated verbatim below
  unless switched off by setting 'verbatim_writeout .false.' .
  in the first line of control.in .
  -----------------------------------------------------------------------
  
  #########################################################################################
  #
  # Input for System
  #
  #########################################################################################
  #
  #
  #  Physical model
  #
    xc                 pbe
    vdw_correction_hirshfeld
    spin               none
    charge             0.
  #
  #  SCF convergence
  #
    occupation_type    gaussian 0.05
    mixer              pulay
      n_max_pulay        10
      charge_mix_param   0.5
    sc_accuracy_rho    1E-4
    sc_accuracy_eev    1E-2
    sc_accuracy_etot   1E-5
    sc_accuracy_forces 1E-4
    sc_iter_limit      1000
  #
  #  ESP charge
  #
    output esp
    esp equal_grid_n 80 80 80
  #
  #
  ################################################################################
  #
  #  FHI-aims code project
  # Volker Blum, Fritz Haber Institute Berlin, 2009
  #
  #  Suggested "tight" defaults for H atom (to be pasted into control.in file)
  #
  ################################################################################
    species        H
  #     global species definitions
      nucleus             1
      mass                1.00794
  #
      l_hartree           6
  #
      cut_pot             4.0  2.0  1.0
      basis_dep_cutoff    1e-4
  #
      radial_base         24 7.0
      radial_multiplier   2
      angular_grids       specified
        division   0.1930   50
        division   0.3175  110
        division   0.4293  194
        division   0.5066  302
        division   0.5626  434
  #      division   0.5922  590
  #      division   0.6227  974
  #      division   0.6868 1202
  #      outer_grid  770
        outer_grid  434
  ################################################################################
  #
  #  Definition of "minimal" basis
  #
  ################################################################################
  #     valence basis states
      valence      1  s   1.
  #     ion occupancy
      ion_occ      1  s   0.5
  ################################################################################
  #
  #  Suggested additional basis functions. For production calculations,
  #  uncomment them one after another (the most important basis functions are
  #  listed first).
  #
  #  Basis constructed for dimers: 0.5 A, 0.7 A, 1.0 A, 1.5 A, 2.5 A
  #
  ################################################################################
  #  "First tier" - improvements: -1014.90 meV to -62.69 meV
       hydro 2 s 2.1
       hydro 2 p 3.5
  #  "Second tier" - improvements: -12.89 meV to -1.83 meV
       hydro 1 s 0.85
       hydro 2 p 3.7
       hydro 2 s 1.2
       hydro 3 d 7
  #  "Third tier" - improvements: -0.25 meV to -0.12 meV
  #     hydro 4 f 11.2
  #     hydro 3 p 4.8
  #     hydro 4 d 9
  #     hydro 3 s 3.2
  ################################################################################
  #
  # For methods that use the localized form of the "resolution of identity" for
  # the two-electron Coulomb operator (RI_method LVL), particularly Hartree-Fock and
  # hybrid density functional calculations, the highest accuracy can be obtained by
  # uncommenting the line beginning with "for_aux"  below, thus adding an extra g radial
  # function to the construction of the product basis set for the expansion.
  # See Ref. New J. Phys. 17, 093020 (2015) for more information, particularly Figs. 1 and 6.
  #
  ################################################################################
  #
  # for_aux hydro 5 g 6.0
  ################################################################################
  #
  #  FHI-aims code project
  # Volker Blum, Fritz Haber Institute Berlin, 2009
  #
  #  Suggested "tight" defaults for C atom (to be pasted into control.in file)
  #
  ################################################################################
    species        C
  #     global species definitions
      nucleus             6
      mass                12.0107
  #
      l_hartree           6
  #
      cut_pot             4.0  2.0  1.0
      basis_dep_cutoff    1e-4
  #
      radial_base         34 7.0
      radial_multiplier   2
      angular_grids specified
        division   0.2187   50
        division   0.4416  110
        division   0.6335  194
        division   0.7727  302
        division   0.8772  434
  #      division   0.9334  590
  #      division   0.9924  770
  #      division   1.0230  974
  #      division   1.5020 1202
  #     outer_grid  974
        outer_grid  434
  ################################################################################
  #
  #  Definition of "minimal" basis
  #
  ################################################################################
  #     valence basis states
      valence      2  s   2.
      valence      2  p   2.
  #     ion occupancy
      ion_occ      2  s   1.
      ion_occ      2  p   1.
  ################################################################################
  #
  #  Suggested additional basis functions. For production calculations,
  #  uncomment them one after another (the most important basis functions are
  #  listed first).
  #
  #  Constructed for dimers: 1.0 A, 1.25 A, 1.5 A, 2.0 A, 3.0 A
  #
  ################################################################################
  #  "First tier" - improvements: -1214.57 meV to -155.61 meV
       hydro 2 p 1.7
       hydro 3 d 6
       hydro 2 s 4.9
  #  "Second tier" - improvements: -67.75 meV to -5.23 meV
       hydro 4 f 9.8
       hydro 3 p 5.2
       hydro 3 s 4.3
       hydro 5 g 14.4
       hydro 3 d 6.2
  #  "Third tier" - improvements: -2.43 meV to -0.60 meV
  #     hydro 2 p 5.6
  #     hydro 2 s 1.4
  #     hydro 3 d 4.9
  #     hydro 4 f 11.2
  #  "Fourth tier" - improvements: -0.39 meV to -0.18 meV
  #     hydro 2 p 2.1
  #     hydro 5 g 16.4
  #     hydro 4 d 13.2
  #     hydro 3 s 13.6
  #     hydro 4 f 17.6
  #  Further basis functions - improvements: -0.08 meV and below
  #     hydro 3 s 2
  #     hydro 3 p 6
  #     hydro 4 d 20
  ################################################################################
  #
  # For methods that use the localized form of the "resolution of identity" for
  # the two-electron Coulomb operator (RI_method LVL), particularly Hartree-Fock and
  # hybrid density functional calculations, the highest accuracy can be obtained by
  # uncommenting the line beginning with "for_aux"  below, thus adding an extra g radial
  # function to the construction of the product basis set for the expansion.
  # See Ref. New J. Phys. 17, 093020 (2015) for more information, particularly Figs. 1 and 6.
  #
  ################################################################################
  #
  # for_aux hydro 5 g 6.0
  ################################################################################
  #
  #  FHI-aims code project
  # Volker Blum, Fritz Haber Institute Berlin, 2009
  #
  #  Suggested "tight" defaults for N atom (to be pasted into control.in file)
  #
  ################################################################################
    species        N
  #     global species definitions
      nucleus             7
      mass                14.0067
  #
      l_hartree           6
  #
      cut_pot             4.0  2.0  1.0
      basis_dep_cutoff    1e-4
  #
      radial_base         35 7.0
      radial_multiplier   2
      angular_grids       specified
        division   0.1841   50
        division   0.3514  110
        division   0.5126  194
        division   0.6292  302
        division   0.6939  434
  #      division   0.7396  590
  #      division   0.7632  770
  #      division   0.8122  974
  #      division   1.1604 1202
  #      outer_grid  974
        outer_grid  434
  ################################################################################
  #
  #  Definition of "minimal" basis
  #
  ################################################################################
  #     valence basis states
      valence      2  s   2.
      valence      2  p   3.
  #     ion occupancy
      ion_occ      2  s   1.
      ion_occ      2  p   2.
  ################################################################################
  #
  #  Suggested additional basis functions. For production calculations,
  #  uncomment them one after another (the most important basis functions are
  #  listed first).
  #
  #  Constructed for dimers: 1.0 A, 1.1 A, 1.5 A, 2.0 A, 3.0 A
  #
  ################################################################################
  #  "First tier" - improvements: -1193.42 meV to -220.60 meV
       hydro 2 p 1.8
       hydro 3 d 6.8
       hydro 3 s 5.8
  #  "Second tier" - improvements: -80.21 meV to -6.86 meV
       hydro 4 f 10.8
       hydro 3 p 5.8
       hydro 1 s 0.8
       hydro 5 g 16
       hydro 3 d 4.9
  #  "Third tier" - improvements: -4.29 meV to -0.53 meV
  #     hydro 3 s 16
  #     ionic 2 p auto
  #     hydro 3 d 6.6
  #     hydro 4 f 11.6
  #  "Fourth tier" - improvements: -0.75 meV to -0.25 meV
  #     hydro 2 p 4.5
  #     hydro 2 s 2.4
  #     hydro 5 g 14.4
  #     hydro 4 d 14.4
  #     hydro 4 f 16.8
  # Further basis functions - -0.21 meV and below
  #     hydro 3 p 14.8
  #     hydro 3 s 4.4
  #     hydro 3 d 19.6
  #     hydro 5 g 12.8
  ################################################################################
  #
  # For methods that use the localized form of the "resolution of identity" for
  # the two-electron Coulomb operator (RI_method LVL), particularly Hartree-Fock and
  # hybrid density functional calculations, the highest accuracy can be obtained by
  # uncommenting the line beginning with "for_aux"  below, thus adding an extra g radial
  # function to the construction of the product basis set for the expansion.
  # See Ref. New J. Phys. 17, 093020 (2015) for more information, particularly Figs. 1 and 6.
  #
  ################################################################################
  #
  # for_aux hydro 5 g 6.0
  ################################################################################
  #
  #  FHI-aims code project
  # Volker Blum, Fritz Haber Institute Berlin, 2009
  #
  #  Suggested "tight" defaults for O atom (to be pasted into control.in file)
  #
  ################################################################################
    species        O
  #     global species definitions
      nucleus             8
      mass                15.9994
  #
      l_hartree           6
  #
      cut_pot             4.0  2.0  1.0
      basis_dep_cutoff    1e-4
  #
      radial_base         36 7.0
      radial_multiplier   2
       angular_grids specified
        division   0.1817   50
        division   0.3417  110
        division   0.4949  194
        division   0.6251  302
        division   0.8014  434
  #      division   0.8507  590
  #      division   0.8762  770
  #      division   0.9023  974
  #      division   1.2339 1202
  #      outer_grid 974
        outer_grid  434
  ################################################################################
  #
  #  Definition of "minimal" basis
  #
  ################################################################################
  #     valence basis states
      valence      2  s   2.
      valence      2  p   4.
  #     ion occupancy
      ion_occ      2  s   1.
      ion_occ      2  p   3.
  ################################################################################
  #
  #  Suggested additional basis functions. For production calculations,
  #  uncomment them one after another (the most important basis functions are
  #  listed first).
  #
  #  Constructed for dimers: 1.0 A, 1.208 A, 1.5 A, 2.0 A, 3.0 A
  #
  ################################################################################
  #  "First tier" - improvements: -699.05 meV to -159.38 meV
       hydro 2 p 1.8
       hydro 3 d 7.6
       hydro 3 s 6.4
  #  "Second tier" - improvements: -49.91 meV to -5.39 meV
       hydro 4 f 11.6
       hydro 3 p 6.2
       hydro 3 d 5.6
       hydro 5 g 17.6
       hydro 1 s 0.75
  #  "Third tier" - improvements: -2.83 meV to -0.50 meV
  #     ionic 2 p auto
  #     hydro 4 f 10.8
  #     hydro 4 d 4.7
  #     hydro 2 s 6.8
  #  "Fourth tier" - improvements: -0.40 meV to -0.12 meV
  #     hydro 3 p 5
  #     hydro 3 s 3.3
  #     hydro 5 g 15.6
  #     hydro 4 f 17.6
  #     hydro 4 d 14
  # Further basis functions - -0.08 meV and below
  #     hydro 3 s 2.1
  #     hydro 4 d 11.6
  #     hydro 3 p 16
  #     hydro 2 s 17.2
  ################################################################################
  #
  # For methods that use the localized form of the "resolution of identity" for
  # the two-electron Coulomb operator (RI_method LVL), particularly Hartree-Fock and
  # hybrid density functional calculations, the highest accuracy can be obtained by
  # uncommenting the line beginning with "for_aux"  below, thus adding an extra g radial
  # function to the construction of the product basis set for the expansion.
  # See Ref. New J. Phys. 17, 093020 (2015) for more information, particularly Figs. 1 and 6.
  #
  ################################################################################
  #
  # for_aux hydro 5 g 6.0
  
  -----------------------------------------------------------------------
  Completed first pass over input file control.in .
  -----------------------------------------------------------------------
  
  
  -----------------------------------------------------------------------
  Parsing geometry.in (first pass over file, find array dimensions only).
  The contents of geometry.in will be repeated verbatim below
  unless switched off by setting 'verbatim_writeout .false.' .
  in the first line of geometry.in .
  -----------------------------------------------------------------------
  
  #
  # This is the geometry file that corresponds to the current relaxation step.
  # If you do not want this file to be written, set the "write_restart_geometry" flag to .false.
  #
  atom      -0.62989640      0.76009308     -0.54747946 C
  atom      -0.18582811      1.02033869      0.87717608 C
  atom       0.83745761      1.67058001      1.12850435 O
  atom       0.23973956      0.88861438     -1.19807405 H
  atom      -1.38665108      1.49962558     -0.85139992 H
  atom      -1.05827980     -0.23883852     -0.69098222 H
  atom      -0.96579004      0.53252453      1.88656771 N
  atom      -2.36946271      0.11341036      1.79739207 C
  atom      -3.16529232      0.75873656      2.96624616 C
  atom      -3.71559601      0.05809132      3.81121248 O
  atom      -0.59853128      0.72435443      2.81674172 H
  atom      -2.77635102      0.52131869      0.85926686 H
  atom      -2.53027842     -1.40333512      1.80299173 C
  atom      -3.58560042     -1.68170439      1.69918255 H
  atom      -2.16588960     -1.82719068      2.74576903 H
  atom      -1.96200986     -1.84263157      0.97313491 H
  atom      -3.22963259      2.12221564      3.02209069 N
  atom      -2.61881986      3.15490200      2.18105416 C
  atom      -1.67374511      3.97944459      3.08767755 C
  atom      -2.14237614      4.68515130      3.98302919 O
  atom      -3.70529956      2.47161631      3.85344903 H
  atom      -2.04757370      2.66364320      1.38898824 H
  atom      -3.68080472      4.05992706      1.55501521 C
  atom      -3.21042873      4.81169135      0.90705003 H
  atom      -4.23582731      4.59059499      2.33862908 H
  atom      -4.38369423      3.46656919      0.95656658 H
  atom      -0.34680349      3.84864265      2.85348182 N
  atom       0.63234806      4.53066680      3.68496656 C
  atom       0.00796356      3.18863297      2.15814298 H
  atom       1.63188819      4.21093723      3.37377128 H
  atom       0.48483073      4.28827929      4.74638234 H
  atom       0.55129984      5.62098708      3.57695223 H
  
  -----------------------------------------------------------------------
  Completed first pass over input file geometry.in .
  -----------------------------------------------------------------------
  

  Basic array size parameters:
  | Number of species                 :        4
  | Number of atoms                   :       32
  | Max. basis fn. angular momentum   :        4
  | Max. atomic/ionic basis occupied n:        2
  | Max. number of basis fn. types    :        2
  | Max. radial fns per species/type  :        8
  | Max. logarithmic grid size        :     1301
  | Max. radial integration grid size :       73
  | Max. angular integration grid size:      434
  | Max. angular grid division number :        8
  | Radial grid for Hartree potential :     1301
  | Number of spin channels           :        1

------------------------------------------------------------
          Reading file control.in.
------------------------------------------------------------
  XC: Using PBE gradient-corrected functionals.
  Spin treatment: No spin polarisation.
  Charge =   0.000000E+00: Neutral system requested explicitly.
  Occupation type: Gaussian broadening, width =   0.500000E-01 eV.
  Using pulay charge density mixing.
  Pulay mixing - number of memorized iterations:   10
  Charge density mixing - mixing parameter:     0.5000
  Convergence accuracy of self-consistent charge density:  0.1000E-03
  Convergence accuracy of sum of eigenvalues:  0.1000E-01
  Convergence accuracy of total energy:  0.1000E-04
  Convergence accuracy of forces:  0.1000E-03
  Maximum number of s.-c. iterations  :  1000
  Fitting ESP-charges to Potential. 
  | Esp charge output options: 
  | ESP Grid method: 3, cubic grid
  | Number of points in x, ,y, z:  0080 0080 0080
  |
 
  Reading configuration options for species H                   .
  | Found nuclear charge :   1.0000
  | Found atomic mass :    1.00794000000000      amu
  | Found l_max for Hartree potential  :   6
  | Found cutoff potl. onset [A], width [A], scale factor :    4.00000    2.00000    1.00000
  | Threshold for basis-dependent cutoff potential is   0.100000E-03
  | Found data for basic radial integration grid :    24 points, outermost radius =    7.000 A
  | Found multiplier for basic radial grid :   2
  | Found angular grid specification: user-specified.
  | Specified grid contains     6 separate shells.
  | Check grid settings after all constraints further below.
  | Found free-atom valence shell :  1 s   1.000
  | No ionic wave fns used. Skipping ion_occ.
  | Found hydrogenic basis function :  2 s   2.100
  | Found hydrogenic basis function :  2 p   3.500
  | Found hydrogenic basis function :  1 s   0.850
  | Found hydrogenic basis function :  2 p   3.700
  | Found hydrogenic basis function :  2 s   1.200
  | Found hydrogenic basis function :  3 d   7.000
  Species H                   : Missing cutoff potential type.
  Defaulting to exp(1/x)/(1-x)^2 type cutoff potential.
  Species H : No 'logarithmic' tag. Using default grid for free atom:
  | Default logarithmic grid data [bohr] : 0.1000E-03 0.1000E+03 0.1012E+01
  Species H : On-site basis accuracy parameter (for Gram-Schmidt orthonormalisation) not specified.
  Using default value basis_acc =  0.1000000E-03.
  Species H                   : Using default innermost maximum threshold i_radial=  2 for radial functions.
  Species H                   : Default cutoff onset for free atom density etc. : 0.40000000E+01 AA.
  Species H                   : Basic radial grid will be enhanced according to radial_multiplier =   2, to contain    49 grid points.
 
  Reading configuration options for species C                   .
  | Found nuclear charge :   6.0000
  | Found atomic mass :    12.0107000000000      amu
  | Found l_max for Hartree potential  :   6
  | Found cutoff potl. onset [A], width [A], scale factor :    4.00000    2.00000    1.00000
  | Threshold for basis-dependent cutoff potential is   0.100000E-03
  | Found data for basic radial integration grid :    34 points, outermost radius =    7.000 A
  | Found multiplier for basic radial grid :   2
  | Found angular grid specification: user-specified.
  | Specified grid contains     6 separate shells.
  | Check grid settings after all constraints further below.
  | Found free-atom valence shell :  2 s   2.000
  | Found free-atom valence shell :  2 p   2.000
  | No ionic wave fns used. Skipping ion_occ.
  | No ionic wave fns used. Skipping ion_occ.
  | Found hydrogenic basis function :  2 p   1.700
  | Found hydrogenic basis function :  3 d   6.000
  | Found hydrogenic basis function :  2 s   4.900
  | Found hydrogenic basis function :  4 f   9.800
  | Found hydrogenic basis function :  3 p   5.200
  | Found hydrogenic basis function :  3 s   4.300
  | Found hydrogenic basis function :  5 g  14.400
  | Found hydrogenic basis function :  3 d   6.200
  Species C                   : Missing cutoff potential type.
  Defaulting to exp(1/x)/(1-x)^2 type cutoff potential.
  Species C : No 'logarithmic' tag. Using default grid for free atom:
  | Default logarithmic grid data [bohr] : 0.1000E-03 0.1000E+03 0.1012E+01
  Species C : On-site basis accuracy parameter (for Gram-Schmidt orthonormalisation) not specified.
  Using default value basis_acc =  0.1000000E-03.
  Species C                   : Using default innermost maximum threshold i_radial=  2 for radial functions.
  Species C                   : Default cutoff onset for free atom density etc. : 0.40000000E+01 AA.
  Species C                   : Basic radial grid will be enhanced according to radial_multiplier =   2, to contain    69 grid points.
 
  Reading configuration options for species N                   .
  | Found nuclear charge :   7.0000
  | Found atomic mass :    14.0067000000000      amu
  | Found l_max for Hartree potential  :   6
  | Found cutoff potl. onset [A], width [A], scale factor :    4.00000    2.00000    1.00000
  | Threshold for basis-dependent cutoff potential is   0.100000E-03
  | Found data for basic radial integration grid :    35 points, outermost radius =    7.000 A
  | Found multiplier for basic radial grid :   2
  | Found angular grid specification: user-specified.
  | Specified grid contains     6 separate shells.
  | Check grid settings after all constraints further below.
  | Found free-atom valence shell :  2 s   2.000
  | Found free-atom valence shell :  2 p   3.000
  | No ionic wave fns used. Skipping ion_occ.
  | No ionic wave fns used. Skipping ion_occ.
  | Found hydrogenic basis function :  2 p   1.800
  | Found hydrogenic basis function :  3 d   6.800
  | Found hydrogenic basis function :  3 s   5.800
  | Found hydrogenic basis function :  4 f  10.800
  | Found hydrogenic basis function :  3 p   5.800
  | Found hydrogenic basis function :  1 s   0.800
  | Found hydrogenic basis function :  5 g  16.000
  | Found hydrogenic basis function :  3 d   4.900
  Species N                   : Missing cutoff potential type.
  Defaulting to exp(1/x)/(1-x)^2 type cutoff potential.
  Species N : No 'logarithmic' tag. Using default grid for free atom:
  | Default logarithmic grid data [bohr] : 0.1000E-03 0.1000E+03 0.1012E+01
  Species N : On-site basis accuracy parameter (for Gram-Schmidt orthonormalisation) not specified.
  Using default value basis_acc =  0.1000000E-03.
  Species N                   : Using default innermost maximum threshold i_radial=  2 for radial functions.
  Species N                   : Default cutoff onset for free atom density etc. : 0.40000000E+01 AA.
  Species N                   : Basic radial grid will be enhanced according to radial_multiplier =   2, to contain    71 grid points.
 
  Reading configuration options for species O                   .
  | Found nuclear charge :   8.0000
  | Found atomic mass :    15.9994000000000      amu
  | Found l_max for Hartree potential  :   6
  | Found cutoff potl. onset [A], width [A], scale factor :    4.00000    2.00000    1.00000
  | Threshold for basis-dependent cutoff potential is   0.100000E-03
  | Found data for basic radial integration grid :    36 points, outermost radius =    7.000 A
  | Found multiplier for basic radial grid :   2
  | Found angular grid specification: user-specified.
  | Specified grid contains     6 separate shells.
  | Check grid settings after all constraints further below.
  | Found free-atom valence shell :  2 s   2.000
  | Found free-atom valence shell :  2 p   4.000
  | No ionic wave fns used. Skipping ion_occ.
  | No ionic wave fns used. Skipping ion_occ.
  | Found hydrogenic basis function :  2 p   1.800
  | Found hydrogenic basis function :  3 d   7.600
  | Found hydrogenic basis function :  3 s   6.400
  | Found hydrogenic basis function :  4 f  11.600
  | Found hydrogenic basis function :  3 p   6.200
  | Found hydrogenic basis function :  3 d   5.600
  | Found hydrogenic basis function :  5 g  17.600
  | Found hydrogenic basis function :  1 s   0.750
  Species O                   : Missing cutoff potential type.
  Defaulting to exp(1/x)/(1-x)^2 type cutoff potential.
  Species O : No 'logarithmic' tag. Using default grid for free atom:
  | Default logarithmic grid data [bohr] : 0.1000E-03 0.1000E+03 0.1012E+01
  Species O : On-site basis accuracy parameter (for Gram-Schmidt orthonormalisation) not specified.
  Using default value basis_acc =  0.1000000E-03.
  Species O                   : Using default innermost maximum threshold i_radial=  2 for radial functions.
  Species O                   : Default cutoff onset for free atom density etc. : 0.40000000E+01 AA.
  Species O                   : Basic radial grid will be enhanced according to radial_multiplier =   2, to contain    73 grid points.
 
  Finished reading input file 'control.in'. Consistency checks are next.
 
  Target number of points in a grid batch is not set. Defaulting to  100
  Method for grid partitioning is not set. Defaulting to parallel hash+maxmin partitioning.
  Batch size limit is not set. Defaulting to    200
  By default, will store active basis functions for each batch.
  If in need of memory, prune_basis_once .false. can be used to disable this option.
  communication_type for Hartree potential was not specified.
  Defaulting to calc_hartree .
  Pulay mixer: Number of initial linear mixing iterations not set.
  Defaulting to    0 iterations.
  Work space size for distributed Hartree potential not set.
  Defaulting to   0.200000E+03 MB.
  Algorithm-dependent basis array size parameters:
  | n_max_pulay                         :       10
  Geometry relaxation not requested: no relaxation will be performed.
  Handling of forces: Unphysical translation and rotation will be removed from forces.
  No accuracy limit for integral partition fn. given. Defaulting to  0.1000E-14.
  No threshold value for u(r) in integrations given. Defaulting to  0.1000E-05.
  No accuracy for occupation numbers given. Defaulting to  0.1000E-07.
  No threshold value for occupation numbers given. Defaulting to  0.0000E+00.
  No accuracy for fermi level given. Defaulting to  0.1000E-19.
  Maximum # of iterations to find E_F not set. Defaulting to  200.
  Preferred method for the eigenvalue solver ('KS_method') not specified in 'control.in'.
  Calling blacs routine to test compilation state
  Since scalapack support is enabled, defaulting to 'elpa'.
  Preferred method for the MBD eigenvalue solver ('mbd_eigensolver') not specified in 'control.in'.
  Calling blacs routine to test compilation state
  Since scalapack support is enabled, defaulting to 'scaLAPACK'.
  Will not use alltoall communication since running on < 1024 CPUs.
  Threshold for basis singularities not set.
  Default threshold for basis singularities:  0.1000E-04
  partition_type (choice of integration weights) for integrals was not specified.
  | Using a version of the partition function of Stratmann and coworkers ('stratmann_smoother').
  | At each grid point, the set of atoms used to build the partition table is smoothly restricted to
  | only those atoms whose free-atom density would be non-zero at that grid point.
  Partitioning for Hartree potential was not defined. Using partition_type for integrals.
  | Adjusted default value of keyword multip_moments_threshold to:       0.10000000E-11
  | This value may affect high angular momentum components of the Hartree potential in periodic systems.
  No q(lm)/r^(l+1) cutoff set for long-range Hartree potential.
  | Using default value of  0.100000E-09 .
  | Verify using the multipole_threshold keyword.
  Defaulting to new monopole extrapolation.
  Density update method: automatic selection selected.
------------------------------------------------------------


------------------------------------------------------------
          Reading geometry description geometry.in.
------------------------------------------------------------
 * Warning! You did not set the 'relativistic' flag in input file 'control.in'.
 * Since you are not attempting to treat any elements beyond Ca(Z=20), FHI-aims
 * will default to 'relativistic none'.
 * You must ensure that this is really what you want!!
 * For example, DO NOT compute total-energy differences between results from
 * different settings of the 'relativistic' flag.
  Input structure read successfully.
  The structure contains       32 atoms,  and a total of        116.000 electrons.

  Input geometry:
  | No unit cell requested.
  | Atomic structure:
  |       Atom                x [A]            y [A]            z [A]
  |    1: Species C             -0.629896         0.760093        -0.547479
  |    2: Species C             -0.185828         1.020339         0.877176
  |    3: Species O              0.837458         1.670580         1.128504
  |    4: Species H              0.239740         0.888614        -1.198074
  |    5: Species H             -1.386651         1.499626        -0.851400
  |    6: Species H             -1.058280        -0.238839        -0.690982
  |    7: Species N             -0.965790         0.532525         1.886568
  |    8: Species C             -2.369463         0.113410         1.797392
  |    9: Species C             -3.165292         0.758737         2.966246
  |   10: Species O             -3.715596         0.058091         3.811212
  |   11: Species H             -0.598531         0.724354         2.816742
  |   12: Species H             -2.776351         0.521319         0.859267
  |   13: Species C             -2.530278        -1.403335         1.802992
  |   14: Species H             -3.585600        -1.681704         1.699183
  |   15: Species H             -2.165890        -1.827191         2.745769
  |   16: Species H             -1.962010        -1.842632         0.973135
  |   17: Species N             -3.229633         2.122216         3.022091
  |   18: Species C             -2.618820         3.154902         2.181054
  |   19: Species C             -1.673745         3.979445         3.087678
  |   20: Species O             -2.142376         4.685151         3.983029
  |   21: Species H             -3.705300         2.471616         3.853449
  |   22: Species H             -2.047574         2.663643         1.388988
  |   23: Species C             -3.680805         4.059927         1.555015
  |   24: Species H             -3.210429         4.811691         0.907050
  |   25: Species H             -4.235827         4.590595         2.338629
  |   26: Species H             -4.383694         3.466569         0.956567
  |   27: Species N             -0.346803         3.848643         2.853482
  |   28: Species C              0.632348         4.530667         3.684967
  |   29: Species H              0.007964         3.188633         2.158143
  |   30: Species H              1.631888         4.210937         3.373771
  |   31: Species H              0.484831         4.288279         4.746382
  |   32: Species H              0.551300         5.620987         3.576952
  |

  | The smallest distance between any two atoms is         1.01828355 AA.
  |
  | The first atom of this pair is atom number                      7 .
  | The second atom of this pair is atom number                    11 .

  Number of empty states per atom not set in control.in - providing a guess from actual geometry.
  | Total number of empty states used during s.c.f. cycle:       71
  If you use a very high smearing, use empty_states (per atom!) in control.in to increase this value.

  Structure-dependent array size parameters: 
  | Maximum number of distinct radial functions  :       40
  | Maximum number of basis functions            :      840
  | Number of Kohn-Sham states (occupied + empty):      129
------------------------------------------------------------

------------------------------------------------------------
          Preparing all fixed parts of the calculation.
------------------------------------------------------------
  Determining machine precision:
    2.225073858507201E-308
  Setting up grids for atomic and cluster calculations.

  Creating wave function, potential, and density for free atoms.

  Species: H

  List of occupied orbitals and eigenvalues:
    n    l              occ      energy [Ha]    energy [eV]
    1    0           1.0000        -0.238382        -6.4867


  Species: C

  List of occupied orbitals and eigenvalues:
    n    l              occ      energy [Ha]    energy [eV]
    1    0           2.0000       -10.041232      -273.2358
    2    0           2.0000        -0.504327       -13.7234
    2    1           2.0000        -0.193750        -5.2722


  Species: N

  List of occupied orbitals and eigenvalues:
    n    l              occ      energy [Ha]    energy [eV]
    1    0           2.0000       -14.129007      -384.4699
    2    0           2.0000        -0.681802       -18.5528
    2    1           3.0000        -0.260543        -7.0897


  Species: O

  List of occupied orbitals and eigenvalues:
    n    l              occ      energy [Ha]    energy [eV]
    1    0           2.0000       -18.898576      -514.2564
    2    0           2.0000        -0.878795       -23.9132
    2    1           4.0000        -0.332075        -9.0362

  Creating fixed part of basis set: Ionic, confined, hydrogenic.
 
  H                    hydrogenic:
 
  List of hydrogenic basis orbitals: 
    n    l      effective z      eigenvalue [eV]  inner max. [A]     outer max. [A]     outer radius [A]   
    2    0         2.100000       -14.9965           0.193243           1.317208           5.373006
    2    1         3.500000       -41.6672           0.602369           0.602369           4.056063
    1    0         0.850000        -9.8292           0.624871           0.624871           5.373006
    2    1         3.700000       -46.5653           0.573622           0.573622           3.910002
    2    0         1.200000        -4.5995           0.334980           2.228188           5.505995
    3    2         7.000000       -74.0753           0.680699           0.680699           3.769201
 
 
  C                    hydrogenic:
 
  List of hydrogenic basis orbitals: 
    n    l      effective z      eigenvalue [eV]  inner max. [A]     outer max. [A]     outer radius [A]   
    2    1         1.700000        -9.8152           1.245706           1.245706           5.401630
    3    2         6.000000       -54.4226           0.792453           0.792453           4.178599
    2    0         4.900000       -81.6681           0.082559           0.562749           3.353238
    4    3         9.800000       -81.6681           0.863254           0.863254           4.028125
    3    1         5.200000       -40.8774           0.305389           1.215618           4.898362
    3    0         4.300000       -27.9508           0.091041           1.610311           5.401630
    5    4        14.400000      -112.8510           0.917666           0.917666           3.883070
    3    2         6.200000       -58.1113           0.763917           0.763917           4.077671
 
 
  N                    hydrogenic:
 
  List of hydrogenic basis orbitals: 
    n    l      effective z      eigenvalue [eV]  inner max. [A]     outer max. [A]     outer radius [A]   
    2    1         1.800000       -11.0118           1.177451           1.177451           5.427479
    3    2         6.800000       -69.9029           0.704619           0.704619           3.854246
    3    0         5.800000       -50.8549           0.067388           1.191934           4.629968
    4    3        10.800000       -99.1854           0.786571           0.786571           3.761152
    3    1         5.800000       -50.8549           0.274880           1.094176           4.518138
    1    0         0.800000        -8.7059           0.662839           0.662839           5.361532
    5    4        16.000000      -139.3222           0.825990           0.825990           3.625711
    3    2         4.900000       -36.2967           0.968267           0.968267           4.862000
 
 
  O                    hydrogenic:
 
  List of hydrogenic basis orbitals: 
    n    l      effective z      eigenvalue [eV]  inner max. [A]     outer max. [A]     outer radius [A]   
    2    1         1.800000       -11.0118           1.178562           1.178562           5.432602
    3    2         7.600000       -87.3182           0.624125           0.624125           3.541477
    3    0         6.400000       -61.9209           0.061167           1.081902           4.306578
    4    3        11.600000      -114.4238           0.731631           0.731631           3.585037
    3    1         6.200000       -58.1113           0.255680           1.030270           4.306578
    3    2         5.600000       -47.4081           0.847233           0.847233           4.413171
    5    4        17.600000      -168.5799           0.749740           0.749740           3.372465
    1    0         0.750000        -7.6499           0.705284           0.705284           5.366593
 

  Adding cutoff potential to free-atom effective potential.
  Creating atomic-like basis functions for current effective potential.

  Species H                   :

  List of atomic basis orbitals and eigenvalues:
    n    l      energy [Ha]    energy [eV]    outer radius [A]
    1    0        -0.238382        -6.4867       5.373006


  Species C                   :

  List of atomic basis orbitals and eigenvalues:
    n    l      energy [Ha]    energy [eV]    outer radius [A]
    1    0       -10.041232      -273.2358       1.934409
    2    0        -0.504327       -13.7234       5.271162
    2    1        -0.193750        -5.2722       5.401630


  Species N                   :

  List of atomic basis orbitals and eigenvalues:
    n    l      energy [Ha]    energy [eV]    outer radius [A]
    1    0       -14.129007      -384.4699       1.637919
    2    0        -0.681802       -18.5528       5.168461
    2    1        -0.260543        -7.0897       5.361532


  Species O                   :

  List of atomic basis orbitals and eigenvalues:
    n    l      energy [Ha]    energy [eV]    outer radius [A]
    1    0       -18.898576      -514.2564       1.415765
    2    0        -0.878795       -23.9132       5.048385
    2    1        -0.332075        -9.0362       5.301386

  Assembling full basis from fixed parts.
  | Species H :   atomic orbital   1 s accepted.
  | Species H :    hydro orbital   2 s accepted.
  | Species H :    hydro orbital   1 s accepted.
  | Species H :    hydro orbital   2 s accepted.
  | Species H :    hydro orbital   2 p accepted.
  | Species H :    hydro orbital   2 p accepted.
  | Species H :    hydro orbital   3 d accepted.
  | Species C :   atomic orbital   1 s accepted.
  | Species C :    hydro orbital   2 s accepted.
  | Species C :   atomic orbital   2 s accepted.
  | Species C :    hydro orbital   3 s accepted.
  | Species C :    hydro orbital   3 p accepted.
  | Species C :   atomic orbital   2 p accepted.
  | Species C :    hydro orbital   2 p accepted.
  | Species C :    hydro orbital   3 d accepted.
  | Species C :    hydro orbital   3 d accepted.
  | Species C :    hydro orbital   4 f accepted.
  | Species C :    hydro orbital   5 g accepted.
  | Species N :   atomic orbital   1 s accepted.
  | Species N :    hydro orbital   3 s accepted.
  | Species N :   atomic orbital   2 s accepted.
  | Species N :    hydro orbital   1 s accepted.
  | Species N :    hydro orbital   3 p accepted.
  | Species N :   atomic orbital   2 p accepted.
  | Species N :    hydro orbital   2 p accepted.
  | Species N :    hydro orbital   3 d accepted.
  | Species N :    hydro orbital   3 d accepted.
  | Species N :    hydro orbital   4 f accepted.
  | Species N :    hydro orbital   5 g accepted.
  | Species O :   atomic orbital   1 s accepted.
  | Species O :    hydro orbital   3 s accepted.
  | Species O :   atomic orbital   2 s accepted.
  | Species O :    hydro orbital   1 s accepted.
  | Species O :    hydro orbital   3 p accepted.
  | Species O :   atomic orbital   2 p accepted.
  | Species O :    hydro orbital   2 p accepted.
  | Species O :    hydro orbital   3 d accepted.
  | Species O :    hydro orbital   3 d accepted.
  | Species O :    hydro orbital   4 f accepted.
  | Species O :    hydro orbital   5 g accepted.
 
  Basis size parameters after reduction:
  | Total number of radial functions:       40
  | Total number of basis functions :      840
 
  Testing on-site integration grid accuracy.
  |  Species  Function  <phi|h_atom|phi> (log., in eV)  <phi|h_atom|phi> (rad., in eV)
           1        1                 -6.4869821809                 -6.4870742227
           1        2                 13.5044133542                 13.5041049177
           1        3                 32.7854418792                 32.7779770519
           1        4                 33.7995553101                 33.7152624900 ***
           1        5                 28.8558651799                 28.8558652046
           1        6                 59.6361831893                 59.6362535845
           1        7                 60.2733718049                 60.2733715484
           2        8               -273.2358277112               -273.2358261765
           2        9                -10.7624923123                -10.7625144012
           2       10                 17.4634079027                 17.4634252127
           2       11                 53.0363661832                 53.0366180446
           2       12                 15.0981351967                 15.0981317714
           2       13                  3.8522181899                  3.8522770949
           2       14                 12.1181835661                 12.1206868578
           2       15                 29.4320778347                 29.4320780959
           2       16                 54.8753777694                 54.8752901936
           2       17                 59.3533975461                 59.3533974833
           2       18                 93.4537491195                 93.4537492066
           3       19               -384.4698526889               -384.4698499465
           3       20                 12.5691022037                 12.5690910168
           3       21                -15.7489097511                -15.7489165588
           3       22                 27.0978334940                 27.0985589490
           3       23                 18.5949116966                 18.5949125562
           3       24                  1.2212828291                  1.2212855301
           3       25                 13.4428926797                 13.4434051125
           3       26                 35.9380614500                 35.9380613666
           3       27                 39.9231532098                 39.9231654735
           3       28                 72.9957335806                 72.9957336833
           3       29                116.4231321147                116.4231321431
           4       30               -514.2564144315               -514.2564099626
           4       31                 15.1726678541                 15.1726530877
           4       32                -21.5447785304                -21.5447874973
           4       33                 14.4944558459                 14.4944698284
           4       34                 20.8882174564                 20.8882178906
           4       35                 -2.4850315908                 -2.4850322289
           4       36                 13.8600193195                 13.8599826966
           4       37                 45.8243383616                 45.8243383675
           4       38                 52.1840606465                 52.1840622440
           4       39                 85.4074185510                 85.4074185819
           4       40                142.0983717302                142.0983717339
 * Note: Onsite integrals marked "***" above are less accurate than
 * onsite_accuracy_threshold =    0.03000 eV. Usually, this is harmless.
 * When in doubt, tighten the "radial" and/or "radial_multiplier" flags to check.

  Preparing densities etc. for the partition functions (integrals / Hartree potential).

  Preparations completed.
  max(cpu_time)          :      0.240 s.
  Wall clock time (cpu1) :      0.240 s.
------------------------------------------------------------

------------------------------------------------------------
          Begin self-consistency loop: Initialization.

          Date     :  20170309, Time     :  175726.909
------------------------------------------------------------

  Initializing index lists of integration centers etc. from given atomic structure:
  | Number of centers in hartree potential         :        32
  | Number of centers in hartree multipole         :        32
  | Number of centers in electron density summation:        32
  | Number of centers in basis integrals           :        32
  | Number of centers in integrals                 :        32
  | Number of centers in hamiltonian               :        32
  Using modified Scalapack Eigenvalue solver (ELPA)
  * Using 32 tasks for Scalapack Eigenvalue solver.
  Detailed listing of tasks and assigned k-points:
  (for non-periodic systems, the "k-point" denotes an internal label only)
   Task     0 k-point     1 on eos060
   Task     1 k-point     1 on eos060
   Task     2 k-point     1 on eos060
   Task     3 k-point     1 on eos060
   Task     4 k-point     1 on eos060
   Task     5 k-point     1 on eos060
   Task     6 k-point     1 on eos060
   Task     7 k-point     1 on eos060
   Task     8 k-point     1 on eos060
   Task     9 k-point     1 on eos060
   Task    10 k-point     1 on eos060
   Task    11 k-point     1 on eos060
   Task    12 k-point     1 on eos060
   Task    13 k-point     1 on eos060
   Task    14 k-point     1 on eos060
   Task    15 k-point     1 on eos060
   Task    16 k-point     1 on eos060
   Task    17 k-point     1 on eos060
   Task    18 k-point     1 on eos060
   Task    19 k-point     1 on eos060
   Task    20 k-point     1 on eos060
   Task    21 k-point     1 on eos060
   Task    22 k-point     1 on eos060
   Task    23 k-point     1 on eos060
   Task    24 k-point     1 on eos060
   Task    25 k-point     1 on eos060
   Task    26 k-point     1 on eos060
   Task    27 k-point     1 on eos060
   Task    28 k-point     1 on eos060
   Task    29 k-point     1 on eos060
   Task    30 k-point     1 on eos060
   Task    31 k-point     1 on eos060
  Tasks:    32 split into      8 X      4 BLACS grid
  Calculating blocksize based on n_basis =          840 max_nprow =            8 max_npcol =            4
  Scalapack blocksize set to:           16
  Required Scalapack workspace - INTEGER:            1 REAL:             1
  Partitioning the integration grid into batches with parallel hashing+maxmin method.
  | Number of batches:     4960
  | Maximal batch size:     200
  | Minimal batch size:      44
  | Average batch size:     106.397
  | Standard deviation of batch sizes:      33.630

  Integration load balanced across    32 MPI tasks.
  Work distribution over tasks is as follows:
  Task     0 has      16481 integration points.
  Task     1 has      16435 integration points.
  Task     2 has      16462 integration points.
  Task     3 has      16498 integration points.
  Task     4 has      16450 integration points.
  Task     5 has      16437 integration points.
  Task     6 has      16450 integration points.
  Task     7 has      16471 integration points.
  Task     8 has      16495 integration points.
  Task     9 has      16477 integration points.
  Task    10 has      16483 integration points.
  Task    11 has      16447 integration points.
  Task    12 has      16470 integration points.
  Task    13 has      16480 integration points.
  Task    14 has      16518 integration points.
  Task    15 has      16551 integration points.
  Task    16 has      16473 integration points.
  Task    17 has      16454 integration points.
  Task    18 has      16553 integration points.
  Task    19 has      16553 integration points.
  Task    20 has      16535 integration points.
  Task    21 has      16469 integration points.
  Task    22 has      16553 integration points.
  Task    23 has      16530 integration points.
  Task    24 has      16556 integration points.
  Task    25 has      16519 integration points.
  Task    26 has      16436 integration points.
  Task    27 has      16449 integration points.
  Task    28 has      16495 integration points.
  Task    29 has      16618 integration points.
  Task    30 has      16446 integration points.
  Task    31 has      16484 integration points.
  Initializing partition tables, free-atom densities, potentials, etc. across the integration grid (initialize_grid_storage).
  | initialize_grid_storage: Actual outermost partition radius vs. multipole_radius_free
  | (-- VB: in principle, multipole_radius_free should be larger, hence this output)
  | Species        1: Confinement radius =              6.000000000000000 AA, multipole_radius_free =              6.071692442739658 AA.
  | Species        1: outer_partition_radius set to              6.071692442739658 AA .
  | Species        2: Confinement radius =              6.000000000000000 AA, multipole_radius_free =              6.029870734432609 AA.
  | Species        2: outer_partition_radius set to              6.029870734432609 AA .
  | Species        3: Confinement radius =              6.000000000000000 AA, multipole_radius_free =              6.058726835495003 AA.
  | Species        3: outer_partition_radius set to              6.058726835495003 AA .
  | Species        4: Confinement radius =              6.000000000000000 AA, multipole_radius_free =              6.064445521808699 AA.
  | Species        4: outer_partition_radius set to              6.064445521808699 AA .
  | Original list of interatomic distances with          32 x         32 entries is created.
  | Net number of integration points:   527728
  | of which are non-zero points    :   413173
  Obtaining max. number of non-zero basis functions in each batch (get_n_compute_maxes).
  | Maximal number of non-zero basis functions:      805 in task     0
  | Maximal number of non-zero basis functions:      818 in task     1
  | Maximal number of non-zero basis functions:      822 in task     2
  | Maximal number of non-zero basis functions:      810 in task     3
  | Maximal number of non-zero basis functions:      824 in task     4
  | Maximal number of non-zero basis functions:      779 in task     5
  | Maximal number of non-zero basis functions:      794 in task     6
  | Maximal number of non-zero basis functions:      788 in task     7
  | Maximal number of non-zero basis functions:      803 in task     8
  | Maximal number of non-zero basis functions:      817 in task     9
  | Maximal number of non-zero basis functions:      795 in task    10
  | Maximal number of non-zero basis functions:      794 in task    11
  | Maximal number of non-zero basis functions:      811 in task    12
  | Maximal number of non-zero basis functions:      798 in task    13
  | Maximal number of non-zero basis functions:      797 in task    14
  | Maximal number of non-zero basis functions:      813 in task    15
  | Maximal number of non-zero basis functions:      823 in task    16
  | Maximal number of non-zero basis functions:      820 in task    17
  | Maximal number of non-zero basis functions:      803 in task    18
  | Maximal number of non-zero basis functions:      799 in task    19
  | Maximal number of non-zero basis functions:      804 in task    20
  | Maximal number of non-zero basis functions:      805 in task    21
  | Maximal number of non-zero basis functions:      777 in task    22
  | Maximal number of non-zero basis functions:      787 in task    23
  | Maximal number of non-zero basis functions:      793 in task    24
  | Maximal number of non-zero basis functions:      778 in task    25
  | Maximal number of non-zero basis functions:      815 in task    26
  | Maximal number of non-zero basis functions:      797 in task    27
  | Maximal number of non-zero basis functions:      807 in task    28
  | Maximal number of non-zero basis functions:      801 in task    29
  | Maximal number of non-zero basis functions:      798 in task    30
  | Maximal number of non-zero basis functions:      810 in task    31
  Selecting the method for density update.
  Loop over occupied states selected for charge density update.
  Integrating Hamiltonian matrix: batch-based integration.
  Time summed over all CPUs for integration: real work       23.081 s, elapsed       23.943 s
  Integrating overlap matrix.
  Time summed over all CPUs for integration: real work       14.181 s, elapsed       14.619 s
  Deallocating overlap matrix.

  Updating Kohn-Sham eigenvalues, eigenvectors, occupation numbers, and Fermi level.
  Solving generalized eigenproblem
  Solving real symmetric generalised eigenvalue problem by standard ScaLAPACK.
  Transforming overlap matrix with ScaLAPACK and checking for singularities.
  : Overlap matrix is nonsingular, using Cholesky decomposition
  | Lowest eigenvalue:  0.801590E-04
  Factoring overlap matrix with Cholesky decomposition
  Using Cholesky factor for transformation
  Using 1-stage real ELPA solver
  Determining occupation numbers for Kohn-Sham eigenstates.
  | Chemical potential (Fermi level) in eV                 : -.94925939E+01
  | Error in electron count due to remaining E_F inaccuracy: 0.00000000E+00
  | Maximum occupation number of highest empty state:  0.00E+00

  Writing Kohn-Sham eigenvalues.

  State    Occupation    Eigenvalue [Ha]    Eigenvalue [eV]
      1       2.00000         -18.974470         -516.32159
      2       2.00000         -18.973199         -516.28701
      3       2.00000         -18.972915         -516.27928
      4       2.00000         -14.255858         -387.92163
      5       2.00000         -14.253610         -387.86045
      6       2.00000         -14.253118         -387.84707
      7       2.00000         -10.171657         -276.78486
      8       2.00000         -10.171385         -276.77746
      9       2.00000         -10.170975         -276.76632
     10       2.00000         -10.166765         -276.65174
     11       2.00000         -10.148918         -276.16610
     12       2.00000         -10.147722         -276.13358
     13       2.00000         -10.136105         -275.81744
     14       2.00000         -10.134858         -275.78353
     15       2.00000         -10.133425         -275.74451
     16       2.00000          -1.133393          -30.84120
     17       2.00000          -1.129215          -30.72751
     18       2.00000          -1.127912          -30.69205
     19       2.00000          -1.019317          -27.73703
     20       2.00000          -1.013502          -27.57881
     21       2.00000          -1.005113          -27.35053
     22       2.00000          -0.882830          -24.02304
     23       2.00000          -0.877018          -23.86488
     24       2.00000          -0.848480          -23.08831
     25       2.00000          -0.820672          -22.33162
     26       2.00000          -0.774201          -21.06708
     27       2.00000          -0.756530          -20.58624
     28       2.00000          -0.695634          -18.92915
     29       2.00000          -0.688975          -18.74798
     30       2.00000          -0.682468          -18.57091
     31       2.00000          -0.644834          -17.54682
     32       2.00000          -0.631949          -17.19621
     33       2.00000          -0.610198          -16.60434
     34       2.00000          -0.597938          -16.27072
     35       2.00000          -0.589940          -16.05309
     36       2.00000          -0.580554          -15.79767
     37       2.00000          -0.566078          -15.40377
     38       2.00000          -0.561497          -15.27911
     39       2.00000          -0.556547          -15.14441
     40       2.00000          -0.555120          -15.10558
     41       2.00000          -0.549638          -14.95642
     42       2.00000          -0.545485          -14.84340
     43       2.00000          -0.535714          -14.57753
     44       2.00000          -0.527571          -14.35593
     45       2.00000          -0.518797          -14.11717
     46       2.00000          -0.516145          -14.04502
     47       2.00000          -0.509671          -13.86886
     48       2.00000          -0.501868          -13.65653
     49       2.00000          -0.497184          -13.52906
     50       2.00000          -0.484905          -13.19495
     51       2.00000          -0.480977          -13.08805
     52       2.00000          -0.476757          -12.97321
     53       2.00000          -0.413187          -11.24340
     54       2.00000          -0.407584          -11.09093
     55       2.00000          -0.398677          -10.84855
     56       2.00000          -0.389657          -10.60311
     57       2.00000          -0.385299          -10.48453
     58       2.00000          -0.378077          -10.28800
     59       0.00000          -0.174587           -4.75075
     60       0.00000          -0.162122           -4.41156
     61       0.00000          -0.150711           -4.10106
     62       0.00000          -0.081798           -2.22583
     63       0.00000          -0.062460           -1.69963
     64       0.00000          -0.056390           -1.53446
     65       0.00000          -0.052263           -1.42215
     66       0.00000          -0.043656           -1.18794
     67       0.00000          -0.037681           -1.02536
     68       0.00000          -0.029901           -0.81365
     69       0.00000          -0.029791           -0.81066
     70       0.00000          -0.025295           -0.68833
     71       0.00000          -0.023726           -0.64563
     72       0.00000          -0.017073           -0.46458
     73       0.00000          -0.012904           -0.35113
     74       0.00000          -0.008047           -0.21897
     75       0.00000          -0.001575           -0.04287
     76       0.00000           0.002081            0.05664
     77       0.00000           0.004778            0.13001
     78       0.00000           0.005840            0.15890
     79       0.00000           0.011957            0.32538
     80       0.00000           0.013912            0.37855
     81       0.00000           0.018412            0.50103
     82       0.00000           0.025505            0.69404
     83       0.00000           0.033474            0.91088
     84       0.00000           0.041552            1.13070
     85       0.00000           0.042612            1.15954
     86       0.00000           0.050397            1.37137
     87       0.00000           0.056617            1.54064
     88       0.00000           0.059318            1.61411
     89       0.00000           0.063869            1.73797
     90       0.00000           0.074478            2.02665
     91       0.00000           0.076236            2.07449
     92       0.00000           0.080840            2.19977
     93       0.00000           0.085777            2.33412
     94       0.00000           0.087746            2.38770
     95       0.00000           0.097327            2.64840
     96       0.00000           0.098658            2.68461
     97       0.00000           0.107075            2.91366
     98       0.00000           0.115652            3.14705
     99       0.00000           0.118316            3.21953
    100       0.00000           0.122308            3.32818
    101       0.00000           0.128753            3.50355
    102       0.00000           0.134656            3.66417
    103       0.00000           0.138833            3.77783
    104       0.00000           0.141326            3.84566
    105       0.00000           0.143905            3.91586
    106       0.00000           0.157032            4.27305
    107       0.00000           0.161412            4.39225
    108       0.00000           0.163561            4.45073
    109       0.00000           0.167798            4.56603
    110       0.00000           0.175316            4.77058
    111       0.00000           0.179018            4.87132
    112       0.00000           0.182410            4.96363
    113       0.00000           0.187189            5.09368
    114       0.00000           0.192433            5.23637
    115       0.00000           0.198987            5.41473
    116       0.00000           0.205284            5.58606
    117       0.00000           0.207893            5.65704
    118       0.00000           0.214669            5.84144
    119       0.00000           0.216151            5.88177
    120       0.00000           0.220145            5.99044
    121       0.00000           0.226585            6.16570
    122       0.00000           0.230090            6.26106
    123       0.00000           0.234111            6.37048
    124       0.00000           0.241883            6.58197
    125       0.00000           0.243857            6.63568
    126       0.00000           0.255558            6.95407
    127       0.00000           0.258850            7.04366
    128       0.00000           0.264335            7.19292
    129       0.00000           0.271048            7.37560

  Highest occupied state (VBM) at    -10.28799939 eV
  | Occupation number:      2.00000000

  Lowest unoccupied state (CBM) at    -4.75074596 eV
  | Occupation number:      0.00000000

  Overall HOMO-LUMO gap:      5.53725343 eV.
  Calculating total energy contributions from superposition of free atom densities.

  Total energy components:
  | Sum of eigenvalues            :        -437.86417930 Ha      -11914.89054158 eV
  | XC energy correction          :         -98.82741872 Ha       -2689.23088996 eV
  | XC potential correction       :         127.03209897 Ha        3456.71928895 eV
  | Free-atom electrostatic energy:        -333.62502405 Ha       -9078.39880814 eV
  | Hartree energy correction     :           0.00000000 Ha           0.00000000 eV
  | vdW energy correction         :           0.00000000 Ha           0.00000000 eV
  | Entropy correction            :          -0.00000000 Ha          -0.00000000 eV
  | ---------------------------
  | Total energy                  :        -743.28452309 Ha      -20225.80095072 eV
  | Total energy, T -> 0          :        -743.28452309 Ha      -20225.80095072 eV  <-- do not rely on this value for anything but (periodic) metals
  | Electronic free energy        :        -743.28452309 Ha      -20225.80095072 eV

  Derived energy quantities:
  | Kinetic energy                :         735.17324572 Ha       20005.08186337 eV
  | Electrostatic energy          :       -1379.63035009 Ha      -37541.65192413 eV
  | Energy correction for multipole
  | error in Hartree potential    :           0.00000000 Ha           0.00000000 eV
  | Sum of eigenvalues per atom                           :        -372.34032942 eV
  | Total energy (T->0) per atom                          :        -632.05627971 eV  <-- do not rely on this value for anything but (periodic) metals
  | Electronic free energy per atom                       :        -632.05627971 eV
  Initialize hartree_potential_storage
  Max. number of atoms included in rho_multipole:           32

  End scf initialization - timings             :  max(cpu_time)    wall_clock(cpu1)
  | Time for scf. initialization               :        1.948 s           1.945 s
  | Boundary condition initialization          :        0.000 s           0.000 s
  | Integration                                :        1.228 s           1.227 s
  | Solution of K.-S. eqns.                    :        0.076 s           0.075 s
  | Grid partitioning                          :        0.268 s           0.266 s
  | Preloading free-atom quantities on grid    :        0.032 s           0.028 s
  | Free-atom superposition energy             :        0.040 s           0.040 s
  | Total energy evaluation                    :        0.004 s           0.001 s
------------------------------------------------------------

------------------------------------------------------------
          Begin self-consistency iteration #    1

  Date     :  20170309, Time     :  175728.854
------------------------------------------------------------
  Evaluating new KS density.
  Integration grid: deviation in total charge (<rho> - N_e) =   5.684342E-14
  Pulay mixing of updated and previous charge densities.

  Evaluating partitioned Hartree potential by multipole expansion.
  | Analytical far-field extrapolation by fixed multipoles:
  | Hartree multipole sum: apparent total charge =  -0.941833E-05
  Summing up the Hartree potential.
  Time summed over all CPUs for potential: real work        9.641 s, elapsed       10.014 s
  | RMS charge density error from multipole expansion :   0.107092E-01

  Integrating Hamiltonian matrix: batch-based integration.
  Time summed over all CPUs for integration: real work       23.180 s, elapsed       24.055 s

  Updating Kohn-Sham eigenvalues, eigenvectors, occupation numbers, and Fermi level.
  Solving generalized eigenproblem
  Solving real symmetric generalised eigenvalue problem by standard ScaLAPACK.
  Using Cholesky factor for transformation
  Using 2-stage real ELPA solver
  K-Point:    1, Trafo times: 1-stage=     0.021 s, 2-stage=     0.019 s ==> Using 2-stage solver
  Determining occupation numbers for Kohn-Sham eigenstates.
  | Chemical potential (Fermi level) in eV                 : -.48497897E+01
  | Error in electron count due to remaining E_F inaccuracy: 0.00000000E+00
  | Maximum occupation number of highest empty state:  0.00E+00

  Writing Kohn-Sham eigenvalues.

  State    Occupation    Eigenvalue [Ha]    Eigenvalue [eV]
      1       2.00000         -18.643875         -507.32566
      2       2.00000         -18.621142         -506.70705
      3       2.00000         -18.609685         -506.39528
      4       2.00000         -14.010106         -381.23438
      5       2.00000         -13.999782         -380.95346
      6       2.00000         -13.983770         -380.51774
      7       2.00000         -10.075831         -274.17730
      8       2.00000         -10.069636         -274.00875
      9       2.00000         -10.047928         -273.41804
     10       2.00000          -9.979240         -271.54895
     11       2.00000          -9.974529         -271.42073
     12       2.00000          -9.875409         -268.72356
     13       2.00000          -9.864672         -268.43139
     14       2.00000          -9.837340         -267.68764
     15       2.00000          -9.831746         -267.53542
     16       2.00000          -0.982290          -26.72947
     17       2.00000          -0.969774          -26.38891
     18       2.00000          -0.954030          -25.96049
     19       2.00000          -0.885305          -24.09038
     20       2.00000          -0.869758          -23.66732
     21       2.00000          -0.854086          -23.24085
     22       2.00000          -0.741943          -20.18930
     23       2.00000          -0.731260          -19.89859
     24       2.00000          -0.714617          -19.44571
     25       2.00000          -0.669286          -18.21220
     26       2.00000          -0.638968          -17.38719
     27       2.00000          -0.616637          -16.77955
     28       2.00000          -0.579993          -15.78241
     29       2.00000          -0.566460          -15.41417
     30       2.00000          -0.555550          -15.11727
     31       2.00000          -0.514498          -14.00019
     32       2.00000          -0.508192          -13.82861
     33       2.00000          -0.490029          -13.33436
     34       2.00000          -0.459459          -12.50253
     35       2.00000          -0.452892          -12.32382
     36       2.00000          -0.442301          -12.03561
     37       2.00000          -0.437260          -11.89846
     38       2.00000          -0.422402          -11.49413
     39       2.00000          -0.410111          -11.15970
     40       2.00000          -0.403510          -10.98006
     41       2.00000          -0.402034          -10.93990
     42       2.00000          -0.392562          -10.68214
     43       2.00000          -0.389561          -10.60049
     44       2.00000          -0.386443          -10.51564
     45       2.00000          -0.374988          -10.20393
     46       2.00000          -0.372145          -10.12659
     47       2.00000          -0.366666           -9.97748
     48       2.00000          -0.362846           -9.87355
     49       2.00000          -0.360026           -9.79680
     50       2.00000          -0.349461           -9.50932
     51       2.00000          -0.343053           -9.33496
     52       2.00000          -0.337684           -9.18884
     53       2.00000          -0.256061           -6.96776
     54       2.00000          -0.241414           -6.56920
     55       2.00000          -0.235476           -6.40763
     56       2.00000          -0.227350           -6.18651
     57       2.00000          -0.217477           -5.91784
     58       2.00000          -0.206521           -5.61972
     59       0.00000          -0.072281           -1.96686
     60       0.00000          -0.058531           -1.59271
     61       0.00000          -0.042083           -1.14513
     62       0.00000          -0.035198           -0.95778
     63       0.00000          -0.019570           -0.53252
     64       0.00000          -0.013060           -0.35539
     65       0.00000          -0.008212           -0.22347
     66       0.00000           0.003647            0.09924
     67       0.00000           0.008641            0.23515
     68       0.00000           0.013549            0.36869
     69       0.00000           0.026298            0.71560
     70       0.00000           0.029399            0.79998
     71       0.00000           0.030937            0.84183
     72       0.00000           0.037262            1.01395
     73       0.00000           0.040962            1.11464
     74       0.00000           0.045352            1.23408
     75       0.00000           0.054932            1.49478
     76       0.00000           0.056678            1.54228
     77       0.00000           0.058419            1.58967
     78       0.00000           0.068955            1.87637
     79       0.00000           0.071325            1.94084
     80       0.00000           0.083018            2.25902
     81       0.00000           0.086488            2.35346
     82       0.00000           0.093973            2.55714
     83       0.00000           0.095683            2.60365
     84       0.00000           0.107440            2.92358
     85       0.00000           0.108433            2.95062
     86       0.00000           0.110384            3.00371
     87       0.00000           0.119132            3.24174
     88       0.00000           0.120906            3.29002
     89       0.00000           0.130985            3.56429
     90       0.00000           0.134161            3.65069
     91       0.00000           0.141609            3.85339
     92       0.00000           0.145513            3.95962
     93       0.00000           0.149871            4.07818
     94       0.00000           0.156323            4.25378
     95       0.00000           0.159417            4.33795
     96       0.00000           0.167502            4.55797
     97       0.00000           0.171640            4.67056
     98       0.00000           0.177057            4.81797
     99       0.00000           0.180003            4.89812
    100       0.00000           0.182862            4.97592
    101       0.00000           0.187587            5.10451
    102       0.00000           0.195417            5.31756
    103       0.00000           0.199910            5.43984
    104       0.00000           0.203239            5.53041
    105       0.00000           0.205943            5.60399
    106       0.00000           0.211672            5.75989
    107       0.00000           0.214530            5.83766
    108       0.00000           0.216881            5.90163
    109       0.00000           0.222970            6.06731
    110       0.00000           0.233429            6.35192
    111       0.00000           0.237207            6.45472
    112       0.00000           0.241270            6.56529
    113       0.00000           0.248181            6.75334
    114       0.00000           0.257346            7.00274
    115       0.00000           0.259658            7.06566
    116       0.00000           0.268379            7.30296
    117       0.00000           0.269410            7.33102
    118       0.00000           0.272034            7.40242
    119       0.00000           0.279418            7.60334
    120       0.00000           0.281346            7.65583
    121       0.00000           0.284674            7.74638
    122       0.00000           0.292427            7.95735
    123       0.00000           0.305028            8.30023
    124       0.00000           0.307258            8.36093
    125       0.00000           0.318685            8.67187
    126       0.00000           0.319381            8.69081
    127       0.00000           0.322427            8.77369
    128       0.00000           0.333949            9.08720
    129       0.00000           0.343556            9.34864

  Highest occupied state (VBM) at     -5.61972414 eV
  | Occupation number:      2.00000000

  Lowest unoccupied state (CBM) at    -1.96685750 eV
  | Occupation number:      0.00000000

  Overall HOMO-LUMO gap:      3.65286663 eV.

  Total energy components:
  | Sum of eigenvalues            :        -418.23413553 Ha      -11380.72987295 eV
  | XC energy correction          :        -100.75109950 Ha       -2741.57690719 eV
  | XC potential correction       :         129.52650124 Ha        3524.59542828 eV
  | Free-atom electrostatic energy:        -333.62502405 Ha       -9078.39880814 eV
  | Hartree energy correction     :         -19.63749057 Ha        -534.36330653 eV
  | vdW energy correction         :           0.00000000 Ha           0.00000000 eV
  | Entropy correction            :          -0.00000000 Ha          -0.00000000 eV
  | ---------------------------
  | Total energy                  :        -742.72124840 Ha      -20210.47346653 eV
  | Total energy, T -> 0          :        -742.72124840 Ha      -20210.47346653 eV  <-- do not rely on this value for anything but (periodic) metals
  | Electronic free energy        :        -742.72124840 Ha      -20210.47346653 eV

  Derived energy quantities:
  | Kinetic energy                :         744.00356540 Ha       20245.36708754 eV
  | Electrostatic energy          :       -1385.97371431 Ha      -37714.26364688 eV
  | Energy correction for multipole
  | error in Hartree potential    :          -0.04015478 Ha          -1.09266707 eV
  | Sum of eigenvalues per atom                           :        -355.64780853 eV
  | Total energy (T->0) per atom                          :        -631.57729583 eV  <-- do not rely on this value for anything but (periodic) metals
  | Electronic free energy per atom                       :        -631.57729583 eV

  Self-consistency convergence accuracy:
  | Change of charge density      :  0.9017E+00
  | Change of sum of eigenvalues  :  0.5342E+03 eV
  | Change of total energy        :  0.1533E+02 eV

  End self-consistency iteration #     1       :  max(cpu_time)    wall_clock(cpu1)
  | Time for this iteration                    :        1.624 s           1.624 s
  | Charge density update                      :        0.504 s           0.503 s
[...]
   ----------------------------------------------------------------
   Total forces(  20)            : -0.437737E-03  0.146240E-02  0.374684E-04
  atom #   21
   Hellmann-Feynman              :  0.304084E-01 -0.331202E-01 -0.209282E-01
   Ionic forces                  :  0.000000E+00  0.000000E+00  0.000000E+00
   Multipole                     :  0.232625E-02  0.249070E-01 -0.246043E-01
   Pulay + GGA                   : -0.360154E-01  0.223478E-01  0.465177E-01
   Van der Waals                 :  0.279811E-02 -0.161034E-01 -0.165365E-02
   ----------------------------------------------------------------
   Total forces(  21)            : -0.482733E-03 -0.196879E-02 -0.668455E-03
  atom #   22
   Hellmann-Feynman              : -0.288063E-01  0.251279E-01  0.379143E-01
   Ionic forces                  :  0.000000E+00  0.000000E+00  0.000000E+00
   Multipole                     : -0.471173E-02  0.720119E-02 -0.787571E-02
   Pulay + GGA                   :  0.354778E-01 -0.427670E-01 -0.380460E-01
   Van der Waals                 : -0.206658E-02  0.110460E-01  0.810714E-02
   ----------------------------------------------------------------
   Total forces(  22)            : -0.106796E-03  0.608115E-03  0.997379E-04
  atom #   23
   Hellmann-Feynman              : -0.811734E+00  0.602829E+00 -0.129114E+00
   Ionic forces                  :  0.000000E+00  0.000000E+00  0.000000E+00
   Multipole                     :  0.251071E+00 -0.201032E+00  0.507315E-02
   Pulay + GGA                   :  0.549308E+00 -0.385271E+00  0.135602E+00
   Van der Waals                 :  0.124679E-01 -0.171227E-01 -0.111219E-01
   ----------------------------------------------------------------
   Total forces(  23)            :  0.111275E-02 -0.596605E-03  0.439610E-03
  atom #   24
   Hellmann-Feynman              :  0.663931E-02 -0.311862E-01  0.401757E-01
   Ionic forces                  :  0.000000E+00  0.000000E+00  0.000000E+00
   Multipole                     : -0.353219E-01 -0.282542E-02  0.311068E-02
   Pulay + GGA                   :  0.287172E-01  0.346472E-01 -0.450436E-01
   Van der Waals                 : -0.916129E-04 -0.842636E-03  0.174508E-02
   ----------------------------------------------------------------
   Total forces(  24)            : -0.569941E-04 -0.206998E-03 -0.121263E-04
  atom #   25
   Hellmann-Feynman              :  0.606989E-01 -0.218114E-01  0.854224E-02
   Ionic forces                  :  0.000000E+00  0.000000E+00  0.000000E+00
   Multipole                     : -0.435896E-02 -0.243016E-02 -0.310823E-01
   Pulay + GGA                   : -0.471930E-01  0.185159E-01  0.320733E-01
   Van der Waals                 : -0.876579E-02  0.572676E-02 -0.936274E-02
   ----------------------------------------------------------------
   Total forces(  25)            :  0.381191E-03  0.114903E-05  0.170463E-03
  atom #   26
   Hellmann-Feynman              :  0.319969E-01  0.221829E-03  0.362124E-01
   Ionic forces                  :  0.000000E+00  0.000000E+00  0.000000E+00
   Multipole                     : -0.374235E-02  0.366292E-01  0.320846E-02
   Pulay + GGA                   : -0.310230E-01 -0.333865E-01 -0.416644E-01
   Van der Waals                 :  0.251977E-02 -0.336234E-02  0.242098E-02
   ----------------------------------------------------------------
   Total forces(  26)            : -0.248687E-03  0.102225E-03  0.177429E-03
  atom #   27
   Hellmann-Feynman              : -0.719328E+00 -0.881706E-01 -0.117409E+01
   Ionic forces                  :  0.000000E+00  0.000000E+00  0.000000E+00
   Multipole                     : -0.199444E+00 -0.873729E-02  0.200135E-01
   Pulay + GGA                   :  0.938986E+00  0.110466E+00  0.115929E+01
   Van der Waals                 : -0.207588E-01 -0.112613E-01 -0.314069E-02
   ----------------------------------------------------------------
   Total forces(  27)            : -0.544341E-03  0.229641E-02  0.206905E-02
  atom #   28
   Hellmann-Feynman              :  0.152772E+01  0.101389E+01  0.128022E+01
   Ionic forces                  :  0.000000E+00  0.000000E+00  0.000000E+00
   Multipole                     : -0.738432E-02 -0.578413E-01 -0.870433E-01
   Pulay + GGA                   : -0.151651E+01 -0.943721E+00 -0.118398E+01
   Van der Waals                 : -0.622926E-02 -0.149055E-01 -0.120888E-01
   ----------------------------------------------------------------
   Total forces(  28)            : -0.239729E-02 -0.257680E-02 -0.289020E-02
  atom #   29
   Hellmann-Feynman              :  0.249714E-01  0.277811E-01  0.336628E-01
   Ionic forces                  :  0.000000E+00  0.000000E+00  0.000000E+00
   Multipole                     : -0.177443E-01  0.142161E-01  0.156675E-01
   Pulay + GGA                   :  0.430969E-03 -0.495827E-01 -0.460525E-01
   Van der Waals                 : -0.723836E-02  0.643907E-02 -0.231804E-02
   ----------------------------------------------------------------
   Total forces(  29)            :  0.419790E-03 -0.114639E-02  0.959675E-03
  atom #   30
   Hellmann-Feynman              : -0.525614E-01 -0.145368E-01 -0.222437E-01
   Ionic forces                  :  0.000000E+00  0.000000E+00  0.000000E+00
   Multipole                     : -0.255914E-02  0.294497E-01  0.363571E-01
   Pulay + GGA                   :  0.611451E-01 -0.118873E-01 -0.125017E-01
   Van der Waals                 : -0.613804E-02 -0.343541E-02 -0.225346E-02
   ----------------------------------------------------------------
   Total forces(  30)            : -0.113505E-03 -0.409705E-03 -0.641747E-03
  atom #   31
   Hellmann-Feynman              : -0.484261E-01 -0.153981E-03 -0.572501E-01
   Ionic forces                  :  0.000000E+00  0.000000E+00  0.000000E+00
   Multipole                     :  0.211784E-01  0.217239E-01 -0.149643E-01
   Pulay + GGA                   :  0.195636E-01 -0.186964E-01  0.685637E-01
   Van der Waals                 :  0.848938E-02 -0.274576E-02  0.367178E-02
   ----------------------------------------------------------------
   Total forces(  31)            :  0.805253E-03  0.127723E-03  0.210674E-04
  atom #   32
   Hellmann-Feynman              : -0.462635E-01 -0.560806E-01 -0.104675E-01
   Ionic forces                  :  0.000000E+00  0.000000E+00  0.000000E+00
   Multipole                     :  0.175973E-01 -0.195332E-01  0.180933E-01
   Pulay + GGA                   :  0.218239E-01  0.716488E-01 -0.674576E-02
   Van der Waals                 :  0.756781E-02  0.380522E-02 -0.978045E-03
   ----------------------------------------------------------------
   Total forces(  32)            :  0.725575E-03 -0.159720E-03 -0.980061E-04

  Timings for VdW correction (Tkatchenko-Scheffler 2009 or later):
  | CPU time:        0.128 s, Wall clock time:        0.126 s.
  Removing unitary transformations (pure translations, rotations) from forces on atoms.
  Atomic forces before filtering:
  | Net force on center of mass :   0.388775E-03 -0.263833E-03 -0.707610E-03 eV/A
  | Net torque on center of mass:   0.203067E-02 -0.159765E-02 -0.622920E-03 eV
  Atomic forces after filtering:
  | Net force on center of mass :   0.174225E-18  0.132846E-17  0.000000E+00 eV/A
  | Net torque on center of mass:  -0.633846E-17  0.115245E-17  0.184392E-17 eV

  Energy and forces in a compact form:
  | Total energy uncorrected      :         -0.202087732241746E+05 eV
  | Total energy corrected        :         -0.202087732241746E+05 eV  <-- do not rely on this value for anything but (periodic) metals
  | Electronic free energy        :         -0.202087732241746E+05 eV
  Total atomic forces (unitary forces cleaned) [eV/Ang]:
  |   1          0.118212051384899E-02          0.272689431878467E-03          0.890935213430864E-03
  |   2         -0.361198893236944E-02          0.683902455182950E-03          0.140429541977338E-02
  |   3          0.115626340800909E-02          0.146128631483569E-02          0.824480022578361E-03
  |   4          0.770894386310096E-04          0.120039640950211E-02          0.776583706897964E-03
  |   5         -0.363634293121631E-03         -0.533164831425720E-03          0.702400954184523E-04
  |   6          0.811403167446857E-03         -0.169267058638895E-04         -0.745293570220634E-03
  |   7         -0.210280707653915E-02         -0.131921323397888E-02         -0.196168204826713E-02
  |   8          0.102786072772304E-02          0.174635847235870E-03         -0.746133988404932E-04
  |   9          0.290479153867851E-02          0.197938534427551E-02         -0.100571265140893E-02
  |  10         -0.115163421149488E-02         -0.921379745498631E-03          0.150263210154379E-02
  |  11         -0.463688170204857E-03         -0.343864085914016E-03         -0.439806708663749E-03
  |  12          0.435719989838911E-03         -0.113664037276274E-02         -0.328384212433255E-03
  |  13         -0.374015186774895E-03          0.157148953428676E-02          0.616532928976491E-03
  |  14         -0.216243822690864E-04         -0.459187607239592E-03          0.796766106434548E-05
  |  15         -0.209681905548939E-03          0.577705782760713E-05          0.125631675857581E-03
  |  16         -0.950419368286978E-04         -0.428863836031049E-03          0.781852742014696E-04
  |  17          0.233019294392269E-02          0.267436455696514E-02         -0.196485719086351E-02
  |  18         -0.241110736093234E-02         -0.253571163895732E-02          0.132620972963473E-03
  |  19          0.200167310205973E-02         -0.554125887624104E-04          0.378884076151086E-03
  |  20         -0.441414961005424E-03          0.148538393620547E-02          0.414617807200570E-04
  |  21         -0.478020791545790E-03         -0.195375264451820E-02         -0.629867581079658E-03
  |  22         -0.128127236908362E-03          0.609707649898928E-03          0.119759562384306E-03
  |  23          0.108698917016047E-02         -0.600784265463204E-03          0.464591899507423E-03
  |  24         -0.926802221319345E-04         -0.214561775347916E-03          0.172431724532955E-05
  |  25          0.361113631522801E-03          0.112243069546472E-05          0.196657412577168E-03
  |  26         -0.277963753179027E-03          0.899285818190666E-04          0.214586990492085E-03
  |  27         -0.555897501427023E-03          0.231778149398239E-02          0.206171659462763E-02
  |  28         -0.240333964092224E-02         -0.254413893218554E-02         -0.291328362514360E-02
  |  29          0.404020083994088E-03         -0.112930867773318E-02          0.954263918592095E-03
  |  30         -0.121331171916187E-03         -0.375275368584482E-03         -0.672359073673464E-03
  |  31          0.811122936611364E-03          0.168660068836924E-03          0.153379578705955E-05
  |  32          0.713638082672345E-03         -0.128324803161579E-03         -0.129425360195988E-03

  ------------------------------------ 
  Start decomposition of the XC Energy 
  ------------------------------------ 
  Hartree-Fock part   :          0.000000000 Ha              0.000000000 eV
  ------------------------------------ 
  X Energy            :        -96.984234603 Ha          -2639.075298229 eV
  C Energy GGA        :         -3.870843194 Ha           -105.331002491 eV
  Total XC Energy     :       -100.855077797 Ha          -2744.406300720 eV
  LDA X and C from self-consistent density 
  X Energy LDA        :        -88.004810268 Ha          -2394.732730047 eV
  C Energy LDA        :         -7.532446723 Ha           -204.968304019 eV
  ------------------------------------ 
  End decomposition of the XC Energy 
  ------------------------------------ 
   
  ESP charge fitting starts.
  | Calculation :  00000001  of  00000001
  | Full density
  Computing multipole expansion for total density.
  Generating points for esp charges.
  Partitioning the integration grid into batches with parallel hashing+maxmin method.
  | Number of batches:     3926
  | Maximal batch size:     200
  | Minimal batch size:      52
  | Average batch size:     124.042
  | Standard deviation of batch sizes:      15.907

  Integration load balanced across    32 MPI tasks.
  Work distribution over tasks is as follows:
  Initializing partition tables, free-atom densities, potentials, etc. across the integration grid (initialize_grid_storage).
  | Original list of interatomic distances with          32 x         32 entries is created.
  | Net number of integration points:   486990
  | of which are non-zero points    :   486990
  Summing up potential from multipole expanded  density.
  Summing up the Hartree potential.
  Time summed over all CPUs for potential: real work        6.405 s, elapsed        6.576 s
  Fitting esp charges to potential.
  |
  | ESP charges fitted to the electrostatic potential :
  |
  | Atom         1: C, ESP charge:      0.39686793
  |
  | Atom         2: C, ESP charge:     -0.67493395
  |
  | Atom         3: O, ESP charge:      0.53888155
  |
  | Atom         4: H, ESP charge:     -0.13060856
  |
  | Atom         5: H, ESP charge:     -0.12340531
  |
  | Atom         6: H, ESP charge:     -0.11876306
  |
  | Atom         7: N, ESP charge:      0.62192839
  |
  | Atom         8: C, ESP charge:     -0.28925510
  |
  | Atom         9: C, ESP charge:     -0.57544814
  |
  | Atom        10: O, ESP charge:      0.52333946
  |
  | Atom        11: H, ESP charge:     -0.34459873
  |
  | Atom        12: H, ESP charge:     -0.05154945
  |
  | Atom        13: C, ESP charge:      0.64450900
  |
  | Atom        14: H, ESP charge:     -0.17552401
  |
  | Atom        15: H, ESP charge:     -0.19631481
  |
  | Atom        16: H, ESP charge:     -0.17328154
  |
  | Atom        17: N, ESP charge:      0.66300000
  |
  | Atom        18: C, ESP charge:     -0.43275488
  |
  | Atom        19: C, ESP charge:     -0.38415169
  |
  | Atom        20: O, ESP charge:      0.50244525
  |
  | Atom        21: H, ESP charge:     -0.34464810
  |
  | Atom        22: H, ESP charge:      0.11735572
  |
  | Atom        23: C, ESP charge:      0.46982889
  |
  | Atom        24: H, ESP charge:     -0.12160735
  |
  | Atom        25: H, ESP charge:     -0.13723018
  |
  | Atom        26: H, ESP charge:     -0.13118097
  |
  | Atom        27: N, ESP charge:      0.07353115
  |
  | Atom        28: C, ESP charge:      0.68228634
  |
  | Atom        29: H, ESP charge:     -0.14705087
  |
  | Atom        30: H, ESP charge:     -0.23884572
  |
  | Atom        31: H, ESP charge:     -0.21876036
  |
  | Atom        32: H, ESP charge:     -0.22406091

  RRMS:       0.00398158

  Done.

------------------------------------------------------------------------------
  Final output of selected total energy values:

  The following output summarizes some interesting total energy values
  at the end of a run (AFTER all relaxation, molecular dynamics, etc.).

  | Total energy of the DFT / Hartree-Fock s.c.f. calculation      :         -20208.773224175 eV
  | Final zero-broadening corrected energy (caution - metals only) :         -20208.773224175 eV
  | For reference only, the value of 1 Hartree used in FHI-aims is :             27.211384500 eV

  Before relying on these values, please be sure to understand exactly which
  total energy value is referred to by a given number. Different objects may
  all carry the same name 'total energy'. Definitions:

  Total energy of the DFT / Hartree-Fock s.c.f. calculation:
  | Note that this energy does not include ANY quantities calculated after the
  | s.c.f. cycle, in particular not ANY RPA, MP2, etc. many-body perturbation terms.

  Final zero-broadening corrected energy:
  | For metallic systems only, a broadening of the occupation numbers at the Fermi
  | level can be extrapolated back to zero broadening by an electron-gas inspired
  | formula. For all systems that are not real metals, this value can be
  | meaningless and should be avoided.

------------------------------------------------------------------------------
  Methods described in the following list of references were used in this FHI-aims run.
  If you publish the results, please make sure to cite these reference if they apply.
  FHI-aims is an academic code, and for our developers (often, Ph.D. students
  and postdocs), scientific credit in the community is essential.
  Thank you for helping us!

  For any use of FHI-aims, please cite:

    Volker Blum, Ralf Gehrke, Felix Hanke, Paula Havu, Ville Havu,
    Xinguo Ren, Karsten Reuter, and Matthias Scheffler
    'Ab initio molecular simulations with numeric atom-centered orbitals'
    Computer Physics Communications 180, 2175-2196 (2009)
    http://dx.doi.org/10.1016/j.cpc.2009.06.022


  The scalable eigensolver library ELPA was used in your run.
  ELPA is essential especially for large systems on hundreds or thousands of CPUs.
  For ELPA, please cite:

    Andreas Marek, Volker Blum, Rainer Johanni, Ville Havu, Bruno Lang,
    Thomas Auckenthaler, Alexander Heinecke, Hans-Joachim Bungartz, and Hermann Lederer,
    'The ELPA Library - Scalable Parallel Eigenvalue Solutions
    for Electronic Structure Theory and Computational Science'
    The Journal of Physics: Condensed Matter 26, 213201 (2014).
    http://dx.doi.org/10.1088/0953-8984/26/21/213201


  For ELPA's efficient two-stage tridiagonalization used in your run, please cite:

    T. Auckenthaler, V. Blum, H.-J. Bungartz, T. Huckle, R. Johanni, L. Kraemer,
    B. Lang, H. Lederer, and P. R. Willems,
    'Parallel solution of partial symmetric eigenvalue problems'
    'from  electronic structure calculations'
    Parallel Computing 37, 783-794 (2011).
    http://dx.doi.org/10.1016/j.parco.2011.05.002


  For the real-space grid partitioning and parallelization used in this calculation, please cite:

    Ville Havu, Volker Blum, Paula Havu, and Matthias Scheffler,
    'Efficient O(N) integration for all-electron electronic structure calculation'
    'using numerically tabulated basis functions'
    Journal of Computational Physics 228, 8367-8379 (2009).
    http://dx.doi.org/10.1016/j.jcp.2009.08.008

  Of course, there are many other important community references, e.g., those cited in the
  above references. Our list is limited to references that describe implementations in the
  FHI-aims code. The reason is purely practical (length of this list) - please credit others as well.

------------------------------------------------------------
          Leaving FHI-aims.
          Date     :  20170309, Time     :  175758.163

          Computational steps:
          | Number of self-consistency cycles          :           14

          Detailed time accounting                     :  max(cpu_time)    wall_clock(cpu1)
          | Total time                                 :       32.158 s          32.386 s
          | Preparation time                           :        0.240 s           0.240 s
          | Grid partitioning                          :        0.268 s           0.266 s
          | Preloading free-atom quantities on grid    :        0.032 s           0.028 s
          | Free-atom superposition energy             :        0.040 s           0.040 s
          | Total time for integrations                :       11.961 s          11.940 s
          | Total time for solution of K.-S. equations :        0.528 s           0.496 s
          | Total time for density & force components  :       10.377 s          10.364 s
          | Total time for mixing                      :        0.132 s           0.107 s
          | Total time for Hartree multipole update    :        0.060 s           0.059 s
          | Total time for Hartree multipole sum       :        6.376 s           6.356 s
          | Total time for total energy evaluation     :        0.032 s           0.023 s
          | Total time for vdW correction              :        0.128 s           0.126 s

          Have a nice day.
------------------------------------------------------------
