  MPI-parallelism will be employed.
------------------------------------------------------------
          Invoking FHI-aims ...
          Version 150427
          Git rev.: 9dd23e0 BL: Update Version stamp
          Compiled on 2015/11/03 at 22:05:20 on host eos03.

          When using FHI-aims, please cite the following reference:

          Volker Blum, Ralf Gehrke, Felix Hanke, Paula Havu,
          Ville Havu, Xinguo Ren, Karsten Reuter, and Matthias Scheffler,
          'Ab Initio Molecular Simulations with Numeric Atom-Centered Orbitals: FHI-aims',
          Computer Physics Communications 180, 2175-2196 (2009)

          For any questions about FHI-aims, please visit the aimsclub website
          with its forums and wiki. Contributions to both the forums and the
          wiki are warmly encouraged - they are for you, and everyone is welcome there.

------------------------------------------------------------

  Date     :  20170309, Time     :  180755.450
  Time zero on CPU 1             :   0.368023000000000E+00  s.
  Internal wall clock time zero  :           258314875.450  s.

  Using       32 parallel tasks.
  Task        0 on host eos383 reporting.
  Task        1 on host eos383 reporting.
  Task        2 on host eos383 reporting.
  Task        3 on host eos383 reporting.
  Task        4 on host eos383 reporting.
  Task        5 on host eos383 reporting.
  Task        6 on host eos383 reporting.
  Task        7 on host eos383 reporting.
  Task        8 on host eos383 reporting.
  Task        9 on host eos383 reporting.
  Task       10 on host eos383 reporting.
  Task       11 on host eos383 reporting.
  Task       12 on host eos383 reporting.
  Task       13 on host eos383 reporting.
  Task       14 on host eos383 reporting.
  Task       15 on host eos383 reporting.
  Task       16 on host eos383 reporting.
  Task       17 on host eos383 reporting.
  Task       18 on host eos383 reporting.
  Task       19 on host eos383 reporting.
  Task       20 on host eos383 reporting.
  Task       21 on host eos383 reporting.
  Task       22 on host eos383 reporting.
  Task       23 on host eos383 reporting.
  Task       24 on host eos383 reporting.
  Task       25 on host eos383 reporting.
  Task       26 on host eos383 reporting.
  Task       27 on host eos383 reporting.
  Task       28 on host eos383 reporting.
  Task       29 on host eos383 reporting.
  Task       30 on host eos383 reporting.
  Task       31 on host eos383 reporting.

  Performing system and environment tests:
  | Environment variable OMP_NUM_THREADS correctly set to 1.
  | Stacksize not measured: no C compiler
  | Checking for scalapack...
  | Testing pdtran()...
  | All pdtran() tests passed.

  Obtaining array dimensions for all initial allocations:
  
  -----------------------------------------------------------------------
  Parsing control.in (first pass over file, find array dimensions only).
  The contents of control.in will be repeated verbatim below
  unless switched off by setting 'verbatim_writeout .false.' .
  in the first line of control.in .
  -----------------------------------------------------------------------
  
  #########################################################################################
  #
  # Input for System
  #
  #########################################################################################
  #
  #
  #  Physical model
  #
    xc                 pbe
    vdw_correction_hirshfeld
    spin               none
    charge             0.
  #
  #  SCF convergence
  #
    occupation_type    gaussian 0.05
    mixer              pulay
      n_max_pulay        10
      charge_mix_param   0.5
    sc_accuracy_rho    1E-4
    sc_accuracy_eev    1E-2
    sc_accuracy_etot   1E-5
    sc_accuracy_forces 1E-4
    sc_iter_limit      1000
  #
  #  ESP charge
  #
    output esp
    esp equal_grid_n 80 80 80
  #
  #
  ################################################################################
  #
  #  FHI-aims code project
  # Volker Blum, Fritz Haber Institute Berlin, 2009
  #
  #  Suggested "tight" defaults for H atom (to be pasted into control.in file)
  #
  ################################################################################
    species        H
  #     global species definitions
      nucleus             1
      mass                1.00794
  #
      l_hartree           6
  #
      cut_pot             4.0  2.0  1.0
      basis_dep_cutoff    1e-4
  #
      radial_base         24 7.0
      radial_multiplier   2
      angular_grids       specified
        division   0.1930   50
        division   0.3175  110
        division   0.4293  194
        division   0.5066  302
        division   0.5626  434
  #      division   0.5922  590
  #      division   0.6227  974
  #      division   0.6868 1202
  #      outer_grid  770
        outer_grid  434
  ################################################################################
  #
  #  Definition of "minimal" basis
  #
  ################################################################################
  #     valence basis states
      valence      1  s   1.
  #     ion occupancy
      ion_occ      1  s   0.5
  ################################################################################
  #
  #  Suggested additional basis functions. For production calculations,
  #  uncomment them one after another (the most important basis functions are
  #  listed first).
  #
  #  Basis constructed for dimers: 0.5 A, 0.7 A, 1.0 A, 1.5 A, 2.5 A
  #
  ################################################################################
  #  "First tier" - improvements: -1014.90 meV to -62.69 meV
       hydro 2 s 2.1
       hydro 2 p 3.5
  #  "Second tier" - improvements: -12.89 meV to -1.83 meV
       hydro 1 s 0.85
       hydro 2 p 3.7
       hydro 2 s 1.2
       hydro 3 d 7
  #  "Third tier" - improvements: -0.25 meV to -0.12 meV
  #     hydro 4 f 11.2
  #     hydro 3 p 4.8
  #     hydro 4 d 9
  #     hydro 3 s 3.2
  ################################################################################
  #
  # For methods that use the localized form of the "resolution of identity" for
  # the two-electron Coulomb operator (RI_method LVL), particularly Hartree-Fock and
  # hybrid density functional calculations, the highest accuracy can be obtained by
  # uncommenting the line beginning with "for_aux"  below, thus adding an extra g radial
  # function to the construction of the product basis set for the expansion.
  # See Ref. New J. Phys. 17, 093020 (2015) for more information, particularly Figs. 1 and 6.
  #
  ################################################################################
  #
  # for_aux hydro 5 g 6.0
  ################################################################################
  #
  #  FHI-aims code project
  # Volker Blum, Fritz Haber Institute Berlin, 2009
  #
  #  Suggested "tight" defaults for C atom (to be pasted into control.in file)
  #
  ################################################################################
    species        C
  #     global species definitions
      nucleus             6
      mass                12.0107
  #
      l_hartree           6
  #
      cut_pot             4.0  2.0  1.0
      basis_dep_cutoff    1e-4
  #
      radial_base         34 7.0
      radial_multiplier   2
      angular_grids specified
        division   0.2187   50
        division   0.4416  110
        division   0.6335  194
        division   0.7727  302
        division   0.8772  434
  #      division   0.9334  590
  #      division   0.9924  770
  #      division   1.0230  974
  #      division   1.5020 1202
  #     outer_grid  974
        outer_grid  434
  ################################################################################
  #
  #  Definition of "minimal" basis
  #
  ################################################################################
  #     valence basis states
      valence      2  s   2.
      valence      2  p   2.
  #     ion occupancy
      ion_occ      2  s   1.
      ion_occ      2  p   1.
  ################################################################################
  #
  #  Suggested additional basis functions. For production calculations,
  #  uncomment them one after another (the most important basis functions are
  #  listed first).
  #
  #  Constructed for dimers: 1.0 A, 1.25 A, 1.5 A, 2.0 A, 3.0 A
  #
  ################################################################################
  #  "First tier" - improvements: -1214.57 meV to -155.61 meV
       hydro 2 p 1.7
       hydro 3 d 6
       hydro 2 s 4.9
  #  "Second tier" - improvements: -67.75 meV to -5.23 meV
       hydro 4 f 9.8
       hydro 3 p 5.2
       hydro 3 s 4.3
       hydro 5 g 14.4
       hydro 3 d 6.2
  #  "Third tier" - improvements: -2.43 meV to -0.60 meV
  #     hydro 2 p 5.6
  #     hydro 2 s 1.4
  #     hydro 3 d 4.9
  #     hydro 4 f 11.2
  #  "Fourth tier" - improvements: -0.39 meV to -0.18 meV
  #     hydro 2 p 2.1
  #     hydro 5 g 16.4
  #     hydro 4 d 13.2
  #     hydro 3 s 13.6
  #     hydro 4 f 17.6
  #  Further basis functions - improvements: -0.08 meV and below
  #     hydro 3 s 2
  #     hydro 3 p 6
  #     hydro 4 d 20
  ################################################################################
  #
  # For methods that use the localized form of the "resolution of identity" for
  # the two-electron Coulomb operator (RI_method LVL), particularly Hartree-Fock and
  # hybrid density functional calculations, the highest accuracy can be obtained by
  # uncommenting the line beginning with "for_aux"  below, thus adding an extra g radial
  # function to the construction of the product basis set for the expansion.
  # See Ref. New J. Phys. 17, 093020 (2015) for more information, particularly Figs. 1 and 6.
  #
  ################################################################################
  #
  # for_aux hydro 5 g 6.0
  ################################################################################
  #
  #  FHI-aims code project
  # Volker Blum, Fritz Haber Institute Berlin, 2009
  #
  #  Suggested "tight" defaults for N atom (to be pasted into control.in file)
  #
  ################################################################################
    species        N
  #     global species definitions
      nucleus             7
      mass                14.0067
  #
      l_hartree           6
  #
      cut_pot             4.0  2.0  1.0
      basis_dep_cutoff    1e-4
  #
      radial_base         35 7.0
      radial_multiplier   2
      angular_grids       specified
        division   0.1841   50
        division   0.3514  110
        division   0.5126  194
        division   0.6292  302
        division   0.6939  434
  #      division   0.7396  590
  #      division   0.7632  770
  #      division   0.8122  974
  #      division   1.1604 1202
  #      outer_grid  974
        outer_grid  434
  ################################################################################
  #
  #  Definition of "minimal" basis
  #
  ################################################################################
  #     valence basis states
      valence      2  s   2.
      valence      2  p   3.
  #     ion occupancy
      ion_occ      2  s   1.
      ion_occ      2  p   2.
  ################################################################################
  #
  #  Suggested additional basis functions. For production calculations,
  #  uncomment them one after another (the most important basis functions are
  #  listed first).
  #
  #  Constructed for dimers: 1.0 A, 1.1 A, 1.5 A, 2.0 A, 3.0 A
  #
  ################################################################################
  #  "First tier" - improvements: -1193.42 meV to -220.60 meV
       hydro 2 p 1.8
       hydro 3 d 6.8
       hydro 3 s 5.8
  #  "Second tier" - improvements: -80.21 meV to -6.86 meV
       hydro 4 f 10.8
       hydro 3 p 5.8
       hydro 1 s 0.8
       hydro 5 g 16
       hydro 3 d 4.9
  #  "Third tier" - improvements: -4.29 meV to -0.53 meV
  #     hydro 3 s 16
  #     ionic 2 p auto
  #     hydro 3 d 6.6
  #     hydro 4 f 11.6
  #  "Fourth tier" - improvements: -0.75 meV to -0.25 meV
  #     hydro 2 p 4.5
  #     hydro 2 s 2.4
  #     hydro 5 g 14.4
  #     hydro 4 d 14.4
  #     hydro 4 f 16.8
  # Further basis functions - -0.21 meV and below
  #     hydro 3 p 14.8
  #     hydro 3 s 4.4
  #     hydro 3 d 19.6
  #     hydro 5 g 12.8
  ################################################################################
  #
  # For methods that use the localized form of the "resolution of identity" for
  # the two-electron Coulomb operator (RI_method LVL), particularly Hartree-Fock and
  # hybrid density functional calculations, the highest accuracy can be obtained by
  # uncommenting the line beginning with "for_aux"  below, thus adding an extra g radial
  # function to the construction of the product basis set for the expansion.
  # See Ref. New J. Phys. 17, 093020 (2015) for more information, particularly Figs. 1 and 6.
  #
  ################################################################################
  #
  # for_aux hydro 5 g 6.0
  ################################################################################
  #
  #  FHI-aims code project
  # Volker Blum, Fritz Haber Institute Berlin, 2009
  #
  #  Suggested "tight" defaults for O atom (to be pasted into control.in file)
  #
  ################################################################################
    species        O
  #     global species definitions
      nucleus             8
      mass                15.9994
  #
      l_hartree           6
  #
      cut_pot             4.0  2.0  1.0
      basis_dep_cutoff    1e-4
  #
      radial_base         36 7.0
      radial_multiplier   2
       angular_grids specified
        division   0.1817   50
        division   0.3417  110
        division   0.4949  194
        division   0.6251  302
        division   0.8014  434
  #      division   0.8507  590
  #      division   0.8762  770
  #      division   0.9023  974
  #      division   1.2339 1202
  #      outer_grid 974
        outer_grid  434
  ################################################################################
  #
  #  Definition of "minimal" basis
  #
  ################################################################################
  #     valence basis states
      valence      2  s   2.
      valence      2  p   4.
  #     ion occupancy
      ion_occ      2  s   1.
      ion_occ      2  p   3.
  ################################################################################
  #
  #  Suggested additional basis functions. For production calculations,
  #  uncomment them one after another (the most important basis functions are
  #  listed first).
  #
  #  Constructed for dimers: 1.0 A, 1.208 A, 1.5 A, 2.0 A, 3.0 A
  #
  ################################################################################
  #  "First tier" - improvements: -699.05 meV to -159.38 meV
       hydro 2 p 1.8
       hydro 3 d 7.6
       hydro 3 s 6.4
  #  "Second tier" - improvements: -49.91 meV to -5.39 meV
       hydro 4 f 11.6
       hydro 3 p 6.2
       hydro 3 d 5.6
       hydro 5 g 17.6
       hydro 1 s 0.75
  #  "Third tier" - improvements: -2.83 meV to -0.50 meV
  #     ionic 2 p auto
  #     hydro 4 f 10.8
  #     hydro 4 d 4.7
  #     hydro 2 s 6.8
  #  "Fourth tier" - improvements: -0.40 meV to -0.12 meV
  #     hydro 3 p 5
  #     hydro 3 s 3.3
  #     hydro 5 g 15.6
  #     hydro 4 f 17.6
  #     hydro 4 d 14
  # Further basis functions - -0.08 meV and below
  #     hydro 3 s 2.1
  #     hydro 4 d 11.6
  #     hydro 3 p 16
  #     hydro 2 s 17.2
  ################################################################################
  #
  # For methods that use the localized form of the "resolution of identity" for
  # the two-electron Coulomb operator (RI_method LVL), particularly Hartree-Fock and
  # hybrid density functional calculations, the highest accuracy can be obtained by
  # uncommenting the line beginning with "for_aux"  below, thus adding an extra g radial
  # function to the construction of the product basis set for the expansion.
  # See Ref. New J. Phys. 17, 093020 (2015) for more information, particularly Figs. 1 and 6.
  #
  ################################################################################
  #
  # for_aux hydro 5 g 6.0
  
  -----------------------------------------------------------------------
  Completed first pass over input file control.in .
  -----------------------------------------------------------------------
  
  
  -----------------------------------------------------------------------
  Parsing geometry.in (first pass over file, find array dimensions only).
  The contents of geometry.in will be repeated verbatim below
  unless switched off by setting 'verbatim_writeout .false.' .
  in the first line of geometry.in .
  -----------------------------------------------------------------------
  
  #
  # This is the geometry file that corresponds to the current relaxation step.
  # If you do not want this file to be written, set the "write_restart_geometry" flag to .false.
  #
  atom      -1.65438603     -1.03418137     -0.26596241 C
  atom      -1.14090779     -1.02416047      1.16283198 C
  atom      -0.28355465     -1.82194927      1.54856786 O
  atom      -0.81122597     -0.84757359     -0.94310487 H
  atom      -2.43848413     -0.29178401     -0.46015902 H
  atom      -2.04216389     -2.03465401     -0.49432606 H
  atom      -1.69154604     -0.07241236      1.97049248 N
  atom      -1.32438364      0.10820078      3.37168610 C
  atom      -2.62384720      0.02568916      4.18703770 C
  atom      -3.51224544      0.85849883      3.99430355 O
  atom      -2.42321323      0.53141357      1.61031950 H
  atom      -0.62730300     -0.69703351      3.61207161 H
  atom      -0.63799355      1.45552881      3.61138204 C
  atom      -0.33771507      1.53545240      4.66239978 H
  atom      -1.31697907      2.28335166      3.37020076 H
  atom       0.25720839      1.52602388      2.98091091 H
  atom      -2.81874487     -0.97764310      5.09916507 N
  atom      -2.01687450     -2.12604392      5.51018042 C
  atom      -0.74969474     -1.69926592      6.29050621 C
  atom      -0.23189129     -0.59615786      6.14586375 O
  atom      -3.71313343     -0.87109359      5.56915411 H
  atom      -2.66878734     -2.65949449      6.21809866 H
  atom      -1.68989019     -3.10658932      4.36765049 C
  atom      -1.25581956     -4.03367592      4.76257375 H
  atom      -0.98574059     -2.69250682      3.63640510 H
  atom      -2.61563671     -3.36541119      3.83844099 H
  atom      -0.22135887     -2.61219598      7.16279896 N
  atom      -0.64616865     -3.96851224      7.46085441 C
  atom       0.64385233     -2.28789537      7.58536662 H
  atom      -0.23430933     -4.70944415      6.75760108 H
  atom      -1.73961080     -4.05355253      7.44905529 H
  atom      -0.31067917     -4.23167310      8.47096819 H
  
  -----------------------------------------------------------------------
  Completed first pass over input file geometry.in .
  -----------------------------------------------------------------------
  

  Basic array size parameters:
  | Number of species                 :        4
  | Number of atoms                   :       32
  | Max. basis fn. angular momentum   :        4
  | Max. atomic/ionic basis occupied n:        2
  | Max. number of basis fn. types    :        2
  | Max. radial fns per species/type  :        8
  | Max. logarithmic grid size        :     1301
  | Max. radial integration grid size :       73
  | Max. angular integration grid size:      434
  | Max. angular grid division number :        8
  | Radial grid for Hartree potential :     1301
  | Number of spin channels           :        1

------------------------------------------------------------
          Reading file control.in.
------------------------------------------------------------
  XC: Using PBE gradient-corrected functionals.
  Spin treatment: No spin polarisation.
  Charge =   0.000000E+00: Neutral system requested explicitly.
  Occupation type: Gaussian broadening, width =   0.500000E-01 eV.
  Using pulay charge density mixing.
  Pulay mixing - number of memorized iterations:   10
  Charge density mixing - mixing parameter:     0.5000
  Convergence accuracy of self-consistent charge density:  0.1000E-03
  Convergence accuracy of sum of eigenvalues:  0.1000E-01
  Convergence accuracy of total energy:  0.1000E-04
  Convergence accuracy of forces:  0.1000E-03
  Maximum number of s.-c. iterations  :  1000
  Fitting ESP-charges to Potential. 
  | Esp charge output options: 
  | ESP Grid method: 3, cubic grid
  | Number of points in x, ,y, z:  0080 0080 0080
  |
 
  Reading configuration options for species H                   .
  | Found nuclear charge :   1.0000
  | Found atomic mass :    1.00794000000000      amu
  | Found l_max for Hartree potential  :   6
  | Found cutoff potl. onset [A], width [A], scale factor :    4.00000    2.00000    1.00000
  | Threshold for basis-dependent cutoff potential is   0.100000E-03
  | Found data for basic radial integration grid :    24 points, outermost radius =    7.000 A
  | Found multiplier for basic radial grid :   2
  | Found angular grid specification: user-specified.
  | Specified grid contains     6 separate shells.
  | Check grid settings after all constraints further below.
  | Found free-atom valence shell :  1 s   1.000
  | No ionic wave fns used. Skipping ion_occ.
  | Found hydrogenic basis function :  2 s   2.100
  | Found hydrogenic basis function :  2 p   3.500
  | Found hydrogenic basis function :  1 s   0.850
  | Found hydrogenic basis function :  2 p   3.700
  | Found hydrogenic basis function :  2 s   1.200
  | Found hydrogenic basis function :  3 d   7.000
  Species H                   : Missing cutoff potential type.
  Defaulting to exp(1/x)/(1-x)^2 type cutoff potential.
  Species H : No 'logarithmic' tag. Using default grid for free atom:
  | Default logarithmic grid data [bohr] : 0.1000E-03 0.1000E+03 0.1012E+01
  Species H : On-site basis accuracy parameter (for Gram-Schmidt orthonormalisation) not specified.
  Using default value basis_acc =  0.1000000E-03.
  Species H                   : Using default innermost maximum threshold i_radial=  2 for radial functions.
  Species H                   : Default cutoff onset for free atom density etc. : 0.40000000E+01 AA.
  Species H                   : Basic radial grid will be enhanced according to radial_multiplier =   2, to contain    49 grid points.
 
  Reading configuration options for species C                   .
  | Found nuclear charge :   6.0000
  | Found atomic mass :    12.0107000000000      amu
  | Found l_max for Hartree potential  :   6
  | Found cutoff potl. onset [A], width [A], scale factor :    4.00000    2.00000    1.00000
  | Threshold for basis-dependent cutoff potential is   0.100000E-03
  | Found data for basic radial integration grid :    34 points, outermost radius =    7.000 A
  | Found multiplier for basic radial grid :   2
  | Found angular grid specification: user-specified.
  | Specified grid contains     6 separate shells.
  | Check grid settings after all constraints further below.
  | Found free-atom valence shell :  2 s   2.000
  | Found free-atom valence shell :  2 p   2.000
  | No ionic wave fns used. Skipping ion_occ.
  | No ionic wave fns used. Skipping ion_occ.
  | Found hydrogenic basis function :  2 p   1.700
  | Found hydrogenic basis function :  3 d   6.000
  | Found hydrogenic basis function :  2 s   4.900
  | Found hydrogenic basis function :  4 f   9.800
  | Found hydrogenic basis function :  3 p   5.200
  | Found hydrogenic basis function :  3 s   4.300
  | Found hydrogenic basis function :  5 g  14.400
  | Found hydrogenic basis function :  3 d   6.200
  Species C                   : Missing cutoff potential type.
  Defaulting to exp(1/x)/(1-x)^2 type cutoff potential.
  Species C : No 'logarithmic' tag. Using default grid for free atom:
  | Default logarithmic grid data [bohr] : 0.1000E-03 0.1000E+03 0.1012E+01
  Species C : On-site basis accuracy parameter (for Gram-Schmidt orthonormalisation) not specified.
  Using default value basis_acc =  0.1000000E-03.
  Species C                   : Using default innermost maximum threshold i_radial=  2 for radial functions.
  Species C                   : Default cutoff onset for free atom density etc. : 0.40000000E+01 AA.
  Species C                   : Basic radial grid will be enhanced according to radial_multiplier =   2, to contain    69 grid points.
 
  Reading configuration options for species N                   .
  | Found nuclear charge :   7.0000
  | Found atomic mass :    14.0067000000000      amu
  | Found l_max for Hartree potential  :   6
  | Found cutoff potl. onset [A], width [A], scale factor :    4.00000    2.00000    1.00000
  | Threshold for basis-dependent cutoff potential is   0.100000E-03
  | Found data for basic radial integration grid :    35 points, outermost radius =    7.000 A
  | Found multiplier for basic radial grid :   2
  | Found angular grid specification: user-specified.
  | Specified grid contains     6 separate shells.
  | Check grid settings after all constraints further below.
  | Found free-atom valence shell :  2 s   2.000
  | Found free-atom valence shell :  2 p   3.000
  | No ionic wave fns used. Skipping ion_occ.
  | No ionic wave fns used. Skipping ion_occ.
  | Found hydrogenic basis function :  2 p   1.800
  | Found hydrogenic basis function :  3 d   6.800
  | Found hydrogenic basis function :  3 s   5.800
  | Found hydrogenic basis function :  4 f  10.800
  | Found hydrogenic basis function :  3 p   5.800
  | Found hydrogenic basis function :  1 s   0.800
  | Found hydrogenic basis function :  5 g  16.000
  | Found hydrogenic basis function :  3 d   4.900
  Species N                   : Missing cutoff potential type.
  Defaulting to exp(1/x)/(1-x)^2 type cutoff potential.
  Species N : No 'logarithmic' tag. Using default grid for free atom:
  | Default logarithmic grid data [bohr] : 0.1000E-03 0.1000E+03 0.1012E+01
  Species N : On-site basis accuracy parameter (for Gram-Schmidt orthonormalisation) not specified.
  Using default value basis_acc =  0.1000000E-03.
  Species N                   : Using default innermost maximum threshold i_radial=  2 for radial functions.
  Species N                   : Default cutoff onset for free atom density etc. : 0.40000000E+01 AA.
  Species N                   : Basic radial grid will be enhanced according to radial_multiplier =   2, to contain    71 grid points.
 
  Reading configuration options for species O                   .
  | Found nuclear charge :   8.0000
  | Found atomic mass :    15.9994000000000      amu
  | Found l_max for Hartree potential  :   6
  | Found cutoff potl. onset [A], width [A], scale factor :    4.00000    2.00000    1.00000
  | Threshold for basis-dependent cutoff potential is   0.100000E-03
  | Found data for basic radial integration grid :    36 points, outermost radius =    7.000 A
  | Found multiplier for basic radial grid :   2
  | Found angular grid specification: user-specified.
  | Specified grid contains     6 separate shells.
  | Check grid settings after all constraints further below.
  | Found free-atom valence shell :  2 s   2.000
  | Found free-atom valence shell :  2 p   4.000
  | No ionic wave fns used. Skipping ion_occ.
  | No ionic wave fns used. Skipping ion_occ.
  | Found hydrogenic basis function :  2 p   1.800
  | Found hydrogenic basis function :  3 d   7.600
  | Found hydrogenic basis function :  3 s   6.400
  | Found hydrogenic basis function :  4 f  11.600
  | Found hydrogenic basis function :  3 p   6.200
  | Found hydrogenic basis function :  3 d   5.600
  | Found hydrogenic basis function :  5 g  17.600
  | Found hydrogenic basis function :  1 s   0.750
  Species O                   : Missing cutoff potential type.
  Defaulting to exp(1/x)/(1-x)^2 type cutoff potential.
  Species O : No 'logarithmic' tag. Using default grid for free atom:
  | Default logarithmic grid data [bohr] : 0.1000E-03 0.1000E+03 0.1012E+01
  Species O : On-site basis accuracy parameter (for Gram-Schmidt orthonormalisation) not specified.
  Using default value basis_acc =  0.1000000E-03.
  Species O                   : Using default innermost maximum threshold i_radial=  2 for radial functions.
  Species O                   : Default cutoff onset for free atom density etc. : 0.40000000E+01 AA.
  Species O                   : Basic radial grid will be enhanced according to radial_multiplier =   2, to contain    73 grid points.
 
  Finished reading input file 'control.in'. Consistency checks are next.
 
  Target number of points in a grid batch is not set. Defaulting to  100
  Method for grid partitioning is not set. Defaulting to parallel hash+maxmin partitioning.
  Batch size limit is not set. Defaulting to    200
  By default, will store active basis functions for each batch.
  If in need of memory, prune_basis_once .false. can be used to disable this option.
  communication_type for Hartree potential was not specified.
  Defaulting to calc_hartree .
  Pulay mixer: Number of initial linear mixing iterations not set.
  Defaulting to    0 iterations.
  Work space size for distributed Hartree potential not set.
  Defaulting to   0.200000E+03 MB.
  Algorithm-dependent basis array size parameters:
  | n_max_pulay                         :       10
  Geometry relaxation not requested: no relaxation will be performed.
  Handling of forces: Unphysical translation and rotation will be removed from forces.
  No accuracy limit for integral partition fn. given. Defaulting to  0.1000E-14.
  No threshold value for u(r) in integrations given. Defaulting to  0.1000E-05.
  No accuracy for occupation numbers given. Defaulting to  0.1000E-07.
  No threshold value for occupation numbers given. Defaulting to  0.0000E+00.
  No accuracy for fermi level given. Defaulting to  0.1000E-19.
  Maximum # of iterations to find E_F not set. Defaulting to  200.
  Preferred method for the eigenvalue solver ('KS_method') not specified in 'control.in'.
  Calling blacs routine to test compilation state
  Since scalapack support is enabled, defaulting to 'elpa'.
  Preferred method for the MBD eigenvalue solver ('mbd_eigensolver') not specified in 'control.in'.
  Calling blacs routine to test compilation state
  Since scalapack support is enabled, defaulting to 'scaLAPACK'.
  Will not use alltoall communication since running on < 1024 CPUs.
  Threshold for basis singularities not set.
  Default threshold for basis singularities:  0.1000E-04
  partition_type (choice of integration weights) for integrals was not specified.
  | Using a version of the partition function of Stratmann and coworkers ('stratmann_smoother').
  | At each grid point, the set of atoms used to build the partition table is smoothly restricted to
  | only those atoms whose free-atom density would be non-zero at that grid point.
  Partitioning for Hartree potential was not defined. Using partition_type for integrals.
  | Adjusted default value of keyword multip_moments_threshold to:       0.10000000E-11
  | This value may affect high angular momentum components of the Hartree potential in periodic systems.
  No q(lm)/r^(l+1) cutoff set for long-range Hartree potential.
  | Using default value of  0.100000E-09 .
  | Verify using the multipole_threshold keyword.
  Defaulting to new monopole extrapolation.
  Density update method: automatic selection selected.
------------------------------------------------------------


------------------------------------------------------------
          Reading geometry description geometry.in.
------------------------------------------------------------
 * Warning! You did not set the 'relativistic' flag in input file 'control.in'.
 * Since you are not attempting to treat any elements beyond Ca(Z=20), FHI-aims
 * will default to 'relativistic none'.
 * You must ensure that this is really what you want!!
 * For example, DO NOT compute total-energy differences between results from
 * different settings of the 'relativistic' flag.
  Input structure read successfully.
  The structure contains       32 atoms,  and a total of        116.000 electrons.

  Input geometry:
  | No unit cell requested.
  | Atomic structure:
  |       Atom                x [A]            y [A]            z [A]
  |    1: Species C             -1.654386        -1.034181        -0.265962
  |    2: Species C             -1.140908        -1.024160         1.162832
  |    3: Species O             -0.283555        -1.821949         1.548568
  |    4: Species H             -0.811226        -0.847574        -0.943105
  |    5: Species H             -2.438484        -0.291784        -0.460159
  |    6: Species H             -2.042164        -2.034654        -0.494326
  |    7: Species N             -1.691546        -0.072412         1.970492
  |    8: Species C             -1.324384         0.108201         3.371686
  |    9: Species C             -2.623847         0.025689         4.187038
  |   10: Species O             -3.512245         0.858499         3.994304
  |   11: Species H             -2.423213         0.531414         1.610319
  |   12: Species H             -0.627303        -0.697034         3.612072
  |   13: Species C             -0.637994         1.455529         3.611382
  |   14: Species H             -0.337715         1.535452         4.662400
  |   15: Species H             -1.316979         2.283352         3.370201
  |   16: Species H              0.257208         1.526024         2.980911
  |   17: Species N             -2.818745        -0.977643         5.099165
  |   18: Species C             -2.016875        -2.126044         5.510180
  |   19: Species C             -0.749695        -1.699266         6.290506
  |   20: Species O             -0.231891        -0.596158         6.145864
  |   21: Species H             -3.713133        -0.871094         5.569154
  |   22: Species H             -2.668787        -2.659494         6.218099
  |   23: Species C             -1.689890        -3.106589         4.367650
  |   24: Species H             -1.255820        -4.033676         4.762574
  |   25: Species H             -0.985741        -2.692507         3.636405
  |   26: Species H             -2.615637        -3.365411         3.838441
  |   27: Species N             -0.221359        -2.612196         7.162799
  |   28: Species C             -0.646169        -3.968512         7.460854
  |   29: Species H              0.643852        -2.287895         7.585367
  |   30: Species H             -0.234309        -4.709444         6.757601
  |   31: Species H             -1.739611        -4.053553         7.449055
  |   32: Species H             -0.310679        -4.231673         8.470968
  |

  | The smallest distance between any two atoms is         1.01472519 AA.
  |
  | The first atom of this pair is atom number                      7 .
  | The second atom of this pair is atom number                    11 .

  Number of empty states per atom not set in control.in - providing a guess from actual geometry.
  | Total number of empty states used during s.c.f. cycle:       71
  If you use a very high smearing, use empty_states (per atom!) in control.in to increase this value.

  Structure-dependent array size parameters: 
  | Maximum number of distinct radial functions  :       40
  | Maximum number of basis functions            :      840
  | Number of Kohn-Sham states (occupied + empty):      129
------------------------------------------------------------

------------------------------------------------------------
          Preparing all fixed parts of the calculation.
------------------------------------------------------------
  Determining machine precision:
    2.225073858507201E-308
  Setting up grids for atomic and cluster calculations.

  Creating wave function, potential, and density for free atoms.

  Species: H

  List of occupied orbitals and eigenvalues:
    n    l              occ      energy [Ha]    energy [eV]
    1    0           1.0000        -0.238382        -6.4867


  Species: C

  List of occupied orbitals and eigenvalues:
    n    l              occ      energy [Ha]    energy [eV]
    1    0           2.0000       -10.041232      -273.2358
    2    0           2.0000        -0.504327       -13.7234
    2    1           2.0000        -0.193750        -5.2722


  Species: N

  List of occupied orbitals and eigenvalues:
    n    l              occ      energy [Ha]    energy [eV]
    1    0           2.0000       -14.129007      -384.4699
    2    0           2.0000        -0.681802       -18.5528
    2    1           3.0000        -0.260543        -7.0897


  Species: O

  List of occupied orbitals and eigenvalues:
    n    l              occ      energy [Ha]    energy [eV]
    1    0           2.0000       -18.898576      -514.2564
    2    0           2.0000        -0.878795       -23.9132
    2    1           4.0000        -0.332075        -9.0362

  Creating fixed part of basis set: Ionic, confined, hydrogenic.
 
  H                    hydrogenic:
 
  List of hydrogenic basis orbitals: 
    n    l      effective z      eigenvalue [eV]  inner max. [A]     outer max. [A]     outer radius [A]   
    2    0         2.100000       -14.9965           0.193243           1.317208           5.373006
    2    1         3.500000       -41.6672           0.602369           0.602369           4.056063
    1    0         0.850000        -9.8292           0.624871           0.624871           5.373006
    2    1         3.700000       -46.5653           0.573622           0.573622           3.910002
    2    0         1.200000        -4.5995           0.334980           2.228188           5.505995
    3    2         7.000000       -74.0753           0.680699           0.680699           3.769201
 
 
  C                    hydrogenic:
 
  List of hydrogenic basis orbitals: 
    n    l      effective z      eigenvalue [eV]  inner max. [A]     outer max. [A]     outer radius [A]   
    2    1         1.700000        -9.8152           1.245706           1.245706           5.401630
    3    2         6.000000       -54.4226           0.792453           0.792453           4.178599
    2    0         4.900000       -81.6681           0.082559           0.562749           3.353238
    4    3         9.800000       -81.6681           0.863254           0.863254           4.028125
    3    1         5.200000       -40.8774           0.305389           1.215618           4.898362
    3    0         4.300000       -27.9508           0.091041           1.610311           5.401630
    5    4        14.400000      -112.8510           0.917666           0.917666           3.883070
    3    2         6.200000       -58.1113           0.763917           0.763917           4.077671
 
 
  N                    hydrogenic:
 
  List of hydrogenic basis orbitals: 
    n    l      effective z      eigenvalue [eV]  inner max. [A]     outer max. [A]     outer radius [A]   
    2    1         1.800000       -11.0118           1.177451           1.177451           5.427479
    3    2         6.800000       -69.9029           0.704619           0.704619           3.854246
    3    0         5.800000       -50.8549           0.067388           1.191934           4.629968
    4    3        10.800000       -99.1854           0.786571           0.786571           3.761152
    3    1         5.800000       -50.8549           0.274880           1.094176           4.518138
    1    0         0.800000        -8.7059           0.662839           0.662839           5.361532
    5    4        16.000000      -139.3222           0.825990           0.825990           3.625711
    3    2         4.900000       -36.2967           0.968267           0.968267           4.862000
 
 
  O                    hydrogenic:
 
  List of hydrogenic basis orbitals: 
    n    l      effective z      eigenvalue [eV]  inner max. [A]     outer max. [A]     outer radius [A]   
    2    1         1.800000       -11.0118           1.178562           1.178562           5.432602
    3    2         7.600000       -87.3182           0.624125           0.624125           3.541477
    3    0         6.400000       -61.9209           0.061167           1.081902           4.306578
    4    3        11.600000      -114.4238           0.731631           0.731631           3.585037
    3    1         6.200000       -58.1113           0.255680           1.030270           4.306578
    3    2         5.600000       -47.4081           0.847233           0.847233           4.413171
    5    4        17.600000      -168.5799           0.749740           0.749740           3.372465
    1    0         0.750000        -7.6499           0.705284           0.705284           5.366593
 

  Adding cutoff potential to free-atom effective potential.
  Creating atomic-like basis functions for current effective potential.

  Species H                   :

  List of atomic basis orbitals and eigenvalues:
    n    l      energy [Ha]    energy [eV]    outer radius [A]
    1    0        -0.238382        -6.4867       5.373006


  Species C                   :

  List of atomic basis orbitals and eigenvalues:
    n    l      energy [Ha]    energy [eV]    outer radius [A]
    1    0       -10.041232      -273.2358       1.934409
    2    0        -0.504327       -13.7234       5.271162
    2    1        -0.193750        -5.2722       5.401630


  Species N                   :

  List of atomic basis orbitals and eigenvalues:
    n    l      energy [Ha]    energy [eV]    outer radius [A]
    1    0       -14.129007      -384.4699       1.637919
    2    0        -0.681802       -18.5528       5.168461
    2    1        -0.260543        -7.0897       5.361532


  Species O                   :

  List of atomic basis orbitals and eigenvalues:
    n    l      energy [Ha]    energy [eV]    outer radius [A]
    1    0       -18.898576      -514.2564       1.415765
    2    0        -0.878795       -23.9132       5.048385
    2    1        -0.332075        -9.0362       5.301386

  Assembling full basis from fixed parts.
  | Species H :   atomic orbital   1 s accepted.
  | Species H :    hydro orbital   2 s accepted.
  | Species H :    hydro orbital   1 s accepted.
  | Species H :    hydro orbital   2 s accepted.
  | Species H :    hydro orbital   2 p accepted.
  | Species H :    hydro orbital   2 p accepted.
  | Species H :    hydro orbital   3 d accepted.
  | Species C :   atomic orbital   1 s accepted.
  | Species C :    hydro orbital   2 s accepted.
  | Species C :   atomic orbital   2 s accepted.
  | Species C :    hydro orbital   3 s accepted.
  | Species C :    hydro orbital   3 p accepted.
  | Species C :   atomic orbital   2 p accepted.
  | Species C :    hydro orbital   2 p accepted.
  | Species C :    hydro orbital   3 d accepted.
  | Species C :    hydro orbital   3 d accepted.
  | Species C :    hydro orbital   4 f accepted.
  | Species C :    hydro orbital   5 g accepted.
  | Species N :   atomic orbital   1 s accepted.
  | Species N :    hydro orbital   3 s accepted.
  | Species N :   atomic orbital   2 s accepted.
  | Species N :    hydro orbital   1 s accepted.
  | Species N :    hydro orbital   3 p accepted.
  | Species N :   atomic orbital   2 p accepted.
  | Species N :    hydro orbital   2 p accepted.
  | Species N :    hydro orbital   3 d accepted.
  | Species N :    hydro orbital   3 d accepted.
  | Species N :    hydro orbital   4 f accepted.
  | Species N :    hydro orbital   5 g accepted.
  | Species O :   atomic orbital   1 s accepted.
  | Species O :    hydro orbital   3 s accepted.
  | Species O :   atomic orbital   2 s accepted.
  | Species O :    hydro orbital   1 s accepted.
  | Species O :    hydro orbital   3 p accepted.
  | Species O :   atomic orbital   2 p accepted.
  | Species O :    hydro orbital   2 p accepted.
  | Species O :    hydro orbital   3 d accepted.
  | Species O :    hydro orbital   3 d accepted.
  | Species O :    hydro orbital   4 f accepted.
  | Species O :    hydro orbital   5 g accepted.
 
  Basis size parameters after reduction:
  | Total number of radial functions:       40
  | Total number of basis functions :      840
 
  Testing on-site integration grid accuracy.
  |  Species  Function  <phi|h_atom|phi> (log., in eV)  <phi|h_atom|phi> (rad., in eV)
           1        1                 -6.4869821809                 -6.4870742227
           1        2                 13.5044133542                 13.5041049177
           1        3                 32.7854418792                 32.7779770519
           1        4                 33.7995553101                 33.7152624900 ***
           1        5                 28.8558651799                 28.8558652046
           1        6                 59.6361831893                 59.6362535845
           1        7                 60.2733718049                 60.2733715484
           2        8               -273.2358277112               -273.2358261765
           2        9                -10.7624923123                -10.7625144012
           2       10                 17.4634079027                 17.4634252127
           2       11                 53.0363661832                 53.0366180446
           2       12                 15.0981351967                 15.0981317714
           2       13                  3.8522181899                  3.8522770949
           2       14                 12.1181835661                 12.1206868578
           2       15                 29.4320778347                 29.4320780959
           2       16                 54.8753777694                 54.8752901936
           2       17                 59.3533975461                 59.3533974833
           2       18                 93.4537491195                 93.4537492066
           3       19               -384.4698526889               -384.4698499465
           3       20                 12.5691022037                 12.5690910168
           3       21                -15.7489097511                -15.7489165588
           3       22                 27.0978334940                 27.0985589490
           3       23                 18.5949116966                 18.5949125562
           3       24                  1.2212828291                  1.2212855301
           3       25                 13.4428926797                 13.4434051125
           3       26                 35.9380614500                 35.9380613666
           3       27                 39.9231532098                 39.9231654735
           3       28                 72.9957335806                 72.9957336833
           3       29                116.4231321147                116.4231321431
           4       30               -514.2564144315               -514.2564099626
           4       31                 15.1726678541                 15.1726530877
           4       32                -21.5447785304                -21.5447874973
           4       33                 14.4944558459                 14.4944698284
           4       34                 20.8882174564                 20.8882178906
           4       35                 -2.4850315908                 -2.4850322289
           4       36                 13.8600193195                 13.8599826966
           4       37                 45.8243383616                 45.8243383675
           4       38                 52.1840606465                 52.1840622440
           4       39                 85.4074185510                 85.4074185819
           4       40                142.0983717302                142.0983717339
 * Note: Onsite integrals marked "***" above are less accurate than
 * onsite_accuracy_threshold =    0.03000 eV. Usually, this is harmless.
 * When in doubt, tighten the "radial" and/or "radial_multiplier" flags to check.

  Preparing densities etc. for the partition functions (integrals / Hartree potential).

  Preparations completed.
  max(cpu_time)          :      0.240 s.
  Wall clock time (cpu1) :      0.236 s.
------------------------------------------------------------

------------------------------------------------------------
          Begin self-consistency loop: Initialization.

          Date     :  20170309, Time     :  180756.501
------------------------------------------------------------

  Initializing index lists of integration centers etc. from given atomic structure:
  | Number of centers in hartree potential         :        32
  | Number of centers in hartree multipole         :        32
  | Number of centers in electron density summation:        32
  | Number of centers in basis integrals           :        32
  | Number of centers in integrals                 :        32
  | Number of centers in hamiltonian               :        32
  Using modified Scalapack Eigenvalue solver (ELPA)
  * Using 32 tasks for Scalapack Eigenvalue solver.
  Detailed listing of tasks and assigned k-points:
  (for non-periodic systems, the "k-point" denotes an internal label only)
   Task     0 k-point     1 on eos383
   Task     1 k-point     1 on eos383
   Task     2 k-point     1 on eos383
   Task     3 k-point     1 on eos383
   Task     4 k-point     1 on eos383
   Task     5 k-point     1 on eos383
   Task     6 k-point     1 on eos383
   Task     7 k-point     1 on eos383
   Task     8 k-point     1 on eos383
   Task     9 k-point     1 on eos383
   Task    10 k-point     1 on eos383
   Task    11 k-point     1 on eos383
   Task    12 k-point     1 on eos383
   Task    13 k-point     1 on eos383
   Task    14 k-point     1 on eos383
   Task    15 k-point     1 on eos383
   Task    16 k-point     1 on eos383
   Task    17 k-point     1 on eos383
   Task    18 k-point     1 on eos383
   Task    19 k-point     1 on eos383
   Task    20 k-point     1 on eos383
   Task    21 k-point     1 on eos383
   Task    22 k-point     1 on eos383
   Task    23 k-point     1 on eos383
   Task    24 k-point     1 on eos383
   Task    25 k-point     1 on eos383
   Task    26 k-point     1 on eos383
   Task    27 k-point     1 on eos383
   Task    28 k-point     1 on eos383
   Task    29 k-point     1 on eos383
   Task    30 k-point     1 on eos383
   Task    31 k-point     1 on eos383
  Tasks:    32 split into      8 X      4 BLACS grid
  Calculating blocksize based on n_basis =          840 max_nprow =            8 max_npcol =            4
  Scalapack blocksize set to:           16
  Required Scalapack workspace - INTEGER:            1 REAL:             1
  Partitioning the integration grid into batches with parallel hashing+maxmin method.
  | Number of batches:     5079
  | Maximal batch size:     200
  | Minimal batch size:      28
  | Average batch size:     103.904
  | Standard deviation of batch sizes:      28.995

  Integration load balanced across    32 MPI tasks.
  Work distribution over tasks is as follows:
  Task     0 has      16552 integration points.
  Task     1 has      16477 integration points.
  Task     2 has      16444 integration points.
  Task     3 has      16547 integration points.
  Task     4 has      16537 integration points.
  Task     5 has      16438 integration points.
  Task     6 has      16481 integration points.
  Task     7 has      16550 integration points.
  Task     8 has      16536 integration points.
  Task     9 has      16462 integration points.
  Task    10 has      16453 integration points.
  Task    11 has      16487 integration points.
  Task    12 has      16506 integration points.
  Task    13 has      16467 integration points.
  Task    14 has      16550 integration points.
  Task    15 has      16474 integration points.
  Task    16 has      16483 integration points.
  Task    17 has      16448 integration points.
  Task    18 has      16552 integration points.
  Task    19 has      16449 integration points.
  Task    20 has      16473 integration points.
  Task    21 has      16504 integration points.
  Task    22 has      16534 integration points.
  Task    23 has      16438 integration points.
  Task    24 has      16456 integration points.
  Task    25 has      16471 integration points.
  Task    26 has      16542 integration points.
  Task    27 has      16484 integration points.
  Task    28 has      16509 integration points.
  Task    29 has      16476 integration points.
  Task    30 has      16464 integration points.
  Task    31 has      16484 integration points.
  Initializing partition tables, free-atom densities, potentials, etc. across the integration grid (initialize_grid_storage).
  | initialize_grid_storage: Actual outermost partition radius vs. multipole_radius_free
  | (-- VB: in principle, multipole_radius_free should be larger, hence this output)
  | Species        1: Confinement radius =              6.000000000000000 AA, multipole_radius_free =              6.071692442739658 AA.
  | Species        1: outer_partition_radius set to              6.071692442739658 AA .
  | Species        2: Confinement radius =              6.000000000000000 AA, multipole_radius_free =              6.029870734432609 AA.
  | Species        2: outer_partition_radius set to              6.029870734432609 AA .
  | Species        3: Confinement radius =              6.000000000000000 AA, multipole_radius_free =              6.058726835495003 AA.
  | Species        3: outer_partition_radius set to              6.058726835495003 AA .
  | Species        4: Confinement radius =              6.000000000000000 AA, multipole_radius_free =              6.064445521808699 AA.
  | Species        4: outer_partition_radius set to              6.064445521808699 AA .
  | Original list of interatomic distances with          32 x         32 entries is created.
  | Net number of integration points:   527728
  | of which are non-zero points    :   415948
  Obtaining max. number of non-zero basis functions in each batch (get_n_compute_maxes).
  | Maximal number of non-zero basis functions:      751 in task     0
  | Maximal number of non-zero basis functions:      758 in task     1
  | Maximal number of non-zero basis functions:      751 in task     2
  | Maximal number of non-zero basis functions:      755 in task     3
  | Maximal number of non-zero basis functions:      752 in task     4
  | Maximal number of non-zero basis functions:      752 in task     5
  | Maximal number of non-zero basis functions:      751 in task     6
  | Maximal number of non-zero basis functions:      759 in task     7
  | Maximal number of non-zero basis functions:      761 in task     8
  | Maximal number of non-zero basis functions:      753 in task     9
  | Maximal number of non-zero basis functions:      763 in task    10
  | Maximal number of non-zero basis functions:      763 in task    11
  | Maximal number of non-zero basis functions:      759 in task    12
  | Maximal number of non-zero basis functions:      732 in task    13
  | Maximal number of non-zero basis functions:      760 in task    14
  | Maximal number of non-zero basis functions:      755 in task    15
  | Maximal number of non-zero basis functions:      759 in task    16
  | Maximal number of non-zero basis functions:      754 in task    17
  | Maximal number of non-zero basis functions:      757 in task    18
  | Maximal number of non-zero basis functions:      752 in task    19
  | Maximal number of non-zero basis functions:      742 in task    20
  | Maximal number of non-zero basis functions:      770 in task    21
  | Maximal number of non-zero basis functions:      754 in task    22
  | Maximal number of non-zero basis functions:      756 in task    23
  | Maximal number of non-zero basis functions:      772 in task    24
  | Maximal number of non-zero basis functions:      755 in task    25
  | Maximal number of non-zero basis functions:      759 in task    26
  | Maximal number of non-zero basis functions:      757 in task    27
  | Maximal number of non-zero basis functions:      757 in task    28
  | Maximal number of non-zero basis functions:      760 in task    29
  | Maximal number of non-zero basis functions:      759 in task    30
  | Maximal number of non-zero basis functions:      758 in task    31
  Selecting the method for density update.
  Loop over occupied states selected for charge density update.
  Integrating Hamiltonian matrix: batch-based integration.
  Time summed over all CPUs for integration: real work       21.529 s, elapsed       22.436 s
  Integrating overlap matrix.
  Time summed over all CPUs for integration: real work       13.098 s, elapsed       13.583 s
  Deallocating overlap matrix.

  Updating Kohn-Sham eigenvalues, eigenvectors, occupation numbers, and Fermi level.
  Solving generalized eigenproblem
  Solving real symmetric generalised eigenvalue problem by standard ScaLAPACK.
  Transforming overlap matrix with ScaLAPACK and checking for singularities.
  : Overlap matrix is nonsingular, using Cholesky decomposition
  | Lowest eigenvalue:  0.900422E-04
  Factoring overlap matrix with Cholesky decomposition
  Using Cholesky factor for transformation
  Using 1-stage real ELPA solver
  Determining occupation numbers for Kohn-Sham eigenstates.
  | Chemical potential (Fermi level) in eV                 : -.94601657E+01
  | Error in electron count due to remaining E_F inaccuracy: 0.00000000E+00
  | Maximum occupation number of highest empty state:  0.00E+00

  Writing Kohn-Sham eigenvalues.

  State    Occupation    Eigenvalue [Ha]    Eigenvalue [eV]
      1       2.00000         -18.974871         -516.33252
      2       2.00000         -18.973441         -516.29360
      3       2.00000         -18.973256         -516.28856
      4       2.00000         -14.255270         -387.90564
      5       2.00000         -14.254487         -387.88433
      6       2.00000         -14.253454         -387.85621
      7       2.00000         -10.171125         -276.77040
      8       2.00000         -10.170789         -276.76125
      9       2.00000         -10.170337         -276.74894
     10       2.00000         -10.166690         -276.64971
     11       2.00000         -10.150359         -276.20531
     12       2.00000         -10.147227         -276.12008
     13       2.00000         -10.136171         -275.81925
     14       2.00000         -10.133817         -275.75518
     15       2.00000         -10.133656         -275.75081
     16       2.00000          -1.134389          -30.86829
     17       2.00000          -1.131037          -30.77707
     18       2.00000          -1.127555          -30.68234
     19       2.00000          -1.015749          -27.63994
     20       2.00000          -1.011831          -27.53332
     21       2.00000          -1.007762          -27.42260
     22       2.00000          -0.887641          -24.15393
     23       2.00000          -0.876109          -23.84013
     24       2.00000          -0.841512          -22.89871
     25       2.00000          -0.816792          -22.22604
     26       2.00000          -0.781101          -21.25483
     27       2.00000          -0.761984          -20.73463
     28       2.00000          -0.707457          -19.25089
     29       2.00000          -0.691672          -18.82135
     30       2.00000          -0.671769          -18.27976
     31       2.00000          -0.629532          -17.13042
     32       2.00000          -0.622319          -16.93415
     33       2.00000          -0.608399          -16.55539
     34       2.00000          -0.601539          -16.36872
     35       2.00000          -0.596296          -16.22604
     36       2.00000          -0.591667          -16.10007
     37       2.00000          -0.565252          -15.38130
     38       2.00000          -0.562586          -15.30873
     39       2.00000          -0.557701          -15.17583
     40       2.00000          -0.552703          -15.03982
     41       2.00000          -0.547097          -14.88726
     42       2.00000          -0.544434          -14.81480
     43       2.00000          -0.542118          -14.75178
     44       2.00000          -0.530702          -14.44113
     45       2.00000          -0.523560          -14.24679
     46       2.00000          -0.512050          -13.93358
     47       2.00000          -0.509396          -13.86137
     48       2.00000          -0.497679          -13.54254
     49       2.00000          -0.491655          -13.37862
     50       2.00000          -0.488466          -13.29185
     51       2.00000          -0.479714          -13.05367
     52       2.00000          -0.478140          -13.01085
     53       2.00000          -0.409142          -11.13332
     54       2.00000          -0.405885          -11.04470
     55       2.00000          -0.403152          -10.97032
     56       2.00000          -0.385433          -10.48816
     57       2.00000          -0.382572          -10.41033
     58       2.00000          -0.382131          -10.39831
     59       0.00000          -0.173155           -4.71178
     60       0.00000          -0.157566           -4.28758
     61       0.00000          -0.148637           -4.04462
     62       0.00000          -0.080666           -2.19504
     63       0.00000          -0.067856           -1.84644
     64       0.00000          -0.063049           -1.71565
     65       0.00000          -0.049895           -1.35771
     66       0.00000          -0.047313           -1.28746
     67       0.00000          -0.040451           -1.10072
     68       0.00000          -0.033140           -0.90178
     69       0.00000          -0.030284           -0.82406
     70       0.00000          -0.023658           -0.64376
     71       0.00000          -0.021885           -0.59552
     72       0.00000          -0.019825           -0.53945
     73       0.00000          -0.011487           -0.31259
     74       0.00000          -0.004784           -0.13018
     75       0.00000           0.001134            0.03086
     76       0.00000           0.001508            0.04103
     77       0.00000           0.004169            0.11345
     78       0.00000           0.007826            0.21297
     79       0.00000           0.009137            0.24862
     80       0.00000           0.015482            0.42128
     81       0.00000           0.022451            0.61092
     82       0.00000           0.023378            0.63614
     83       0.00000           0.034908            0.94988
     84       0.00000           0.039580            1.07702
     85       0.00000           0.042035            1.14383
     86       0.00000           0.049257            1.34036
     87       0.00000           0.056060            1.52546
     88       0.00000           0.062633            1.70432
     89       0.00000           0.064334            1.75062
     90       0.00000           0.066849            1.81905
     91       0.00000           0.071841            1.95489
     92       0.00000           0.081333            2.21318
     93       0.00000           0.087193            2.37263
     94       0.00000           0.093481            2.54375
     95       0.00000           0.095679            2.60357
     96       0.00000           0.102643            2.79306
     97       0.00000           0.104524            2.84423
     98       0.00000           0.113112            3.07793
     99       0.00000           0.125103            3.40422
    100       0.00000           0.126475            3.44155
    101       0.00000           0.129846            3.53329
    102       0.00000           0.134178            3.65116
    103       0.00000           0.142177            3.86883
    104       0.00000           0.145487            3.95889
    105       0.00000           0.148174            4.03201
    106       0.00000           0.152295            4.14417
    107       0.00000           0.157581            4.28800
    108       0.00000           0.159983            4.35335
    109       0.00000           0.165372            4.50001
    110       0.00000           0.173666            4.72569
    111       0.00000           0.177668            4.83459
    112       0.00000           0.181831            4.94788
    113       0.00000           0.189205            5.14853
    114       0.00000           0.193367            5.26179
    115       0.00000           0.196150            5.33752
    116       0.00000           0.198115            5.39097
    117       0.00000           0.208915            5.68488
    118       0.00000           0.212568            5.78428
    119       0.00000           0.215350            5.85998
    120       0.00000           0.223642            6.08561
    121       0.00000           0.226333            6.15883
    122       0.00000           0.230066            6.26040
    123       0.00000           0.234326            6.37634
    124       0.00000           0.239519            6.51765
    125       0.00000           0.248348            6.75790
    126       0.00000           0.250605            6.81930
    127       0.00000           0.254405            6.92270
    128       0.00000           0.262674            7.14772
    129       0.00000           0.272006            7.40167

  Highest occupied state (VBM) at    -10.39831330 eV
  | Occupation number:      2.00000000

  Lowest unoccupied state (CBM) at    -4.71177904 eV
  | Occupation number:      0.00000000

  Overall HOMO-LUMO gap:      5.68653426 eV.
  Calculating total energy contributions from superposition of free atom densities.

  Total energy components:
  | Sum of eigenvalues            :        -437.86125649 Ha      -11914.81100796 eV
  | XC energy correction          :         -98.81855462 Ha       -2688.98968546 eV
  | XC potential correction       :         127.01903084 Ha        3456.36368704 eV
  | Free-atom electrostatic energy:        -333.62453364 Ha       -9078.38546350 eV
  | Hartree energy correction     :           0.00000000 Ha           0.00000000 eV
  | vdW energy correction         :           0.00000000 Ha           0.00000000 eV
  | Entropy correction            :          -0.00000000 Ha          -0.00000000 eV
  | ---------------------------
  | Total energy                  :        -743.28531391 Ha      -20225.82246988 eV
  | Total energy, T -> 0          :        -743.28531391 Ha      -20225.82246988 eV  <-- do not rely on this value for anything but (periodic) metals
  | Electronic free energy        :        -743.28531391 Ha      -20225.82246988 eV

  Derived energy quantities:
  | Kinetic energy                :         735.15221530 Ha       20004.50959653 eV
  | Electrostatic energy          :       -1379.61897459 Ha      -37541.34238095 eV
  | Energy correction for multipole
  | error in Hartree potential    :           0.00000000 Ha           0.00000000 eV
  | Sum of eigenvalues per atom                           :        -372.33784400 eV
  | Total energy (T->0) per atom                          :        -632.05695218 eV  <-- do not rely on this value for anything but (periodic) metals
  | Electronic free energy per atom                       :        -632.05695218 eV
  Initialize hartree_potential_storage
  Max. number of atoms included in rho_multipole:           32

  End scf initialization - timings             :  max(cpu_time)    wall_clock(cpu1)
  | Time for scf. initialization               :        1.872 s           1.874 s
  | Boundary condition initialization          :        0.000 s           0.001 s
  | Integration                                :        1.152 s           1.148 s
  | Solution of K.-S. eqns.                    :        0.076 s           0.075 s
  | Grid partitioning                          :        0.316 s           0.309 s
  | Preloading free-atom quantities on grid    :        0.032 s           0.027 s
  | Free-atom superposition energy             :        0.040 s           0.039 s
  | Total energy evaluation                    :        0.004 s           0.001 s
------------------------------------------------------------

------------------------------------------------------------
          Begin self-consistency iteration #    1

  Date     :  20170309, Time     :  180758.376
------------------------------------------------------------
  Evaluating new KS density.
  Integration grid: deviation in total charge (<rho> - N_e) =   5.684342E-14
  Pulay mixing of updated and previous charge densities.

  Evaluating partitioned Hartree potential by multipole expansion.
  | Analytical far-field extrapolation by fixed multipoles:
  | Hartree multipole sum: apparent total charge =   0.230515E-04
  Summing up the Hartree potential.
  Time summed over all CPUs for potential: real work        9.558 s, elapsed        9.811 s
  | RMS charge density error from multipole expansion :   0.106179E-01

  Integrating Hamiltonian matrix: batch-based integration.
  Time summed over all CPUs for integration: real work       21.311 s, elapsed       22.182 s

  Updating Kohn-Sham eigenvalues, eigenvectors, occupation numbers, and Fermi level.
  Solving generalized eigenproblem
  Solving real symmetric generalised eigenvalue problem by standard ScaLAPACK.
  Using Cholesky factor for transformation
  Using 2-stage real ELPA solver
  K-Point:    1, Trafo times: 1-stage=     0.021 s, 2-stage=     0.019 s ==> Using 2-stage solver
  Determining occupation numbers for Kohn-Sham eigenstates.
  | Chemical potential (Fermi level) in eV                 : -.37726184E+01
  | Error in electron count due to remaining E_F inaccuracy: 0.00000000E+00
  | Maximum occupation number of highest empty state:  0.00E+00

  Writing Kohn-Sham eigenvalues.

  State    Occupation    Eigenvalue [Ha]    Eigenvalue [eV]
      1       2.00000         -18.615722         -506.55957
      2       2.00000         -18.610305         -506.41217
      3       2.00000         -18.605052         -506.26922
      4       2.00000         -13.988566         -380.64826
      5       2.00000         -13.987642         -380.62309
      6       2.00000         -13.979674         -380.40629
      7       2.00000         -10.055080         -273.61266
      8       2.00000         -10.045054         -273.33983
      9       2.00000         -10.042507         -273.27052
     10       2.00000          -9.972707         -271.37115
     11       2.00000          -9.936525         -270.38659
     12       2.00000          -9.904310         -269.50998
     13       2.00000          -9.843141         -267.84549
     14       2.00000          -9.836067         -267.65300
     15       2.00000          -9.809286         -266.92425
     16       2.00000          -0.964431          -26.24350
     17       2.00000          -0.954818          -25.98191
     18       2.00000          -0.944438          -25.69946
     19       2.00000          -0.860732          -23.42170
     20       2.00000          -0.860220          -23.40777
     21       2.00000          -0.852366          -23.19405
     22       2.00000          -0.729710          -19.85643
     23       2.00000          -0.721603          -19.63583
     24       2.00000          -0.680684          -18.52235
     25       2.00000          -0.675777          -18.38882
     26       2.00000          -0.633061          -17.22648
     27       2.00000          -0.608438          -16.55643
     28       2.00000          -0.575381          -15.65691
     29       2.00000          -0.553212          -15.05365
     30       2.00000          -0.537026          -14.61321
     31       2.00000          -0.492061          -13.38966
     32       2.00000          -0.479789          -13.05573
     33       2.00000          -0.466940          -12.70609
     34       2.00000          -0.459097          -12.49266
     35       2.00000          -0.443079          -12.05680
     36       2.00000          -0.440065          -11.97479
     37       2.00000          -0.436600          -11.88048
     38       2.00000          -0.423183          -11.51540
     39       2.00000          -0.409103          -11.13225
     40       2.00000          -0.400763          -10.90532
     41       2.00000          -0.389674          -10.60356
     42       2.00000          -0.387374          -10.54098
     43       2.00000          -0.378787          -10.30731
     44       2.00000          -0.371972          -10.12187
     45       2.00000          -0.366423           -9.97088
     46       2.00000          -0.361294           -9.83132
     47       2.00000          -0.348201           -9.47502
     48       2.00000          -0.345001           -9.38796
     49       2.00000          -0.340417           -9.26321
     50       2.00000          -0.333042           -9.06254
     51       2.00000          -0.327558           -8.91331
     52       2.00000          -0.321245           -8.74152
     53       2.00000          -0.234145           -6.37142
     54       2.00000          -0.228165           -6.20868
     55       2.00000          -0.225242           -6.12915
     56       2.00000          -0.212165           -5.77332
     57       2.00000          -0.207774           -5.65382
     58       2.00000          -0.199552           -5.43008
     59       0.00000          -0.050934           -1.38598
     60       0.00000          -0.041748           -1.13601
     61       0.00000          -0.037394           -1.01753
     62       0.00000          -0.027404           -0.74569
     63       0.00000          -0.020621           -0.56112
     64       0.00000          -0.019253           -0.52390
     65       0.00000          -0.004353           -0.11846
     66       0.00000           0.008060            0.21933
     67       0.00000           0.012169            0.33114
     68       0.00000           0.017454            0.47494
     69       0.00000           0.024682            0.67164
     70       0.00000           0.027253            0.74158
     71       0.00000           0.041988            1.14256
     72       0.00000           0.049109            1.33633
     73       0.00000           0.052249            1.42177
     74       0.00000           0.056889            1.54803
     75       0.00000           0.059902            1.63002
     76       0.00000           0.065019            1.76927
     77       0.00000           0.069993            1.90462
     78       0.00000           0.073717            2.00593
     79       0.00000           0.082234            2.23769
     80       0.00000           0.086353            2.34980
     81       0.00000           0.096260            2.61936
     82       0.00000           0.100376            2.73137
     83       0.00000           0.105304            2.86547
     84       0.00000           0.109902            2.99060
     85       0.00000           0.116473            3.16938
     86       0.00000           0.124431            3.38594
     87       0.00000           0.126244            3.43527
     88       0.00000           0.132553            3.60695
     89       0.00000           0.135510            3.68742
     90       0.00000           0.140250            3.81640
     91       0.00000           0.149022            4.05509
     92       0.00000           0.150718            4.10124
     93       0.00000           0.159594            4.34276
     94       0.00000           0.165367            4.49987
     95       0.00000           0.167739            4.56440
     96       0.00000           0.171076            4.65521
     97       0.00000           0.177660            4.83436
     98       0.00000           0.182957            4.97852
     99       0.00000           0.190492            5.18354
    100       0.00000           0.196484            5.34659
    101       0.00000           0.200549            5.45723
    102       0.00000           0.201555            5.48460
    103       0.00000           0.205388            5.58889
    104       0.00000           0.208902            5.68452
    105       0.00000           0.213894            5.82035
    106       0.00000           0.216403            5.88862
    107       0.00000           0.224792            6.11689
    108       0.00000           0.226520            6.16391
    109       0.00000           0.228729            6.22403
    110       0.00000           0.233681            6.35879
    111       0.00000           0.240353            6.54033
    112       0.00000           0.247364            6.73112
    113       0.00000           0.250756            6.82342
    114       0.00000           0.259269            7.05506
    115       0.00000           0.261316            7.11078
    116       0.00000           0.263926            7.18179
    117       0.00000           0.278537            7.57939
    118       0.00000           0.285218            7.76118
    119       0.00000           0.287510            7.82355
    120       0.00000           0.293752            7.99340
    121       0.00000           0.297611            8.09842
    122       0.00000           0.306463            8.33927
    123       0.00000           0.307284            8.36161
    124       0.00000           0.311384            8.47319
    125       0.00000           0.322211            8.76781
    126       0.00000           0.326416            8.88224
    127       0.00000           0.336280            9.15063
    128       0.00000           0.341253            9.28598
    129       0.00000           0.344486            9.37393

  Highest occupied state (VBM) at     -5.43008254 eV
  | Occupation number:      2.00000000

  Lowest unoccupied state (CBM) at    -1.38597508 eV
  | Occupation number:      0.00000000

  Overall HOMO-LUMO gap:      4.04410746 eV.

  Total energy components:
  | Sum of eigenvalues            :        -416.82448593 Ha      -11342.37135566 eV
  | XC energy correction          :        -100.75320623 Ha       -2741.63423427 eV
  | XC potential correction       :         129.52815497 Ha        3524.64042852 eV
  | Free-atom electrostatic energy:        -333.62453364 Ha       -9078.38546350 eV
  | Hartree energy correction     :         -21.03816212 Ha        -572.47751863 eV
  | vdW energy correction         :           0.00000000 Ha           0.00000000 eV
  | Entropy correction            :           0.00000000 Ha           0.00000000 eV
  | ---------------------------
  | Total energy                  :        -742.71223295 Ha      -20210.22814354 eV
  | Total energy, T -> 0          :        -742.71223295 Ha      -20210.22814354 eV  <-- do not rely on this value for anything but (periodic) metals
  | Electronic free energy        :        -742.71223295 Ha      -20210.22814354 eV

  Derived energy quantities:
  | Kinetic energy                :         744.03564070 Ha       20246.23990086 eV
  | Electrostatic energy          :       -1385.99466742 Ha      -37714.83381014 eV
  | Energy correction for multipole
  | error in Hartree potential    :          -0.04181215 Ha          -1.13776636 eV
  | Sum of eigenvalues per atom                           :        -354.44910486 eV
  | Total energy (T->0) per atom                          :        -631.56962949 eV  <-- do not rely on this value for anything but (periodic) metals
  | Electronic free energy per atom                       :        -631.56962949 eV

  Self-consistency convergence accuracy:
  | Change of charge density      :  0.9034E+00
  | Change of sum of eigenvalues  :  0.5724E+03 eV
  | Change of total energy        :  0.1559E+02 eV

  End self-consistency iteration #     1       :  max(cpu_time)    wall_clock(cpu1)
  | Time for this iteration                    :        1.536 s           1.535 s
  | Charge density update                      :        0.484 s           0.481 s
[...]
   ----------------------------------------------------------------
   Total forces(  20)            : -0.685947E-03 -0.260050E-02  0.710688E-03
  atom #   21
   Hellmann-Feynman              :  0.242883E-01  0.483074E-01 -0.470257E-01
   Ionic forces                  :  0.000000E+00  0.000000E+00  0.000000E+00
   Multipole                     :  0.186875E-01 -0.385385E-01  0.142981E-01
   Pulay + GGA                   : -0.544852E-01 -0.706934E-02  0.385847E-01
   Van der Waals                 :  0.132545E-01 -0.330064E-02 -0.664984E-02
   ----------------------------------------------------------------
   Total forces(  21)            :  0.174514E-02 -0.601160E-03 -0.792675E-03
  atom #   22
   Hellmann-Feynman              :  0.261357E-01  0.234000E-01 -0.450962E-01
   Ionic forces                  :  0.000000E+00  0.000000E+00  0.000000E+00
   Multipole                     :  0.156290E-01 -0.586778E-02 -0.169317E-02
   Pulay + GGA                   : -0.360622E-01 -0.295562E-01  0.497896E-01
   Van der Waals                 : -0.533963E-02  0.126441E-01 -0.349203E-02
   ----------------------------------------------------------------
   Total forces(  22)            :  0.362846E-03  0.620150E-03 -0.491802E-03
  atom #   23
   Hellmann-Feynman              :  0.356441E+00 -0.572441E+00 -0.116576E+01
   Ionic forces                  :  0.000000E+00  0.000000E+00  0.000000E+00
   Multipole                     : -0.144346E+00  0.144982E+00  0.262661E+00
   Pulay + GGA                   : -0.211607E+00  0.436697E+00  0.915609E+00
   Van der Waals                 : -0.839848E-03 -0.886969E-02 -0.115038E-01
   ----------------------------------------------------------------
   Total forces(  23)            : -0.351671E-03  0.368335E-03  0.100634E-02
  atom #   24
   Hellmann-Feynman              : -0.201954E-01  0.368332E-01  0.103531E-01
   Ionic forces                  :  0.000000E+00  0.000000E+00  0.000000E+00
   Multipole                     :  0.289778E-02  0.116075E-01 -0.283837E-01
   Pulay + GGA                   :  0.201655E-01 -0.492604E-01  0.379353E-01
   Van der Waals                 : -0.287802E-02  0.134851E-02 -0.204877E-01
   ----------------------------------------------------------------
   Total forces(  24)            : -0.101972E-04  0.528753E-03 -0.582916E-03
  atom #   25
   Hellmann-Feynman              : -0.117314E-01 -0.733484E-02 -0.534342E-03
   Ionic forces                  :  0.000000E+00  0.000000E+00  0.000000E+00
   Multipole                     : -0.198659E-01 -0.139213E-01  0.132081E-01
   Pulay + GGA                   :  0.276491E-01  0.311901E-01 -0.186468E-01
   Van der Waals                 :  0.268388E-02 -0.990369E-02  0.636639E-02
   ----------------------------------------------------------------
   Total forces(  25)            : -0.126427E-02  0.302359E-04  0.393311E-03
  atom #   26
   Hellmann-Feynman              : -0.192846E-02  0.243285E-01  0.338174E-01
   Ionic forces                  :  0.000000E+00  0.000000E+00  0.000000E+00
   Multipole                     :  0.471257E-01 -0.107488E-01 -0.398362E-02
   Pulay + GGA                   : -0.541600E-01 -0.247277E-01 -0.230272E-01
   Van der Waals                 :  0.923276E-02  0.108352E-01 -0.604696E-02
   ----------------------------------------------------------------
   Total forces(  26)            :  0.270012E-03 -0.312815E-03  0.759670E-03
  atom #   27
   Hellmann-Feynman              : -0.119141E+00  0.182434E+01  0.308033E+00
   Ionic forces                  :  0.000000E+00  0.000000E+00  0.000000E+00
   Multipole                     :  0.184304E-01  0.135848E+00 -0.555956E-01
   Pulay + GGA                   :  0.961636E-01 -0.196963E+01 -0.251850E+00
   Van der Waals                 :  0.416880E-02  0.965524E-02 -0.874192E-03
   ----------------------------------------------------------------
   Total forces(  27)            : -0.378556E-03  0.213144E-03 -0.287406E-03
  atom #   28
   Hellmann-Feynman              : -0.528554E+00 -0.205620E+01  0.577018E+00
   Ionic forces                  :  0.000000E+00  0.000000E+00  0.000000E+00
   Multipole                     :  0.819455E-01  0.171564E+00 -0.646245E-02
   Pulay + GGA                   :  0.437034E+00  0.188800E+01 -0.583300E+00
   Van der Waals                 :  0.102242E-01 -0.339220E-02  0.127578E-01
   ----------------------------------------------------------------
   Total forces(  28)            :  0.650175E-03 -0.343890E-04  0.130814E-04
  atom #   29
   Hellmann-Feynman              : -0.425122E-01  0.294388E-01 -0.446317E-01
   Ionic forces                  :  0.000000E+00  0.000000E+00  0.000000E+00
   Multipole                     : -0.100864E-01 -0.412625E-01  0.147440E-01
   Pulay + GGA                   :  0.574716E-01  0.929713E-02  0.356547E-01
   Van der Waals                 : -0.593551E-02  0.144747E-02 -0.680138E-02
   ----------------------------------------------------------------
   Total forces(  29)            : -0.106253E-02 -0.107915E-02 -0.103438E-02
  atom #   30
   Hellmann-Feynman              :  0.153955E-01  0.441709E-01  0.202504E-01
   Ionic forces                  :  0.000000E+00  0.000000E+00  0.000000E+00
   Multipole                     : -0.203807E-01  0.117255E-01  0.183147E-01
   Pulay + GGA                   :  0.960586E-02 -0.607508E-01 -0.338917E-01
   Van der Waals                 : -0.460382E-02  0.514148E-02 -0.388345E-02
   ----------------------------------------------------------------
   Total forces(  30)            :  0.168343E-04  0.287083E-03  0.789852E-03
  atom #   31
   Hellmann-Feynman              :  0.486008E-01  0.358082E-01  0.400946E-02
   Ionic forces                  :  0.000000E+00  0.000000E+00  0.000000E+00
   Multipole                     :  0.229137E-01 -0.235342E-01 -0.464961E-02
   Pulay + GGA                   : -0.702288E-01 -0.625802E-02 -0.251084E-02
   Van der Waals                 : -0.409897E-03 -0.629119E-02  0.316675E-02
   ----------------------------------------------------------------
   Total forces(  31)            :  0.875902E-03 -0.275214E-03  0.157478E-04
  atom #   32
   Hellmann-Feynman              : -0.404679E-02  0.479392E-01 -0.350617E-01
   Ionic forces                  :  0.000000E+00  0.000000E+00  0.000000E+00
   Multipole                     : -0.113786E-01 -0.291709E-01 -0.201203E-01
   Pulay + GGA                   :  0.197604E-01 -0.199877E-01  0.591933E-01
   Van der Waals                 : -0.416567E-02  0.146474E-02 -0.415428E-02
   ----------------------------------------------------------------
   Total forces(  32)            :  0.169309E-03  0.245418E-03 -0.143008E-03

  Timings for VdW correction (Tkatchenko-Scheffler 2009 or later):
  | CPU time:        0.124 s, Wall clock time:        0.121 s.
  Removing unitary transformations (pure translations, rotations) from forces on atoms.
  Atomic forces before filtering:
  | Net force on center of mass :   0.906160E-04 -0.621027E-03 -0.335424E-03 eV/A
  | Net torque on center of mass:  -0.112810E-02  0.468246E-03 -0.193867E-02 eV
  Atomic forces after filtering:
  | Net force on center of mass :   0.653343E-19 -0.740455E-18  0.102357E-17 eV/A
  | Net torque on center of mass:  -0.553175E-18 -0.435625E-17 -0.295026E-17 eV

  Energy and forces in a compact form:
  | Total energy uncorrected      :         -0.202085652141352E+05 eV
  | Total energy corrected        :         -0.202085652141352E+05 eV  <-- do not rely on this value for anything but (periodic) metals
  | Electronic free energy        :         -0.202085652141352E+05 eV
  Total atomic forces (unitary forces cleaned) [eV/Ang]:
  |   1         -0.210488800673492E-03          0.829111212549839E-06          0.341701931248393E-03
  |   2          0.117545661918419E-02         -0.942514954353236E-03          0.188146514517503E-02
  |   3         -0.197740006181381E-02          0.218140088246082E-02         -0.250746888578286E-03
  |   4         -0.351494904627164E-04         -0.409294115343587E-03          0.163481670718340E-03
  |   5          0.206023634066094E-03         -0.525748118288214E-03         -0.944286340121034E-03
  |   6          0.378447949533636E-03          0.184204009968804E-04          0.178000065179477E-03
  |   7         -0.495699703781571E-04          0.103087506850157E-02         -0.256270703033187E-02
  |   8          0.473329135522645E-04         -0.384925000851329E-03          0.136049106457205E-02
  |   9         -0.759033385133865E-03          0.255592245035495E-02         -0.463836747554754E-03
  |  10          0.160782917535230E-02         -0.157847920515956E-02          0.137072271376362E-02
  |  11          0.159820243247144E-03         -0.929963650105210E-03          0.118583173693904E-02
  |  12         -0.625074898655881E-03          0.699545308965827E-03         -0.486830024186521E-03
  |  13         -0.721080078080458E-03         -0.105068874124261E-02         -0.837769850869560E-04
  |  14         -0.451824103811643E-04          0.421695393387315E-03         -0.395653846171843E-03
  |  15          0.995420331886866E-03          0.928173461397536E-05         -0.205145480094885E-04
  |  16          0.173610609835878E-04          0.243874606917417E-03          0.616257354202731E-03
  |  17          0.438813627568917E-03         -0.500837652704004E-03         -0.192761466038387E-02
  |  18         -0.102486466037457E-02         -0.115374795674288E-02         -0.866948787132498E-04
  |  19         -0.614156203546625E-04          0.276171452748142E-02         -0.280574630439754E-03
  |  20         -0.716285438338700E-03         -0.257152844599371E-02          0.732746654880171E-03
  |  21          0.172352061700216E-02         -0.628888670362183E-03         -0.796208199689585E-03
  |  22          0.367236192978040E-03          0.607163183831336E-03         -0.496567815112356E-03
  |  23         -0.326739514593287E-03          0.380875550894102E-03          0.100627709507735E-02
  |  24          0.278098951870693E-04          0.546824567277906E-03         -0.584369887725222E-03
  |  25         -0.124131154014169E-02          0.582820651211152E-04          0.400128821774195E-03
  |  26          0.303054556785503E-03         -0.313561275911611E-03          0.751913640902790E-03
  |  27         -0.381563554161197E-03          0.237448657331277E-03         -0.274873854832691E-03
  |  28          0.668248016901283E-03         -0.187575592877767E-04          0.161907552169094E-04
  |  29         -0.107401800703554E-02         -0.104208462419287E-02         -0.101427114364824E-02
  |  30          0.524640682200129E-04          0.313096053477194E-03          0.792305890641176E-03
  |  31          0.895509399609237E-03         -0.278197095761034E-03          0.108249157222801E-04
  |  32          0.184829128520891E-03          0.261967503474157E-03         -0.138811975427825E-03

  ------------------------------------ 
  Start decomposition of the XC Energy 
  ------------------------------------ 
  Hartree-Fock part   :          0.000000000 Ha              0.000000000 eV
  ------------------------------------ 
  X Energy            :        -96.987565704 Ha          -2639.165942086 eV
  C Energy GGA        :         -3.868718712 Ha           -105.273192395 eV
  Total XC Energy     :       -100.856284416 Ha          -2744.439134481 eV
  LDA X and C from self-consistent density 
  X Energy LDA        :        -88.004245318 Ha          -2394.717356986 eV
  C Energy LDA        :         -7.532273546 Ha           -204.963591623 eV
  ------------------------------------ 
  End decomposition of the XC Energy 
  ------------------------------------ 
   
  ESP charge fitting starts.
  | Calculation :  00000001  of  00000001
  | Full density
  Computing multipole expansion for total density.
  Generating points for esp charges.
  Partitioning the integration grid into batches with parallel hashing+maxmin method.
  | Number of batches:     3930
  | Maximal batch size:     196
  | Minimal batch size:      53
  | Average batch size:     123.975
  | Standard deviation of batch sizes:      16.152

  Integration load balanced across    32 MPI tasks.
  Work distribution over tasks is as follows:
  Initializing partition tables, free-atom densities, potentials, etc. across the integration grid (initialize_grid_storage).
  | Original list of interatomic distances with          32 x         32 entries is created.
  | Net number of integration points:   487222
  | of which are non-zero points    :   487222
  Summing up potential from multipole expanded  density.
  Summing up the Hartree potential.
  Time summed over all CPUs for potential: real work        6.359 s, elapsed        6.585 s
  Fitting esp charges to potential.
  |
  | ESP charges fitted to the electrostatic potential :
  |
  | Atom         1: C, ESP charge:      0.86912662
  |
  | Atom         2: C, ESP charge:     -0.80047423
  |
  | Atom         3: O, ESP charge:      0.61297270
  |
  | Atom         4: H, ESP charge:     -0.24329135
  |
  | Atom         5: H, ESP charge:     -0.22790949
  |
  | Atom         6: H, ESP charge:     -0.23433729
  |
  | Atom         7: N, ESP charge:      0.77801250
  |
  | Atom         8: C, ESP charge:     -0.97863020
  |
  | Atom         9: C, ESP charge:     -0.53458201
  |
  | Atom        10: O, ESP charge:      0.57885100
  |
  | Atom        11: H, ESP charge:     -0.29408566
  |
  | Atom        12: H, ESP charge:      0.15422951
  |
  | Atom        13: C, ESP charge:      0.48755984
  |
  | Atom        14: H, ESP charge:     -0.13080049
  |
  | Atom        15: H, ESP charge:     -0.07367713
  |
  | Atom        16: H, ESP charge:     -0.09195647
  |
  | Atom        17: N, ESP charge:      0.86712906
  |
  | Atom        18: C, ESP charge:     -0.70443237
  |
  | Atom        19: C, ESP charge:     -0.29939141
  |
  | Atom        20: O, ESP charge:      0.55347257
  |
  | Atom        21: H, ESP charge:     -0.36924187
  |
  | Atom        22: H, ESP charge:     -0.00653939
  |
  | Atom        23: C, ESP charge:      0.69789804
  |
  | Atom        24: H, ESP charge:     -0.14551900
  |
  | Atom        25: H, ESP charge:     -0.27814246
  |
  | Atom        26: H, ESP charge:     -0.13929517
  |
  | Atom        27: N, ESP charge:      0.37090729
  |
  | Atom        28: C, ESP charge:      0.24311968
  |
  | Atom        29: H, ESP charge:     -0.33570759
  |
  | Atom        30: H, ESP charge:     -0.10793778
  |
  | Atom        31: H, ESP charge:     -0.08450850
  |
  | Atom        32: H, ESP charge:     -0.13281897

  RRMS:       0.00369873

  Done.

------------------------------------------------------------------------------
  Final output of selected total energy values:

  The following output summarizes some interesting total energy values
  at the end of a run (AFTER all relaxation, molecular dynamics, etc.).

  | Total energy of the DFT / Hartree-Fock s.c.f. calculation      :         -20208.565214135 eV
  | Final zero-broadening corrected energy (caution - metals only) :         -20208.565214135 eV
  | For reference only, the value of 1 Hartree used in FHI-aims is :             27.211384500 eV

  Before relying on these values, please be sure to understand exactly which
  total energy value is referred to by a given number. Different objects may
  all carry the same name 'total energy'. Definitions:

  Total energy of the DFT / Hartree-Fock s.c.f. calculation:
  | Note that this energy does not include ANY quantities calculated after the
  | s.c.f. cycle, in particular not ANY RPA, MP2, etc. many-body perturbation terms.

  Final zero-broadening corrected energy:
  | For metallic systems only, a broadening of the occupation numbers at the Fermi
  | level can be extrapolated back to zero broadening by an electron-gas inspired
  | formula. For all systems that are not real metals, this value can be
  | meaningless and should be avoided.

------------------------------------------------------------------------------
  Methods described in the following list of references were used in this FHI-aims run.
  If you publish the results, please make sure to cite these reference if they apply.
  FHI-aims is an academic code, and for our developers (often, Ph.D. students
  and postdocs), scientific credit in the community is essential.
  Thank you for helping us!

  For any use of FHI-aims, please cite:

    Volker Blum, Ralf Gehrke, Felix Hanke, Paula Havu, Ville Havu,
    Xinguo Ren, Karsten Reuter, and Matthias Scheffler
    'Ab initio molecular simulations with numeric atom-centered orbitals'
    Computer Physics Communications 180, 2175-2196 (2009)
    http://dx.doi.org/10.1016/j.cpc.2009.06.022


  The scalable eigensolver library ELPA was used in your run.
  ELPA is essential especially for large systems on hundreds or thousands of CPUs.
  For ELPA, please cite:

    Andreas Marek, Volker Blum, Rainer Johanni, Ville Havu, Bruno Lang,
    Thomas Auckenthaler, Alexander Heinecke, Hans-Joachim Bungartz, and Hermann Lederer,
    'The ELPA Library - Scalable Parallel Eigenvalue Solutions
    for Electronic Structure Theory and Computational Science'
    The Journal of Physics: Condensed Matter 26, 213201 (2014).
    http://dx.doi.org/10.1088/0953-8984/26/21/213201


  For ELPA's efficient two-stage tridiagonalization used in your run, please cite:

    T. Auckenthaler, V. Blum, H.-J. Bungartz, T. Huckle, R. Johanni, L. Kraemer,
    B. Lang, H. Lederer, and P. R. Willems,
    'Parallel solution of partial symmetric eigenvalue problems'
    'from  electronic structure calculations'
    Parallel Computing 37, 783-794 (2011).
    http://dx.doi.org/10.1016/j.parco.2011.05.002


  For the real-space grid partitioning and parallelization used in this calculation, please cite:

    Ville Havu, Volker Blum, Paula Havu, and Matthias Scheffler,
    'Efficient O(N) integration for all-electron electronic structure calculation'
    'using numerically tabulated basis functions'
    Journal of Computational Physics 228, 8367-8379 (2009).
    http://dx.doi.org/10.1016/j.jcp.2009.08.008

  Of course, there are many other important community references, e.g., those cited in the
  above references. Our list is limited to references that describe implementations in the
  FHI-aims code. The reason is purely practical (length of this list) - please credit others as well.

------------------------------------------------------------
          Leaving FHI-aims.
          Date     :  20170309, Time     :  180825.956

          Computational steps:
          | Number of self-consistency cycles          :           14

          Detailed time accounting                     :  max(cpu_time)    wall_clock(cpu1)
          | Total time                                 :       30.370 s          30.506 s
          | Preparation time                           :        0.240 s           0.236 s
          | Grid partitioning                          :        0.316 s           0.309 s
          | Preloading free-atom quantities on grid    :        0.032 s           0.027 s
          | Free-atom superposition energy             :        0.040 s           0.039 s
          | Total time for integrations                :       10.993 s          10.977 s
          | Total time for solution of K.-S. equations :        0.528 s           0.496 s
          | Total time for density & force components  :        9.577 s           9.554 s
          | Total time for mixing                      :        0.124 s           0.107 s
          | Total time for Hartree multipole update    :        0.068 s           0.059 s
          | Total time for Hartree multipole sum       :        6.352 s           6.341 s
          | Total time for total energy evaluation     :        0.020 s           0.019 s
          | Total time for vdW correction              :        0.124 s           0.121 s

          Have a nice day.
------------------------------------------------------------
