  MPI-parallelism will be employed.
------------------------------------------------------------
          Invoking FHI-aims ...
          Version 150427
          Git rev.: 9dd23e0 BL: Update Version stamp
          Compiled on 2015/11/03 at 22:05:20 on host eos03.

          When using FHI-aims, please cite the following reference:

          Volker Blum, Ralf Gehrke, Felix Hanke, Paula Havu,
          Ville Havu, Xinguo Ren, Karsten Reuter, and Matthias Scheffler,
          'Ab Initio Molecular Simulations with Numeric Atom-Centered Orbitals: FHI-aims',
          Computer Physics Communications 180, 2175-2196 (2009)

          For any questions about FHI-aims, please visit the aimsclub website
          with its forums and wiki. Contributions to both the forums and the
          wiki are warmly encouraged - they are for you, and everyone is welcome there.

------------------------------------------------------------

  Date     :  20170309, Time     :  175810.463
  Time zero on CPU 1             :   0.296018000000000E+00  s.
  Internal wall clock time zero  :           258314290.463  s.

  Using       32 parallel tasks.
  Task        0 on host eos195 reporting.
  Task        1 on host eos195 reporting.
  Task        2 on host eos195 reporting.
  Task        3 on host eos195 reporting.
  Task        4 on host eos195 reporting.
  Task        5 on host eos195 reporting.
  Task        6 on host eos195 reporting.
  Task        7 on host eos195 reporting.
  Task        8 on host eos195 reporting.
  Task        9 on host eos195 reporting.
  Task       10 on host eos195 reporting.
  Task       11 on host eos195 reporting.
  Task       12 on host eos195 reporting.
  Task       13 on host eos195 reporting.
  Task       14 on host eos195 reporting.
  Task       15 on host eos195 reporting.
  Task       16 on host eos195 reporting.
  Task       17 on host eos195 reporting.
  Task       18 on host eos195 reporting.
  Task       19 on host eos195 reporting.
  Task       20 on host eos195 reporting.
  Task       21 on host eos195 reporting.
  Task       22 on host eos195 reporting.
  Task       23 on host eos195 reporting.
  Task       24 on host eos195 reporting.
  Task       25 on host eos195 reporting.
  Task       26 on host eos195 reporting.
  Task       27 on host eos195 reporting.
  Task       28 on host eos195 reporting.
  Task       29 on host eos195 reporting.
  Task       30 on host eos195 reporting.
  Task       31 on host eos195 reporting.

  Performing system and environment tests:
  | Environment variable OMP_NUM_THREADS correctly set to 1.
  | Stacksize not measured: no C compiler
  | Checking for scalapack...
  | Testing pdtran()...
  | All pdtran() tests passed.

  Obtaining array dimensions for all initial allocations:
  
  -----------------------------------------------------------------------
  Parsing control.in (first pass over file, find array dimensions only).
  The contents of control.in will be repeated verbatim below
  unless switched off by setting 'verbatim_writeout .false.' .
  in the first line of control.in .
  -----------------------------------------------------------------------
  
  #########################################################################################
  #
  # Input for System
  #
  #########################################################################################
  #
  #
  #  Physical model
  #
    xc                 pbe
    vdw_correction_hirshfeld
    spin               none
    charge             0.
  #
  #  SCF convergence
  #
    occupation_type    gaussian 0.05
    mixer              pulay
      n_max_pulay        10
      charge_mix_param   0.5
    sc_accuracy_rho    1E-4
    sc_accuracy_eev    1E-2
    sc_accuracy_etot   1E-5
    sc_accuracy_forces 1E-4
    sc_iter_limit      1000
  #
  #  ESP charge
  #
    output esp
    esp equal_grid_n 80 80 80
  #
  #
  ################################################################################
  #
  #  FHI-aims code project
  # Volker Blum, Fritz Haber Institute Berlin, 2009
  #
  #  Suggested "tight" defaults for H atom (to be pasted into control.in file)
  #
  ################################################################################
    species        H
  #     global species definitions
      nucleus             1
      mass                1.00794
  #
      l_hartree           6
  #
      cut_pot             4.0  2.0  1.0
      basis_dep_cutoff    1e-4
  #
      radial_base         24 7.0
      radial_multiplier   2
      angular_grids       specified
        division   0.1930   50
        division   0.3175  110
        division   0.4293  194
        division   0.5066  302
        division   0.5626  434
  #      division   0.5922  590
  #      division   0.6227  974
  #      division   0.6868 1202
  #      outer_grid  770
        outer_grid  434
  ################################################################################
  #
  #  Definition of "minimal" basis
  #
  ################################################################################
  #     valence basis states
      valence      1  s   1.
  #     ion occupancy
      ion_occ      1  s   0.5
  ################################################################################
  #
  #  Suggested additional basis functions. For production calculations,
  #  uncomment them one after another (the most important basis functions are
  #  listed first).
  #
  #  Basis constructed for dimers: 0.5 A, 0.7 A, 1.0 A, 1.5 A, 2.5 A
  #
  ################################################################################
  #  "First tier" - improvements: -1014.90 meV to -62.69 meV
       hydro 2 s 2.1
       hydro 2 p 3.5
  #  "Second tier" - improvements: -12.89 meV to -1.83 meV
       hydro 1 s 0.85
       hydro 2 p 3.7
       hydro 2 s 1.2
       hydro 3 d 7
  #  "Third tier" - improvements: -0.25 meV to -0.12 meV
  #     hydro 4 f 11.2
  #     hydro 3 p 4.8
  #     hydro 4 d 9
  #     hydro 3 s 3.2
  ################################################################################
  #
  # For methods that use the localized form of the "resolution of identity" for
  # the two-electron Coulomb operator (RI_method LVL), particularly Hartree-Fock and
  # hybrid density functional calculations, the highest accuracy can be obtained by
  # uncommenting the line beginning with "for_aux"  below, thus adding an extra g radial
  # function to the construction of the product basis set for the expansion.
  # See Ref. New J. Phys. 17, 093020 (2015) for more information, particularly Figs. 1 and 6.
  #
  ################################################################################
  #
  # for_aux hydro 5 g 6.0
  ################################################################################
  #
  #  FHI-aims code project
  # Volker Blum, Fritz Haber Institute Berlin, 2009
  #
  #  Suggested "tight" defaults for C atom (to be pasted into control.in file)
  #
  ################################################################################
    species        C
  #     global species definitions
      nucleus             6
      mass                12.0107
  #
      l_hartree           6
  #
      cut_pot             4.0  2.0  1.0
      basis_dep_cutoff    1e-4
  #
      radial_base         34 7.0
      radial_multiplier   2
      angular_grids specified
        division   0.2187   50
        division   0.4416  110
        division   0.6335  194
        division   0.7727  302
        division   0.8772  434
  #      division   0.9334  590
  #      division   0.9924  770
  #      division   1.0230  974
  #      division   1.5020 1202
  #     outer_grid  974
        outer_grid  434
  ################################################################################
  #
  #  Definition of "minimal" basis
  #
  ################################################################################
  #     valence basis states
      valence      2  s   2.
      valence      2  p   2.
  #     ion occupancy
      ion_occ      2  s   1.
      ion_occ      2  p   1.
  ################################################################################
  #
  #  Suggested additional basis functions. For production calculations,
  #  uncomment them one after another (the most important basis functions are
  #  listed first).
  #
  #  Constructed for dimers: 1.0 A, 1.25 A, 1.5 A, 2.0 A, 3.0 A
  #
  ################################################################################
  #  "First tier" - improvements: -1214.57 meV to -155.61 meV
       hydro 2 p 1.7
       hydro 3 d 6
       hydro 2 s 4.9
  #  "Second tier" - improvements: -67.75 meV to -5.23 meV
       hydro 4 f 9.8
       hydro 3 p 5.2
       hydro 3 s 4.3
       hydro 5 g 14.4
       hydro 3 d 6.2
  #  "Third tier" - improvements: -2.43 meV to -0.60 meV
  #     hydro 2 p 5.6
  #     hydro 2 s 1.4
  #     hydro 3 d 4.9
  #     hydro 4 f 11.2
  #  "Fourth tier" - improvements: -0.39 meV to -0.18 meV
  #     hydro 2 p 2.1
  #     hydro 5 g 16.4
  #     hydro 4 d 13.2
  #     hydro 3 s 13.6
  #     hydro 4 f 17.6
  #  Further basis functions - improvements: -0.08 meV and below
  #     hydro 3 s 2
  #     hydro 3 p 6
  #     hydro 4 d 20
  ################################################################################
  #
  # For methods that use the localized form of the "resolution of identity" for
  # the two-electron Coulomb operator (RI_method LVL), particularly Hartree-Fock and
  # hybrid density functional calculations, the highest accuracy can be obtained by
  # uncommenting the line beginning with "for_aux"  below, thus adding an extra g radial
  # function to the construction of the product basis set for the expansion.
  # See Ref. New J. Phys. 17, 093020 (2015) for more information, particularly Figs. 1 and 6.
  #
  ################################################################################
  #
  # for_aux hydro 5 g 6.0
  ################################################################################
  #
  #  FHI-aims code project
  # Volker Blum, Fritz Haber Institute Berlin, 2009
  #
  #  Suggested "tight" defaults for N atom (to be pasted into control.in file)
  #
  ################################################################################
    species        N
  #     global species definitions
      nucleus             7
      mass                14.0067
  #
      l_hartree           6
  #
      cut_pot             4.0  2.0  1.0
      basis_dep_cutoff    1e-4
  #
      radial_base         35 7.0
      radial_multiplier   2
      angular_grids       specified
        division   0.1841   50
        division   0.3514  110
        division   0.5126  194
        division   0.6292  302
        division   0.6939  434
  #      division   0.7396  590
  #      division   0.7632  770
  #      division   0.8122  974
  #      division   1.1604 1202
  #      outer_grid  974
        outer_grid  434
  ################################################################################
  #
  #  Definition of "minimal" basis
  #
  ################################################################################
  #     valence basis states
      valence      2  s   2.
      valence      2  p   3.
  #     ion occupancy
      ion_occ      2  s   1.
      ion_occ      2  p   2.
  ################################################################################
  #
  #  Suggested additional basis functions. For production calculations,
  #  uncomment them one after another (the most important basis functions are
  #  listed first).
  #
  #  Constructed for dimers: 1.0 A, 1.1 A, 1.5 A, 2.0 A, 3.0 A
  #
  ################################################################################
  #  "First tier" - improvements: -1193.42 meV to -220.60 meV
       hydro 2 p 1.8
       hydro 3 d 6.8
       hydro 3 s 5.8
  #  "Second tier" - improvements: -80.21 meV to -6.86 meV
       hydro 4 f 10.8
       hydro 3 p 5.8
       hydro 1 s 0.8
       hydro 5 g 16
       hydro 3 d 4.9
  #  "Third tier" - improvements: -4.29 meV to -0.53 meV
  #     hydro 3 s 16
  #     ionic 2 p auto
  #     hydro 3 d 6.6
  #     hydro 4 f 11.6
  #  "Fourth tier" - improvements: -0.75 meV to -0.25 meV
  #     hydro 2 p 4.5
  #     hydro 2 s 2.4
  #     hydro 5 g 14.4
  #     hydro 4 d 14.4
  #     hydro 4 f 16.8
  # Further basis functions - -0.21 meV and below
  #     hydro 3 p 14.8
  #     hydro 3 s 4.4
  #     hydro 3 d 19.6
  #     hydro 5 g 12.8
  ################################################################################
  #
  # For methods that use the localized form of the "resolution of identity" for
  # the two-electron Coulomb operator (RI_method LVL), particularly Hartree-Fock and
  # hybrid density functional calculations, the highest accuracy can be obtained by
  # uncommenting the line beginning with "for_aux"  below, thus adding an extra g radial
  # function to the construction of the product basis set for the expansion.
  # See Ref. New J. Phys. 17, 093020 (2015) for more information, particularly Figs. 1 and 6.
  #
  ################################################################################
  #
  # for_aux hydro 5 g 6.0
  ################################################################################
  #
  #  FHI-aims code project
  # Volker Blum, Fritz Haber Institute Berlin, 2009
  #
  #  Suggested "tight" defaults for O atom (to be pasted into control.in file)
  #
  ################################################################################
    species        O
  #     global species definitions
      nucleus             8
      mass                15.9994
  #
      l_hartree           6
  #
      cut_pot             4.0  2.0  1.0
      basis_dep_cutoff    1e-4
  #
      radial_base         36 7.0
      radial_multiplier   2
       angular_grids specified
        division   0.1817   50
        division   0.3417  110
        division   0.4949  194
        division   0.6251  302
        division   0.8014  434
  #      division   0.8507  590
  #      division   0.8762  770
  #      division   0.9023  974
  #      division   1.2339 1202
  #      outer_grid 974
        outer_grid  434
  ################################################################################
  #
  #  Definition of "minimal" basis
  #
  ################################################################################
  #     valence basis states
      valence      2  s   2.
      valence      2  p   4.
  #     ion occupancy
      ion_occ      2  s   1.
      ion_occ      2  p   3.
  ################################################################################
  #
  #  Suggested additional basis functions. For production calculations,
  #  uncomment them one after another (the most important basis functions are
  #  listed first).
  #
  #  Constructed for dimers: 1.0 A, 1.208 A, 1.5 A, 2.0 A, 3.0 A
  #
  ################################################################################
  #  "First tier" - improvements: -699.05 meV to -159.38 meV
       hydro 2 p 1.8
       hydro 3 d 7.6
       hydro 3 s 6.4
  #  "Second tier" - improvements: -49.91 meV to -5.39 meV
       hydro 4 f 11.6
       hydro 3 p 6.2
       hydro 3 d 5.6
       hydro 5 g 17.6
       hydro 1 s 0.75
  #  "Third tier" - improvements: -2.83 meV to -0.50 meV
  #     ionic 2 p auto
  #     hydro 4 f 10.8
  #     hydro 4 d 4.7
  #     hydro 2 s 6.8
  #  "Fourth tier" - improvements: -0.40 meV to -0.12 meV
  #     hydro 3 p 5
  #     hydro 3 s 3.3
  #     hydro 5 g 15.6
  #     hydro 4 f 17.6
  #     hydro 4 d 14
  # Further basis functions - -0.08 meV and below
  #     hydro 3 s 2.1
  #     hydro 4 d 11.6
  #     hydro 3 p 16
  #     hydro 2 s 17.2
  ################################################################################
  #
  # For methods that use the localized form of the "resolution of identity" for
  # the two-electron Coulomb operator (RI_method LVL), particularly Hartree-Fock and
  # hybrid density functional calculations, the highest accuracy can be obtained by
  # uncommenting the line beginning with "for_aux"  below, thus adding an extra g radial
  # function to the construction of the product basis set for the expansion.
  # See Ref. New J. Phys. 17, 093020 (2015) for more information, particularly Figs. 1 and 6.
  #
  ################################################################################
  #
  # for_aux hydro 5 g 6.0
  
  -----------------------------------------------------------------------
  Completed first pass over input file control.in .
  -----------------------------------------------------------------------
  
  
  -----------------------------------------------------------------------
  Parsing geometry.in (first pass over file, find array dimensions only).
  The contents of geometry.in will be repeated verbatim below
  unless switched off by setting 'verbatim_writeout .false.' .
  in the first line of geometry.in .
  -----------------------------------------------------------------------
  
  #
  # This is the geometry file that corresponds to the current relaxation step.
  # If you do not want this file to be written, set the "write_restart_geometry" flag to .false.
  #
  atom      -0.30796135     -1.01158024      0.02039894 C
  atom      -0.99374295     -1.67586312      1.18985081 C
  atom      -0.89366277     -2.89280588      1.39330085 O
  atom       0.65577629     -1.50960445     -0.12755502 H
  atom      -0.16093234      0.06723803      0.12806996 H
  atom      -0.91259666     -1.18263933     -0.88218421 H
  atom      -1.77640989     -0.92146619      2.02336273 N
  atom      -2.28853898      0.44781945      1.87420931 C
  atom      -2.74296727      0.78901710      0.42750695 C
  atom      -2.30622167      1.78422732     -0.14540826 O
  atom      -2.15333697     -1.47138673      2.79079043 H
  atom      -3.20567432      0.47067229      2.48604561 H
  atom      -1.32904198      1.50483666      2.41802703 C
  atom      -0.40167075      1.53914690      1.83482338 H
  atom      -1.07952248      1.27146842      3.46078276 H
  atom      -1.78454762      2.50033639      2.37121610 H
  atom      -3.65265063     -0.03063673     -0.17709224 N
  atom      -4.35862011     -1.22081325      0.30505166 C
  atom      -4.17527765     -2.31034498     -0.77731035 C
  atom      -4.75731530     -2.21833584     -1.85913172 O
  atom      -3.89466383      0.26309995     -1.12275978 H
  atom      -3.88596956     -1.54610420      1.23635826 H
  atom      -5.84300411     -0.94277436      0.54466952 C
  atom      -6.34449245     -1.83934235      0.93348522 H
  atom      -6.33281016     -0.66325576     -0.39630713 H
  atom      -5.96720043     -0.12755417      1.26903273 H
  atom      -3.32578935     -3.31919629     -0.46636124 N
  atom      -2.97604591     -4.34164989     -1.43964062 C
  atom      -2.76658157     -3.27563385      0.38363210 H
  atom      -2.11366374     -4.89884474     -1.06039886 H
  atom      -2.72309752     -3.88594228     -2.40636702 H
  atom      -3.81111698     -5.03653587     -1.60460188 H
  
  -----------------------------------------------------------------------
  Completed first pass over input file geometry.in .
  -----------------------------------------------------------------------
  

  Basic array size parameters:
  | Number of species                 :        4
  | Number of atoms                   :       32
  | Max. basis fn. angular momentum   :        4
  | Max. atomic/ionic basis occupied n:        2
  | Max. number of basis fn. types    :        2
  | Max. radial fns per species/type  :        8
  | Max. logarithmic grid size        :     1301
  | Max. radial integration grid size :       73
  | Max. angular integration grid size:      434
  | Max. angular grid division number :        8
  | Radial grid for Hartree potential :     1301
  | Number of spin channels           :        1

------------------------------------------------------------
          Reading file control.in.
------------------------------------------------------------
  XC: Using PBE gradient-corrected functionals.
  Spin treatment: No spin polarisation.
  Charge =   0.000000E+00: Neutral system requested explicitly.
  Occupation type: Gaussian broadening, width =   0.500000E-01 eV.
  Using pulay charge density mixing.
  Pulay mixing - number of memorized iterations:   10
  Charge density mixing - mixing parameter:     0.5000
  Convergence accuracy of self-consistent charge density:  0.1000E-03
  Convergence accuracy of sum of eigenvalues:  0.1000E-01
  Convergence accuracy of total energy:  0.1000E-04
  Convergence accuracy of forces:  0.1000E-03
  Maximum number of s.-c. iterations  :  1000
  Fitting ESP-charges to Potential. 
  | Esp charge output options: 
  | ESP Grid method: 3, cubic grid
  | Number of points in x, ,y, z:  0080 0080 0080
  |
 
  Reading configuration options for species H                   .
  | Found nuclear charge :   1.0000
  | Found atomic mass :    1.00794000000000      amu
  | Found l_max for Hartree potential  :   6
  | Found cutoff potl. onset [A], width [A], scale factor :    4.00000    2.00000    1.00000
  | Threshold for basis-dependent cutoff potential is   0.100000E-03
  | Found data for basic radial integration grid :    24 points, outermost radius =    7.000 A
  | Found multiplier for basic radial grid :   2
  | Found angular grid specification: user-specified.
  | Specified grid contains     6 separate shells.
  | Check grid settings after all constraints further below.
  | Found free-atom valence shell :  1 s   1.000
  | No ionic wave fns used. Skipping ion_occ.
  | Found hydrogenic basis function :  2 s   2.100
  | Found hydrogenic basis function :  2 p   3.500
  | Found hydrogenic basis function :  1 s   0.850
  | Found hydrogenic basis function :  2 p   3.700
  | Found hydrogenic basis function :  2 s   1.200
  | Found hydrogenic basis function :  3 d   7.000
  Species H                   : Missing cutoff potential type.
  Defaulting to exp(1/x)/(1-x)^2 type cutoff potential.
  Species H : No 'logarithmic' tag. Using default grid for free atom:
  | Default logarithmic grid data [bohr] : 0.1000E-03 0.1000E+03 0.1012E+01
  Species H : On-site basis accuracy parameter (for Gram-Schmidt orthonormalisation) not specified.
  Using default value basis_acc =  0.1000000E-03.
  Species H                   : Using default innermost maximum threshold i_radial=  2 for radial functions.
  Species H                   : Default cutoff onset for free atom density etc. : 0.40000000E+01 AA.
  Species H                   : Basic radial grid will be enhanced according to radial_multiplier =   2, to contain    49 grid points.
 
  Reading configuration options for species C                   .
  | Found nuclear charge :   6.0000
  | Found atomic mass :    12.0107000000000      amu
  | Found l_max for Hartree potential  :   6
  | Found cutoff potl. onset [A], width [A], scale factor :    4.00000    2.00000    1.00000
  | Threshold for basis-dependent cutoff potential is   0.100000E-03
  | Found data for basic radial integration grid :    34 points, outermost radius =    7.000 A
  | Found multiplier for basic radial grid :   2
  | Found angular grid specification: user-specified.
  | Specified grid contains     6 separate shells.
  | Check grid settings after all constraints further below.
  | Found free-atom valence shell :  2 s   2.000
  | Found free-atom valence shell :  2 p   2.000
  | No ionic wave fns used. Skipping ion_occ.
  | No ionic wave fns used. Skipping ion_occ.
  | Found hydrogenic basis function :  2 p   1.700
  | Found hydrogenic basis function :  3 d   6.000
  | Found hydrogenic basis function :  2 s   4.900
  | Found hydrogenic basis function :  4 f   9.800
  | Found hydrogenic basis function :  3 p   5.200
  | Found hydrogenic basis function :  3 s   4.300
  | Found hydrogenic basis function :  5 g  14.400
  | Found hydrogenic basis function :  3 d   6.200
  Species C                   : Missing cutoff potential type.
  Defaulting to exp(1/x)/(1-x)^2 type cutoff potential.
  Species C : No 'logarithmic' tag. Using default grid for free atom:
  | Default logarithmic grid data [bohr] : 0.1000E-03 0.1000E+03 0.1012E+01
  Species C : On-site basis accuracy parameter (for Gram-Schmidt orthonormalisation) not specified.
  Using default value basis_acc =  0.1000000E-03.
  Species C                   : Using default innermost maximum threshold i_radial=  2 for radial functions.
  Species C                   : Default cutoff onset for free atom density etc. : 0.40000000E+01 AA.
  Species C                   : Basic radial grid will be enhanced according to radial_multiplier =   2, to contain    69 grid points.
 
  Reading configuration options for species N                   .
  | Found nuclear charge :   7.0000
  | Found atomic mass :    14.0067000000000      amu
  | Found l_max for Hartree potential  :   6
  | Found cutoff potl. onset [A], width [A], scale factor :    4.00000    2.00000    1.00000
  | Threshold for basis-dependent cutoff potential is   0.100000E-03
  | Found data for basic radial integration grid :    35 points, outermost radius =    7.000 A
  | Found multiplier for basic radial grid :   2
  | Found angular grid specification: user-specified.
  | Specified grid contains     6 separate shells.
  | Check grid settings after all constraints further below.
  | Found free-atom valence shell :  2 s   2.000
  | Found free-atom valence shell :  2 p   3.000
  | No ionic wave fns used. Skipping ion_occ.
  | No ionic wave fns used. Skipping ion_occ.
  | Found hydrogenic basis function :  2 p   1.800
  | Found hydrogenic basis function :  3 d   6.800
  | Found hydrogenic basis function :  3 s   5.800
  | Found hydrogenic basis function :  4 f  10.800
  | Found hydrogenic basis function :  3 p   5.800
  | Found hydrogenic basis function :  1 s   0.800
  | Found hydrogenic basis function :  5 g  16.000
  | Found hydrogenic basis function :  3 d   4.900
  Species N                   : Missing cutoff potential type.
  Defaulting to exp(1/x)/(1-x)^2 type cutoff potential.
  Species N : No 'logarithmic' tag. Using default grid for free atom:
  | Default logarithmic grid data [bohr] : 0.1000E-03 0.1000E+03 0.1012E+01
  Species N : On-site basis accuracy parameter (for Gram-Schmidt orthonormalisation) not specified.
  Using default value basis_acc =  0.1000000E-03.
  Species N                   : Using default innermost maximum threshold i_radial=  2 for radial functions.
  Species N                   : Default cutoff onset for free atom density etc. : 0.40000000E+01 AA.
  Species N                   : Basic radial grid will be enhanced according to radial_multiplier =   2, to contain    71 grid points.
 
  Reading configuration options for species O                   .
  | Found nuclear charge :   8.0000
  | Found atomic mass :    15.9994000000000      amu
  | Found l_max for Hartree potential  :   6
  | Found cutoff potl. onset [A], width [A], scale factor :    4.00000    2.00000    1.00000
  | Threshold for basis-dependent cutoff potential is   0.100000E-03
  | Found data for basic radial integration grid :    36 points, outermost radius =    7.000 A
  | Found multiplier for basic radial grid :   2
  | Found angular grid specification: user-specified.
  | Specified grid contains     6 separate shells.
  | Check grid settings after all constraints further below.
  | Found free-atom valence shell :  2 s   2.000
  | Found free-atom valence shell :  2 p   4.000
  | No ionic wave fns used. Skipping ion_occ.
  | No ionic wave fns used. Skipping ion_occ.
  | Found hydrogenic basis function :  2 p   1.800
  | Found hydrogenic basis function :  3 d   7.600
  | Found hydrogenic basis function :  3 s   6.400
  | Found hydrogenic basis function :  4 f  11.600
  | Found hydrogenic basis function :  3 p   6.200
  | Found hydrogenic basis function :  3 d   5.600
  | Found hydrogenic basis function :  5 g  17.600
  | Found hydrogenic basis function :  1 s   0.750
  Species O                   : Missing cutoff potential type.
  Defaulting to exp(1/x)/(1-x)^2 type cutoff potential.
  Species O : No 'logarithmic' tag. Using default grid for free atom:
  | Default logarithmic grid data [bohr] : 0.1000E-03 0.1000E+03 0.1012E+01
  Species O : On-site basis accuracy parameter (for Gram-Schmidt orthonormalisation) not specified.
  Using default value basis_acc =  0.1000000E-03.
  Species O                   : Using default innermost maximum threshold i_radial=  2 for radial functions.
  Species O                   : Default cutoff onset for free atom density etc. : 0.40000000E+01 AA.
  Species O                   : Basic radial grid will be enhanced according to radial_multiplier =   2, to contain    73 grid points.
 
  Finished reading input file 'control.in'. Consistency checks are next.
 
  Target number of points in a grid batch is not set. Defaulting to  100
  Method for grid partitioning is not set. Defaulting to parallel hash+maxmin partitioning.
  Batch size limit is not set. Defaulting to    200
  By default, will store active basis functions for each batch.
  If in need of memory, prune_basis_once .false. can be used to disable this option.
  communication_type for Hartree potential was not specified.
  Defaulting to calc_hartree .
  Pulay mixer: Number of initial linear mixing iterations not set.
  Defaulting to    0 iterations.
  Work space size for distributed Hartree potential not set.
  Defaulting to   0.200000E+03 MB.
  Algorithm-dependent basis array size parameters:
  | n_max_pulay                         :       10
  Geometry relaxation not requested: no relaxation will be performed.
  Handling of forces: Unphysical translation and rotation will be removed from forces.
  No accuracy limit for integral partition fn. given. Defaulting to  0.1000E-14.
  No threshold value for u(r) in integrations given. Defaulting to  0.1000E-05.
  No accuracy for occupation numbers given. Defaulting to  0.1000E-07.
  No threshold value for occupation numbers given. Defaulting to  0.0000E+00.
  No accuracy for fermi level given. Defaulting to  0.1000E-19.
  Maximum # of iterations to find E_F not set. Defaulting to  200.
  Preferred method for the eigenvalue solver ('KS_method') not specified in 'control.in'.
  Calling blacs routine to test compilation state
  Since scalapack support is enabled, defaulting to 'elpa'.
  Preferred method for the MBD eigenvalue solver ('mbd_eigensolver') not specified in 'control.in'.
  Calling blacs routine to test compilation state
  Since scalapack support is enabled, defaulting to 'scaLAPACK'.
  Will not use alltoall communication since running on < 1024 CPUs.
  Threshold for basis singularities not set.
  Default threshold for basis singularities:  0.1000E-04
  partition_type (choice of integration weights) for integrals was not specified.
  | Using a version of the partition function of Stratmann and coworkers ('stratmann_smoother').
  | At each grid point, the set of atoms used to build the partition table is smoothly restricted to
  | only those atoms whose free-atom density would be non-zero at that grid point.
  Partitioning for Hartree potential was not defined. Using partition_type for integrals.
  | Adjusted default value of keyword multip_moments_threshold to:       0.10000000E-11
  | This value may affect high angular momentum components of the Hartree potential in periodic systems.
  No q(lm)/r^(l+1) cutoff set for long-range Hartree potential.
  | Using default value of  0.100000E-09 .
  | Verify using the multipole_threshold keyword.
  Defaulting to new monopole extrapolation.
  Density update method: automatic selection selected.
------------------------------------------------------------


------------------------------------------------------------
          Reading geometry description geometry.in.
------------------------------------------------------------
 * Warning! You did not set the 'relativistic' flag in input file 'control.in'.
 * Since you are not attempting to treat any elements beyond Ca(Z=20), FHI-aims
 * will default to 'relativistic none'.
 * You must ensure that this is really what you want!!
 * For example, DO NOT compute total-energy differences between results from
 * different settings of the 'relativistic' flag.
  Input structure read successfully.
  The structure contains       32 atoms,  and a total of        116.000 electrons.

  Input geometry:
  | No unit cell requested.
  | Atomic structure:
  |       Atom                x [A]            y [A]            z [A]
  |    1: Species C             -0.307961        -1.011580         0.020399
  |    2: Species C             -0.993743        -1.675863         1.189851
  |    3: Species O             -0.893663        -2.892806         1.393301
  |    4: Species H              0.655776        -1.509604        -0.127555
  |    5: Species H             -0.160932         0.067238         0.128070
  |    6: Species H             -0.912597        -1.182639        -0.882184
  |    7: Species N             -1.776410        -0.921466         2.023363
  |    8: Species C             -2.288539         0.447819         1.874209
  |    9: Species C             -2.742967         0.789017         0.427507
  |   10: Species O             -2.306222         1.784227        -0.145408
  |   11: Species H             -2.153337        -1.471387         2.790790
  |   12: Species H             -3.205674         0.470672         2.486046
  |   13: Species C             -1.329042         1.504837         2.418027
  |   14: Species H             -0.401671         1.539147         1.834823
  |   15: Species H             -1.079522         1.271468         3.460783
  |   16: Species H             -1.784548         2.500336         2.371216
  |   17: Species N             -3.652651        -0.030637        -0.177092
  |   18: Species C             -4.358620        -1.220813         0.305052
  |   19: Species C             -4.175278        -2.310345        -0.777310
  |   20: Species O             -4.757315        -2.218336        -1.859132
  |   21: Species H             -3.894664         0.263100        -1.122760
  |   22: Species H             -3.885970        -1.546104         1.236358
  |   23: Species C             -5.843004        -0.942774         0.544670
  |   24: Species H             -6.344492        -1.839342         0.933485
  |   25: Species H             -6.332810        -0.663256        -0.396307
  |   26: Species H             -5.967200        -0.127554         1.269033
  |   27: Species N             -3.325789        -3.319196        -0.466361
  |   28: Species C             -2.976046        -4.341650        -1.439641
  |   29: Species H             -2.766582        -3.275634         0.383632
  |   30: Species H             -2.113664        -4.898845        -1.060399
  |   31: Species H             -2.723098        -3.885942        -2.406367
  |   32: Species H             -3.811117        -5.036536        -1.604602
  |

  | The smallest distance between any two atoms is         1.01657853 AA.
  |
  | The first atom of this pair is atom number                      7 .
  | The second atom of this pair is atom number                    11 .

  Number of empty states per atom not set in control.in - providing a guess from actual geometry.
  | Total number of empty states used during s.c.f. cycle:       71
  If you use a very high smearing, use empty_states (per atom!) in control.in to increase this value.

  Structure-dependent array size parameters: 
  | Maximum number of distinct radial functions  :       40
  | Maximum number of basis functions            :      840
  | Number of Kohn-Sham states (occupied + empty):      129
------------------------------------------------------------

------------------------------------------------------------
          Preparing all fixed parts of the calculation.
------------------------------------------------------------
  Determining machine precision:
    2.225073858507201E-308
  Setting up grids for atomic and cluster calculations.

  Creating wave function, potential, and density for free atoms.

  Species: H

  List of occupied orbitals and eigenvalues:
    n    l              occ      energy [Ha]    energy [eV]
    1    0           1.0000        -0.238382        -6.4867


  Species: C

  List of occupied orbitals and eigenvalues:
    n    l              occ      energy [Ha]    energy [eV]
    1    0           2.0000       -10.041232      -273.2358
    2    0           2.0000        -0.504327       -13.7234
    2    1           2.0000        -0.193750        -5.2722


  Species: N

  List of occupied orbitals and eigenvalues:
    n    l              occ      energy [Ha]    energy [eV]
    1    0           2.0000       -14.129007      -384.4699
    2    0           2.0000        -0.681802       -18.5528
    2    1           3.0000        -0.260543        -7.0897


  Species: O

  List of occupied orbitals and eigenvalues:
    n    l              occ      energy [Ha]    energy [eV]
    1    0           2.0000       -18.898576      -514.2564
    2    0           2.0000        -0.878795       -23.9132
    2    1           4.0000        -0.332075        -9.0362

  Creating fixed part of basis set: Ionic, confined, hydrogenic.
 
  H                    hydrogenic:
 
  List of hydrogenic basis orbitals: 
    n    l      effective z      eigenvalue [eV]  inner max. [A]     outer max. [A]     outer radius [A]   
    2    0         2.100000       -14.9965           0.193243           1.317208           5.373006
    2    1         3.500000       -41.6672           0.602369           0.602369           4.056063
    1    0         0.850000        -9.8292           0.624871           0.624871           5.373006
    2    1         3.700000       -46.5653           0.573622           0.573622           3.910002
    2    0         1.200000        -4.5995           0.334980           2.228188           5.505995
    3    2         7.000000       -74.0753           0.680699           0.680699           3.769201
 
 
  C                    hydrogenic:
 
  List of hydrogenic basis orbitals: 
    n    l      effective z      eigenvalue [eV]  inner max. [A]     outer max. [A]     outer radius [A]   
    2    1         1.700000        -9.8152           1.245706           1.245706           5.401630
    3    2         6.000000       -54.4226           0.792453           0.792453           4.178599
    2    0         4.900000       -81.6681           0.082559           0.562749           3.353238
    4    3         9.800000       -81.6681           0.863254           0.863254           4.028125
    3    1         5.200000       -40.8774           0.305389           1.215618           4.898362
    3    0         4.300000       -27.9508           0.091041           1.610311           5.401630
    5    4        14.400000      -112.8510           0.917666           0.917666           3.883070
    3    2         6.200000       -58.1113           0.763917           0.763917           4.077671
 
 
  N                    hydrogenic:
 
  List of hydrogenic basis orbitals: 
    n    l      effective z      eigenvalue [eV]  inner max. [A]     outer max. [A]     outer radius [A]   
    2    1         1.800000       -11.0118           1.177451           1.177451           5.427479
    3    2         6.800000       -69.9029           0.704619           0.704619           3.854246
    3    0         5.800000       -50.8549           0.067388           1.191934           4.629968
    4    3        10.800000       -99.1854           0.786571           0.786571           3.761152
    3    1         5.800000       -50.8549           0.274880           1.094176           4.518138
    1    0         0.800000        -8.7059           0.662839           0.662839           5.361532
    5    4        16.000000      -139.3222           0.825990           0.825990           3.625711
    3    2         4.900000       -36.2967           0.968267           0.968267           4.862000
 
 
  O                    hydrogenic:
 
  List of hydrogenic basis orbitals: 
    n    l      effective z      eigenvalue [eV]  inner max. [A]     outer max. [A]     outer radius [A]   
    2    1         1.800000       -11.0118           1.178562           1.178562           5.432602
    3    2         7.600000       -87.3182           0.624125           0.624125           3.541477
    3    0         6.400000       -61.9209           0.061167           1.081902           4.306578
    4    3        11.600000      -114.4238           0.731631           0.731631           3.585037
    3    1         6.200000       -58.1113           0.255680           1.030270           4.306578
    3    2         5.600000       -47.4081           0.847233           0.847233           4.413171
    5    4        17.600000      -168.5799           0.749740           0.749740           3.372465
    1    0         0.750000        -7.6499           0.705284           0.705284           5.366593
 

  Adding cutoff potential to free-atom effective potential.
  Creating atomic-like basis functions for current effective potential.

  Species H                   :

  List of atomic basis orbitals and eigenvalues:
    n    l      energy [Ha]    energy [eV]    outer radius [A]
    1    0        -0.238382        -6.4867       5.373006


  Species C                   :

  List of atomic basis orbitals and eigenvalues:
    n    l      energy [Ha]    energy [eV]    outer radius [A]
    1    0       -10.041232      -273.2358       1.934409
    2    0        -0.504327       -13.7234       5.271162
    2    1        -0.193750        -5.2722       5.401630


  Species N                   :

  List of atomic basis orbitals and eigenvalues:
    n    l      energy [Ha]    energy [eV]    outer radius [A]
    1    0       -14.129007      -384.4699       1.637919
    2    0        -0.681802       -18.5528       5.168461
    2    1        -0.260543        -7.0897       5.361532


  Species O                   :

  List of atomic basis orbitals and eigenvalues:
    n    l      energy [Ha]    energy [eV]    outer radius [A]
    1    0       -18.898576      -514.2564       1.415765
    2    0        -0.878795       -23.9132       5.048385
    2    1        -0.332075        -9.0362       5.301386

  Assembling full basis from fixed parts.
  | Species H :   atomic orbital   1 s accepted.
  | Species H :    hydro orbital   2 s accepted.
  | Species H :    hydro orbital   1 s accepted.
  | Species H :    hydro orbital   2 s accepted.
  | Species H :    hydro orbital   2 p accepted.
  | Species H :    hydro orbital   2 p accepted.
  | Species H :    hydro orbital   3 d accepted.
  | Species C :   atomic orbital   1 s accepted.
  | Species C :    hydro orbital   2 s accepted.
  | Species C :   atomic orbital   2 s accepted.
  | Species C :    hydro orbital   3 s accepted.
  | Species C :    hydro orbital   3 p accepted.
  | Species C :   atomic orbital   2 p accepted.
  | Species C :    hydro orbital   2 p accepted.
  | Species C :    hydro orbital   3 d accepted.
  | Species C :    hydro orbital   3 d accepted.
  | Species C :    hydro orbital   4 f accepted.
  | Species C :    hydro orbital   5 g accepted.
  | Species N :   atomic orbital   1 s accepted.
  | Species N :    hydro orbital   3 s accepted.
  | Species N :   atomic orbital   2 s accepted.
  | Species N :    hydro orbital   1 s accepted.
  | Species N :    hydro orbital   3 p accepted.
  | Species N :   atomic orbital   2 p accepted.
  | Species N :    hydro orbital   2 p accepted.
  | Species N :    hydro orbital   3 d accepted.
  | Species N :    hydro orbital   3 d accepted.
  | Species N :    hydro orbital   4 f accepted.
  | Species N :    hydro orbital   5 g accepted.
  | Species O :   atomic orbital   1 s accepted.
  | Species O :    hydro orbital   3 s accepted.
  | Species O :   atomic orbital   2 s accepted.
  | Species O :    hydro orbital   1 s accepted.
  | Species O :    hydro orbital   3 p accepted.
  | Species O :   atomic orbital   2 p accepted.
  | Species O :    hydro orbital   2 p accepted.
  | Species O :    hydro orbital   3 d accepted.
  | Species O :    hydro orbital   3 d accepted.
  | Species O :    hydro orbital   4 f accepted.
  | Species O :    hydro orbital   5 g accepted.
 
  Basis size parameters after reduction:
  | Total number of radial functions:       40
  | Total number of basis functions :      840
 
  Testing on-site integration grid accuracy.
  |  Species  Function  <phi|h_atom|phi> (log., in eV)  <phi|h_atom|phi> (rad., in eV)
           1        1                 -6.4869821809                 -6.4870742227
           1        2                 13.5044133542                 13.5041049177
           1        3                 32.7854418792                 32.7779770519
           1        4                 33.7995553101                 33.7152624900 ***
           1        5                 28.8558651799                 28.8558652046
           1        6                 59.6361831893                 59.6362535845
           1        7                 60.2733718049                 60.2733715484
           2        8               -273.2358277112               -273.2358261765
           2        9                -10.7624923123                -10.7625144012
           2       10                 17.4634079027                 17.4634252127
           2       11                 53.0363661832                 53.0366180446
           2       12                 15.0981351967                 15.0981317714
           2       13                  3.8522181899                  3.8522770949
           2       14                 12.1181835661                 12.1206868578
           2       15                 29.4320778347                 29.4320780959
           2       16                 54.8753777694                 54.8752901936
           2       17                 59.3533975461                 59.3533974833
           2       18                 93.4537491195                 93.4537492066
           3       19               -384.4698526889               -384.4698499465
           3       20                 12.5691022037                 12.5690910168
           3       21                -15.7489097511                -15.7489165588
           3       22                 27.0978334940                 27.0985589490
           3       23                 18.5949116966                 18.5949125562
           3       24                  1.2212828291                  1.2212855301
           3       25                 13.4428926797                 13.4434051125
           3       26                 35.9380614500                 35.9380613666
           3       27                 39.9231532098                 39.9231654735
           3       28                 72.9957335806                 72.9957336833
           3       29                116.4231321147                116.4231321431
           4       30               -514.2564144315               -514.2564099626
           4       31                 15.1726678541                 15.1726530877
           4       32                -21.5447785304                -21.5447874973
           4       33                 14.4944558459                 14.4944698284
           4       34                 20.8882174564                 20.8882178906
           4       35                 -2.4850315908                 -2.4850322289
           4       36                 13.8600193195                 13.8599826966
           4       37                 45.8243383616                 45.8243383675
           4       38                 52.1840606465                 52.1840622440
           4       39                 85.4074185510                 85.4074185819
           4       40                142.0983717302                142.0983717339
 * Note: Onsite integrals marked "***" above are less accurate than
 * onsite_accuracy_threshold =    0.03000 eV. Usually, this is harmless.
 * When in doubt, tighten the "radial" and/or "radial_multiplier" flags to check.

  Preparing densities etc. for the partition functions (integrals / Hartree potential).

  Preparations completed.
  max(cpu_time)          :      0.240 s.
  Wall clock time (cpu1) :      0.237 s.
------------------------------------------------------------

------------------------------------------------------------
          Begin self-consistency loop: Initialization.

          Date     :  20170309, Time     :  175811.548
------------------------------------------------------------

  Initializing index lists of integration centers etc. from given atomic structure:
  | Number of centers in hartree potential         :        32
  | Number of centers in hartree multipole         :        32
  | Number of centers in electron density summation:        32
  | Number of centers in basis integrals           :        32
  | Number of centers in integrals                 :        32
  | Number of centers in hamiltonian               :        32
  Using modified Scalapack Eigenvalue solver (ELPA)
  * Using 32 tasks for Scalapack Eigenvalue solver.
  Detailed listing of tasks and assigned k-points:
  (for non-periodic systems, the "k-point" denotes an internal label only)
   Task     0 k-point     1 on eos195
   Task     1 k-point     1 on eos195
   Task     2 k-point     1 on eos195
   Task     3 k-point     1 on eos195
   Task     4 k-point     1 on eos195
   Task     5 k-point     1 on eos195
   Task     6 k-point     1 on eos195
   Task     7 k-point     1 on eos195
   Task     8 k-point     1 on eos195
   Task     9 k-point     1 on eos195
   Task    10 k-point     1 on eos195
   Task    11 k-point     1 on eos195
   Task    12 k-point     1 on eos195
   Task    13 k-point     1 on eos195
   Task    14 k-point     1 on eos195
   Task    15 k-point     1 on eos195
   Task    16 k-point     1 on eos195
   Task    17 k-point     1 on eos195
   Task    18 k-point     1 on eos195
   Task    19 k-point     1 on eos195
   Task    20 k-point     1 on eos195
   Task    21 k-point     1 on eos195
   Task    22 k-point     1 on eos195
   Task    23 k-point     1 on eos195
   Task    24 k-point     1 on eos195
   Task    25 k-point     1 on eos195
   Task    26 k-point     1 on eos195
   Task    27 k-point     1 on eos195
   Task    28 k-point     1 on eos195
   Task    29 k-point     1 on eos195
   Task    30 k-point     1 on eos195
   Task    31 k-point     1 on eos195
  Tasks:    32 split into      8 X      4 BLACS grid
  Calculating blocksize based on n_basis =          840 max_nprow =            8 max_npcol =            4
  Scalapack blocksize set to:           16
  Required Scalapack workspace - INTEGER:            1 REAL:             1
  Partitioning the integration grid into batches with parallel hashing+maxmin method.
  | Number of batches:     4996
  | Maximal batch size:     200
  | Minimal batch size:      50
  | Average batch size:     105.630
  | Standard deviation of batch sizes:      32.549

  Integration load balanced across    32 MPI tasks.
  Work distribution over tasks is as follows:
  Task     0 has      16443 integration points.
  Task     1 has      16471 integration points.
  Task     2 has      16470 integration points.
  Task     3 has      16526 integration points.
  Task     4 has      16458 integration points.
  Task     5 has      16454 integration points.
  Task     6 has      16550 integration points.
  Task     7 has      16471 integration points.
  Task     8 has      16472 integration points.
  Task     9 has      16476 integration points.
  Task    10 has      16467 integration points.
  Task    11 has      16559 integration points.
  Task    12 has      16561 integration points.
  Task    13 has      16465 integration points.
  Task    14 has      16514 integration points.
  Task    15 has      16586 integration points.
  Task    16 has      16464 integration points.
  Task    17 has      16496 integration points.
  Task    18 has      16471 integration points.
  Task    19 has      16529 integration points.
  Task    20 has      16559 integration points.
  Task    21 has      16468 integration points.
  Task    22 has      16462 integration points.
  Task    23 has      16487 integration points.
  Task    24 has      16544 integration points.
  Task    25 has      16496 integration points.
  Task    26 has      16439 integration points.
  Task    27 has      16485 integration points.
  Task    28 has      16460 integration points.
  Task    29 has      16470 integration points.
  Task    30 has      16443 integration points.
  Task    31 has      16512 integration points.
  Initializing partition tables, free-atom densities, potentials, etc. across the integration grid (initialize_grid_storage).
  | initialize_grid_storage: Actual outermost partition radius vs. multipole_radius_free
  | (-- VB: in principle, multipole_radius_free should be larger, hence this output)
  | Species        1: Confinement radius =              6.000000000000000 AA, multipole_radius_free =              6.071692442739658 AA.
  | Species        1: outer_partition_radius set to              6.071692442739658 AA .
  | Species        2: Confinement radius =              6.000000000000000 AA, multipole_radius_free =              6.029870734432609 AA.
  | Species        2: outer_partition_radius set to              6.029870734432609 AA .
  | Species        3: Confinement radius =              6.000000000000000 AA, multipole_radius_free =              6.058726835495003 AA.
  | Species        3: outer_partition_radius set to              6.058726835495003 AA .
  | Species        4: Confinement radius =              6.000000000000000 AA, multipole_radius_free =              6.064445521808699 AA.
  | Species        4: outer_partition_radius set to              6.064445521808699 AA .
  | Original list of interatomic distances with          32 x         32 entries is created.
  | Net number of integration points:   527728
  | of which are non-zero points    :   411881
  Obtaining max. number of non-zero basis functions in each batch (get_n_compute_maxes).
  | Maximal number of non-zero basis functions:      803 in task     0
  | Maximal number of non-zero basis functions:      813 in task     1
  | Maximal number of non-zero basis functions:      820 in task     2
  | Maximal number of non-zero basis functions:      801 in task     3
  | Maximal number of non-zero basis functions:      791 in task     4
  | Maximal number of non-zero basis functions:      800 in task     5
  | Maximal number of non-zero basis functions:      807 in task     6
  | Maximal number of non-zero basis functions:      804 in task     7
  | Maximal number of non-zero basis functions:      817 in task     8
  | Maximal number of non-zero basis functions:      804 in task     9
  | Maximal number of non-zero basis functions:      800 in task    10
  | Maximal number of non-zero basis functions:      802 in task    11
  | Maximal number of non-zero basis functions:      787 in task    12
  | Maximal number of non-zero basis functions:      811 in task    13
  | Maximal number of non-zero basis functions:      804 in task    14
  | Maximal number of non-zero basis functions:      807 in task    15
  | Maximal number of non-zero basis functions:      804 in task    16
  | Maximal number of non-zero basis functions:      771 in task    17
  | Maximal number of non-zero basis functions:      811 in task    18
  | Maximal number of non-zero basis functions:      812 in task    19
  | Maximal number of non-zero basis functions:      790 in task    20
  | Maximal number of non-zero basis functions:      799 in task    21
  | Maximal number of non-zero basis functions:      803 in task    22
  | Maximal number of non-zero basis functions:      796 in task    23
  | Maximal number of non-zero basis functions:      814 in task    24
  | Maximal number of non-zero basis functions:      794 in task    25
  | Maximal number of non-zero basis functions:      807 in task    26
  | Maximal number of non-zero basis functions:      801 in task    27
  | Maximal number of non-zero basis functions:      806 in task    28
  | Maximal number of non-zero basis functions:      810 in task    29
  | Maximal number of non-zero basis functions:      795 in task    30
  | Maximal number of non-zero basis functions:      818 in task    31
  Selecting the method for density update.
  Loop over occupied states selected for charge density update.
  Integrating Hamiltonian matrix: batch-based integration.
  Time summed over all CPUs for integration: real work       23.985 s, elapsed       25.042 s
  Integrating overlap matrix.
  Time summed over all CPUs for integration: real work       14.749 s, elapsed       15.302 s
  Deallocating overlap matrix.

  Updating Kohn-Sham eigenvalues, eigenvectors, occupation numbers, and Fermi level.
  Solving generalized eigenproblem
  Solving real symmetric generalised eigenvalue problem by standard ScaLAPACK.
  Transforming overlap matrix with ScaLAPACK and checking for singularities.
  : Overlap matrix is nonsingular, using Cholesky decomposition
  | Lowest eigenvalue:  0.845423E-04
  Factoring overlap matrix with Cholesky decomposition
  Using Cholesky factor for transformation
  Using 1-stage real ELPA solver
  Determining occupation numbers for Kohn-Sham eigenstates.
  | Chemical potential (Fermi level) in eV                 : -.94498268E+01
  | Error in electron count due to remaining E_F inaccuracy: 0.00000000E+00
  | Maximum occupation number of highest empty state:  0.00E+00

  Writing Kohn-Sham eigenvalues.

  State    Occupation    Eigenvalue [Ha]    Eigenvalue [eV]
      1       2.00000         -18.974432         -516.32058
      2       2.00000         -18.973377         -516.29185
      3       2.00000         -18.972521         -516.26857
      4       2.00000         -14.256341         -387.93478
      5       2.00000         -14.253257         -387.85086
      6       2.00000         -14.252953         -387.84258
      7       2.00000         -10.171981         -276.79367
      8       2.00000         -10.171583         -276.78285
      9       2.00000         -10.170925         -276.76495
     10       2.00000         -10.166807         -276.65289
     11       2.00000         -10.148898         -276.16556
     12       2.00000         -10.146948         -276.11249
     13       2.00000         -10.135989         -275.81429
     14       2.00000         -10.134971         -275.78659
     15       2.00000         -10.133534         -275.74749
     16       2.00000          -1.133531          -30.84494
     17       2.00000          -1.129561          -30.73691
     18       2.00000          -1.128168          -30.69902
     19       2.00000          -1.018079          -27.70335
     20       2.00000          -1.013517          -27.57921
     21       2.00000          -1.003504          -27.30673
     22       2.00000          -0.882064          -24.00219
     23       2.00000          -0.877233          -23.87071
     24       2.00000          -0.850036          -23.13066
     25       2.00000          -0.821394          -22.35126
     26       2.00000          -0.774760          -21.08229
     27       2.00000          -0.757458          -20.61148
     28       2.00000          -0.704437          -19.16871
     29       2.00000          -0.690785          -18.79722
     30       2.00000          -0.668133          -18.18082
     31       2.00000          -0.644076          -17.52619
     32       2.00000          -0.628641          -17.10620
     33       2.00000          -0.613627          -16.69764
     34       2.00000          -0.599529          -16.31401
     35       2.00000          -0.589288          -16.03534
     36       2.00000          -0.579122          -15.75871
     37       2.00000          -0.564285          -15.35498
     38       2.00000          -0.562070          -15.29469
     39       2.00000          -0.558197          -15.18931
     40       2.00000          -0.554617          -15.09189
     41       2.00000          -0.551497          -15.00699
     42       2.00000          -0.547751          -14.90505
     43       2.00000          -0.534121          -14.53418
     44       2.00000          -0.528499          -14.38119
     45       2.00000          -0.518556          -14.11062
     46       2.00000          -0.515917          -14.03882
     47       2.00000          -0.511139          -13.90881
     48       2.00000          -0.502055          -13.66162
     49       2.00000          -0.497079          -13.52621
     50       2.00000          -0.485120          -13.20080
     51       2.00000          -0.478334          -13.01612
     52       2.00000          -0.477175          -12.98461
     53       2.00000          -0.408849          -11.12535
     54       2.00000          -0.405943          -11.04626
     55       2.00000          -0.403201          -10.97166
     56       2.00000          -0.387657          -10.54868
     57       2.00000          -0.386718          -10.52314
     58       2.00000          -0.378011          -10.28620
     59       0.00000          -0.171886           -4.67726
     60       0.00000          -0.162632           -4.42543
     61       0.00000          -0.154680           -4.20906
     62       0.00000          -0.081623           -2.22108
     63       0.00000          -0.062608           -1.70366
     64       0.00000          -0.057960           -1.57717
     65       0.00000          -0.054695           -1.48833
     66       0.00000          -0.043708           -1.18936
     67       0.00000          -0.035329           -0.96134
     68       0.00000          -0.033050           -0.89934
     69       0.00000          -0.025851           -0.70345
     70       0.00000          -0.023538           -0.64049
     71       0.00000          -0.019759           -0.53768
     72       0.00000          -0.015966           -0.43446
     73       0.00000          -0.015145           -0.41212
     74       0.00000          -0.007453           -0.20280
     75       0.00000          -0.004040           -0.10994
     76       0.00000           0.001383            0.03763
     77       0.00000           0.007310            0.19893
     78       0.00000           0.010211            0.27786
     79       0.00000           0.016183            0.44036
     80       0.00000           0.017961            0.48875
     81       0.00000           0.021882            0.59544
     82       0.00000           0.024749            0.67347
     83       0.00000           0.029804            0.81101
     84       0.00000           0.031350            0.85307
     85       0.00000           0.037629            1.02393
     86       0.00000           0.050723            1.38025
     87       0.00000           0.053512            1.45614
     88       0.00000           0.057656            1.56891
     89       0.00000           0.063993            1.74135
     90       0.00000           0.073027            1.98716
     91       0.00000           0.076713            2.08746
     92       0.00000           0.080711            2.19625
     93       0.00000           0.083859            2.28192
     94       0.00000           0.091801            2.49805
     95       0.00000           0.099125            2.69733
     96       0.00000           0.103168            2.80734
     97       0.00000           0.107581            2.92742
     98       0.00000           0.113257            3.08187
     99       0.00000           0.119059            3.23976
    100       0.00000           0.121442            3.30459
    101       0.00000           0.128831            3.50568
    102       0.00000           0.133400            3.63000
    103       0.00000           0.136267            3.70802
    104       0.00000           0.139500            3.79599
    105       0.00000           0.148861            4.05072
    106       0.00000           0.152861            4.15956
    107       0.00000           0.156007            4.24516
    108       0.00000           0.163867            4.45906
    109       0.00000           0.170610            4.64253
    110       0.00000           0.176063            4.79091
    111       0.00000           0.182163            4.95690
    112       0.00000           0.183780            5.00092
    113       0.00000           0.190173            5.17487
    114       0.00000           0.193597            5.26804
    115       0.00000           0.200913            5.46712
    116       0.00000           0.205776            5.59946
    117       0.00000           0.207961            5.65890
    118       0.00000           0.209535            5.70174
    119       0.00000           0.220879            6.01041
    120       0.00000           0.223119            6.07137
    121       0.00000           0.225824            6.14498
    122       0.00000           0.232861            6.33647
    123       0.00000           0.236955            6.44787
    124       0.00000           0.237913            6.47393
    125       0.00000           0.244854            6.66281
    126       0.00000           0.250604            6.81929
    127       0.00000           0.255147            6.94290
    128       0.00000           0.263061            7.15825
    129       0.00000           0.272602            7.41787

  Highest occupied state (VBM) at    -10.28619670 eV
  | Occupation number:      2.00000000

  Lowest unoccupied state (CBM) at    -4.67726265 eV
  | Occupation number:      0.00000000

  Overall HOMO-LUMO gap:      5.60893405 eV.
  Calculating total energy contributions from superposition of free atom densities.

  Total energy components:
  | Sum of eigenvalues            :        -437.85649715 Ha      -11914.68149967 eV
  | XC energy correction          :         -98.82615878 Ha       -2689.19660512 eV
  | XC potential correction       :         127.03071414 Ha        3456.68160576 eV
  | Free-atom electrostatic energy:        -333.62988271 Ha       -9078.53101919 eV
  | Hartree energy correction     :           0.00000000 Ha           0.00000000 eV
  | vdW energy correction         :           0.00000000 Ha           0.00000000 eV
  | Entropy correction            :          -0.00000000 Ha          -0.00000000 eV
  | ---------------------------
  | Total energy                  :        -743.28182450 Ha      -20225.72751822 eV
  | Total energy, T -> 0          :        -743.28182450 Ha      -20225.72751822 eV  <-- do not rely on this value for anything but (periodic) metals
  | Electronic free energy        :        -743.28182450 Ha      -20225.72751822 eV

  Derived energy quantities:
  | Kinetic energy                :         735.16994178 Ha       20004.99195875 eV
  | Electrostatic energy          :       -1379.62560750 Ha      -37541.52287185 eV
  | Energy correction for multipole
  | error in Hartree potential    :           0.00000000 Ha           0.00000000 eV
  | Sum of eigenvalues per atom                           :        -372.33379686 eV
  | Total energy (T->0) per atom                          :        -632.05398494 eV  <-- do not rely on this value for anything but (periodic) metals
  | Electronic free energy per atom                       :        -632.05398494 eV
  Initialize hartree_potential_storage
  Max. number of atoms included in rho_multipole:           32

  End scf initialization - timings             :  max(cpu_time)    wall_clock(cpu1)
  | Time for scf. initialization               :        2.032 s           2.031 s
  | Boundary condition initialization          :        0.004 s           0.000 s
  | Integration                                :        1.284 s           1.282 s
  | Solution of K.-S. eqns.                    :        0.080 s           0.078 s
  | Grid partitioning                          :        0.292 s           0.288 s
  | Preloading free-atom quantities on grid    :        0.028 s           0.028 s
  | Free-atom superposition energy             :        0.044 s           0.040 s
  | Total energy evaluation                    :        0.004 s           0.001 s
------------------------------------------------------------

------------------------------------------------------------
          Begin self-consistency iteration #    1

  Date     :  20170309, Time     :  175813.580
------------------------------------------------------------
  Evaluating new KS density.
  Integration grid: deviation in total charge (<rho> - N_e) =   0.000000E+00
  Pulay mixing of updated and previous charge densities.

  Evaluating partitioned Hartree potential by multipole expansion.
  | Analytical far-field extrapolation by fixed multipoles:
  | Hartree multipole sum: apparent total charge =   0.635601E-04
  Summing up the Hartree potential.
  Time summed over all CPUs for potential: real work        9.638 s, elapsed        9.876 s
  | RMS charge density error from multipole expansion :   0.107776E-01

  Integrating Hamiltonian matrix: batch-based integration.
  Time summed over all CPUs for integration: real work       23.953 s, elapsed       25.179 s

  Updating Kohn-Sham eigenvalues, eigenvectors, occupation numbers, and Fermi level.
  Solving generalized eigenproblem
  Solving real symmetric generalised eigenvalue problem by standard ScaLAPACK.
  Using Cholesky factor for transformation
  Using 2-stage real ELPA solver
  K-Point:    1, Trafo times: 1-stage=     0.021 s, 2-stage=     0.019 s ==> Using 2-stage solver
  Determining occupation numbers for Kohn-Sham eigenstates.
  | Chemical potential (Fermi level) in eV                 : -.48707992E+01
  | Error in electron count due to remaining E_F inaccuracy: 0.00000000E+00
  | Maximum occupation number of highest empty state:  0.00E+00

  Writing Kohn-Sham eigenvalues.

  State    Occupation    Eigenvalue [Ha]    Eigenvalue [eV]
      1       2.00000         -18.632582         -507.01835
      2       2.00000         -18.622256         -506.73737
      3       2.00000         -18.612664         -506.47637
      4       2.00000         -14.010648         -381.24914
      5       2.00000         -14.000332         -380.96841
      6       2.00000         -13.986017         -380.57889
      7       2.00000         -10.068270         -273.97157
      8       2.00000         -10.067701         -273.95607
      9       2.00000         -10.050134         -273.47807
     10       2.00000          -9.980727         -271.58940
     11       2.00000          -9.973944         -271.40483
     12       2.00000          -9.876549         -268.75456
     13       2.00000          -9.850320         -268.04084
     14       2.00000          -9.836999         -267.67837
     15       2.00000          -9.832601         -267.55868
     16       2.00000          -0.977148          -26.58956
     17       2.00000          -0.968204          -26.34616
     18       2.00000          -0.956204          -26.01963
     19       2.00000          -0.881339          -23.98244
     20       2.00000          -0.869170          -23.65131
     21       2.00000          -0.856637          -23.31027
     22       2.00000          -0.740856          -20.15971
     23       2.00000          -0.731866          -19.91509
     24       2.00000          -0.703964          -19.15584
     25       2.00000          -0.670562          -18.24692
     26       2.00000          -0.639025          -17.38876
     27       2.00000          -0.617482          -16.80253
     28       2.00000          -0.588601          -16.01665
     29       2.00000          -0.557105          -15.15959
     30       2.00000          -0.550784          -14.98759
     31       2.00000          -0.515085          -14.01618
     32       2.00000          -0.506259          -13.77600
     33       2.00000          -0.487873          -13.27570
     34       2.00000          -0.454854          -12.37720
     35       2.00000          -0.450904          -12.26973
     36       2.00000          -0.439274          -11.95324
     37       2.00000          -0.434064          -11.81147
     38       2.00000          -0.422133          -11.48682
     39       2.00000          -0.410957          -11.18272
     40       2.00000          -0.403030          -10.96701
     41       2.00000          -0.393647          -10.71167
     42       2.00000          -0.392779          -10.68806
     43       2.00000          -0.385869          -10.50002
     44       2.00000          -0.383342          -10.43126
     45       2.00000          -0.375463          -10.21686
     46       2.00000          -0.373171          -10.15450
     47       2.00000          -0.366628           -9.97647
     48       2.00000          -0.358832           -9.76432
     49       2.00000          -0.356158           -9.69155
     50       2.00000          -0.346452           -9.42744
     51       2.00000          -0.340143           -9.25577
     52       2.00000          -0.339732           -9.24457
     53       2.00000          -0.252114           -6.86038
     54       2.00000          -0.241416           -6.56927
     55       2.00000          -0.230673           -6.27693
     56       2.00000          -0.226019           -6.15028
     57       2.00000          -0.219217           -5.96521
     58       2.00000          -0.207841           -5.65565
     59       0.00000          -0.065900           -1.79323
     60       0.00000          -0.064873           -1.76529
     61       0.00000          -0.044888           -1.22147
     62       0.00000          -0.034886           -0.94931
     63       0.00000          -0.015518           -0.42226
     64       0.00000          -0.010870           -0.29578
     65       0.00000          -0.007925           -0.21566
     66       0.00000           0.006130            0.16680
     67       0.00000           0.008192            0.22292
     68       0.00000           0.017192            0.46782
     69       0.00000           0.023446            0.63800
     70       0.00000           0.028240            0.76844
     71       0.00000           0.038236            1.04044
     72       0.00000           0.041512            1.12961
     73       0.00000           0.047631            1.29611
     74       0.00000           0.051882            1.41177
     75       0.00000           0.054208            1.47508
     76       0.00000           0.058576            1.59393
     77       0.00000           0.063879            1.73824
     78       0.00000           0.073965            2.01269
     79       0.00000           0.079361            2.15954
     80       0.00000           0.085272            2.32038
     81       0.00000           0.087761            2.38809
     82       0.00000           0.090452            2.46131
     83       0.00000           0.094906            2.58252
     84       0.00000           0.100224            2.72722
     85       0.00000           0.109230            2.97230
     86       0.00000           0.116302            3.16474
     87       0.00000           0.118241            3.21749
     88       0.00000           0.122033            3.32068
     89       0.00000           0.128660            3.50102
     90       0.00000           0.135934            3.69896
     91       0.00000           0.143454            3.90359
     92       0.00000           0.145866            3.96923
     93       0.00000           0.148525            4.04157
     94       0.00000           0.152017            4.13659
     95       0.00000           0.163763            4.45622
     96       0.00000           0.167972            4.57074
     97       0.00000           0.168263            4.57867
     98       0.00000           0.175498            4.77554
     99       0.00000           0.182939            4.97802
    100       0.00000           0.186433            5.07310
    101       0.00000           0.191368            5.20738
    102       0.00000           0.193432            5.26355
    103       0.00000           0.198539            5.40252
    104       0.00000           0.199994            5.44212
    105       0.00000           0.205451            5.59061
    106       0.00000           0.210840            5.73725
    107       0.00000           0.219158            5.96359
    108       0.00000           0.222842            6.06383
    109       0.00000           0.228093            6.20671
    110       0.00000           0.233654            6.35806
    111       0.00000           0.237523            6.46333
    112       0.00000           0.249564            6.79099
    113       0.00000           0.253250            6.89129
    114       0.00000           0.254940            6.93727
    115       0.00000           0.262029            7.13018
    116       0.00000           0.263567            7.17203
    117       0.00000           0.268310            7.30110
    118       0.00000           0.274026            7.45663
    119       0.00000           0.281527            7.66074
    120       0.00000           0.285806            7.77718
    121       0.00000           0.290443            7.90336
    122       0.00000           0.297945            8.10749
    123       0.00000           0.300667            8.18157
    124       0.00000           0.303634            8.26230
    125       0.00000           0.312403            8.50092
    126       0.00000           0.319664            8.69851
    127       0.00000           0.325741            8.86387
    128       0.00000           0.333902            9.08595
    129       0.00000           0.339481            9.23774

  Highest occupied state (VBM) at     -5.65565159 eV
  | Occupation number:      2.00000000

  Lowest unoccupied state (CBM) at    -1.79322778 eV
  | Occupation number:      0.00000000

  Overall HOMO-LUMO gap:      3.86242381 eV.

  Total energy components:
  | Sum of eigenvalues            :        -418.04923720 Ha      -11375.69853346 eV
  | XC energy correction          :        -100.75131578 Ha       -2741.58279264 eV
  | XC potential correction       :         129.52676620 Ha        3524.60263811 eV
  | Free-atom electrostatic energy:        -333.62988271 Ha       -9078.53101919 eV
  | Hartree energy correction     :         -19.81296221 Ha        -539.13813279 eV
  | vdW energy correction         :           0.00000000 Ha           0.00000000 eV
  | Entropy correction            :          -0.00000000 Ha          -0.00000000 eV
  | ---------------------------
  | Total energy                  :        -742.71663171 Ha      -20210.34783997 eV
  | Total energy, T -> 0          :        -742.71663171 Ha      -20210.34783997 eV  <-- do not rely on this value for anything but (periodic) metals
  | Electronic free energy        :        -742.71663171 Ha      -20210.34783997 eV

  Derived energy quantities:
  | Kinetic energy                :         744.01120386 Ha       20245.57494054 eV
  | Electrostatic energy          :       -1385.97651979 Ha      -37714.33998787 eV
  | Energy correction for multipole
  | error in Hartree potential    :          -0.04109974 Ha          -1.11838084 eV
  | Sum of eigenvalues per atom                           :        -355.49057917 eV
  | Total energy (T->0) per atom                          :        -631.57337000 eV  <-- do not rely on this value for anything but (periodic) metals
  | Electronic free energy per atom                       :        -631.57337000 eV

  Self-consistency convergence accuracy:
  | Change of charge density      :  0.9026E+00
  | Change of sum of eigenvalues  :  0.5390E+03 eV
  | Change of total energy        :  0.1538E+02 eV

  End self-consistency iteration #     1       :  max(cpu_time)    wall_clock(cpu1)
  | Time for this iteration                    :        1.664 s           1.665 s
  | Charge density update                      :        0.516 s           0.514 s
[...]
   ----------------------------------------------------------------
   Total forces(  20)            : -0.167404E-02  0.156710E-02 -0.282528E-02
  atom #   21
   Hellmann-Feynman              :  0.202298E-01  0.156918E-02  0.350450E-01
   Ionic forces                  :  0.000000E+00  0.000000E+00  0.000000E+00
   Multipole                     : -0.220890E-01 -0.245710E-01  0.975458E-02
   Pulay + GGA                   : -0.157219E-01  0.184865E-01 -0.550029E-01
   Van der Waals                 :  0.173766E-01  0.386367E-02  0.831154E-02
   ----------------------------------------------------------------
   Total forces(  21)            : -0.204537E-03 -0.651662E-03 -0.189172E-02
  atom #   22
   Hellmann-Feynman              : -0.195120E-01  0.180954E-01 -0.478876E-01
   Ionic forces                  :  0.000000E+00  0.000000E+00  0.000000E+00
   Multipole                     : -0.162852E-01  0.234842E-02  0.574069E-02
   Pulay + GGA                   :  0.380858E-01 -0.120727E-01  0.524830E-01
   Van der Waals                 : -0.207974E-02 -0.912476E-02 -0.928156E-02
   ----------------------------------------------------------------
   Total forces(  22)            :  0.208832E-03 -0.753641E-03  0.105452E-02
  atom #   23
   Hellmann-Feynman              : -0.943874E+00  0.279502E+00 -0.140086E+00
   Ionic forces                  :  0.000000E+00  0.000000E+00  0.000000E+00
   Multipole                     :  0.301866E+00 -0.858184E-01  0.689211E-01
   Pulay + GGA                   :  0.626097E+00 -0.192987E+00  0.560216E-01
   Van der Waals                 :  0.148613E-01 -0.225144E-03  0.159831E-01
   ----------------------------------------------------------------
   Total forces(  23)            : -0.105060E-02  0.471030E-03  0.840194E-03
  atom #   24
   Hellmann-Feynman              :  0.405308E-01  0.198448E-01 -0.268191E-01
   Ionic forces                  :  0.000000E+00  0.000000E+00  0.000000E+00
   Multipole                     : -0.168042E-01  0.290797E-01 -0.396180E-02
   Pulay + GGA                   : -0.237637E-01 -0.500553E-01  0.330871E-01
   Van der Waals                 : -0.458552E-04  0.137560E-02 -0.163962E-02
   ----------------------------------------------------------------
   Total forces(  24)            : -0.829309E-04  0.244773E-03  0.666602E-03
  atom #   25
   Hellmann-Feynman              :  0.555076E-01 -0.363662E-01  0.210116E-02
   Ionic forces                  :  0.000000E+00  0.000000E+00  0.000000E+00
   Multipole                     : -0.117398E-01 -0.389945E-03  0.293507E-01
   Pulay + GGA                   : -0.327417E-01  0.330350E-01 -0.384837E-01
   Van der Waals                 : -0.107368E-01  0.359412E-02  0.626246E-02
   ----------------------------------------------------------------
   Total forces(  25)            :  0.289201E-03 -0.127069E-03 -0.769351E-03
  atom #   26
   Hellmann-Feynman              :  0.227960E-01 -0.233812E-01 -0.334935E-01
   Ionic forces                  :  0.000000E+00  0.000000E+00  0.000000E+00
   Multipole                     : -0.275937E-01 -0.166062E-01 -0.151364E-01
   Pulay + GGA                   : -0.128665E-02  0.392311E-01  0.491919E-01
   Van der Waals                 :  0.648929E-02  0.181736E-02 -0.756080E-03
   ----------------------------------------------------------------
   Total forces(  26)            :  0.404976E-03  0.106112E-02 -0.194102E-03
  atom #   27
   Hellmann-Feynman              : -0.125832E+01  0.721695E-01  0.123611E+01
   Ionic forces                  :  0.000000E+00  0.000000E+00  0.000000E+00
   Multipole                     : -0.391697E-01  0.159946E+00  0.125253E-01
   Pulay + GGA                   :  0.130331E+01 -0.253399E+00 -0.125115E+01
   Van der Waals                 : -0.453228E-02  0.206018E-01  0.168586E-02
   ----------------------------------------------------------------
   Total forces(  27)            :  0.128600E-02 -0.681747E-03 -0.827727E-03
  atom #   28
   Hellmann-Feynman              :  0.616461E+00 -0.156416E+01 -0.152716E+01
   Ionic forces                  :  0.000000E+00  0.000000E+00  0.000000E+00
   Multipole                     :  0.340174E-02  0.303543E-01  0.105586E+00
   Pulay + GGA                   : -0.628980E+00  0.151838E+01  0.140685E+01
   Van der Waals                 :  0.875409E-02  0.163015E-01  0.159197E-01
   ----------------------------------------------------------------
   Total forces(  28)            : -0.362606E-03  0.882609E-03  0.119236E-02
  atom #   29
   Hellmann-Feynman              : -0.161075E-02 -0.274091E-01 -0.385400E-01
   Ionic forces                  :  0.000000E+00  0.000000E+00  0.000000E+00
   Multipole                     : -0.192692E-01 -0.332273E-02 -0.125655E-01
   Pulay + GGA                   :  0.205228E-01  0.171852E-01  0.547632E-01
   Van der Waals                 : -0.120189E-03  0.133708E-01 -0.206619E-02
   ----------------------------------------------------------------
   Total forces(  29)            : -0.477365E-03 -0.175841E-03  0.159152E-02
  atom #   30
   Hellmann-Feynman              : -0.277240E-01  0.438094E-01  0.224780E-01
   Ionic forces                  :  0.000000E+00  0.000000E+00  0.000000E+00
   Multipole                     : -0.166250E-01 -0.125359E-01 -0.405321E-01
   Pulay + GGA                   :  0.454689E-01 -0.400046E-01  0.146094E-01
   Van der Waals                 : -0.451190E-03  0.873490E-02  0.321033E-02
   ----------------------------------------------------------------
   Total forces(  30)            :  0.668733E-03  0.369114E-05 -0.234295E-03
  atom #   31
   Hellmann-Feynman              : -0.461092E-01  0.238544E-01  0.530786E-01
   Ionic forces                  :  0.000000E+00  0.000000E+00  0.000000E+00
   Multipole                     : -0.138924E-02 -0.328085E-01  0.719744E-02
   Pulay + GGA                   :  0.387018E-01  0.116320E-01 -0.598782E-01
   Van der Waals                 :  0.880217E-02 -0.205732E-02 -0.716003E-03
   ----------------------------------------------------------------
   Total forces(  31)            :  0.551088E-05  0.620514E-03 -0.318147E-03
  atom #   32
   Hellmann-Feynman              :  0.408589E-02  0.618221E-01  0.255589E-01
   Ionic forces                  :  0.000000E+00  0.000000E+00  0.000000E+00
   Multipole                     :  0.311047E-01  0.573137E-02 -0.131731E-01
   Pulay + GGA                   : -0.367421E-01 -0.628518E-01 -0.121230E-01
   Van der Waals                 :  0.101709E-02 -0.511819E-02 -0.268527E-03
   ----------------------------------------------------------------
   Total forces(  32)            : -0.534505E-03 -0.416527E-03 -0.573244E-05

  Timings for VdW correction (Tkatchenko-Scheffler 2009 or later):
  | CPU time:        0.128 s, Wall clock time:        0.128 s.
  Removing unitary transformations (pure translations, rotations) from forces on atoms.
  Atomic forces before filtering:
  | Net force on center of mass :  -0.310875E-03 -0.360211E-03  0.188079E-03 eV/A
  | Net torque on center of mass:   0.403287E-02 -0.103886E-02  0.160664E-02 eV
  Atomic forces after filtering:
  | Net force on center of mass :   0.348449E-18 -0.609787E-18  0.148091E-17 eV/A
  | Net torque on center of mass:  -0.460979E-17 -0.216660E-17 -0.147513E-17 eV

  Energy and forces in a compact form:
  | Total energy uncorrected      :         -0.202087073110894E+05 eV
  | Total energy corrected        :         -0.202087073110894E+05 eV  <-- do not rely on this value for anything but (periodic) metals
  | Electronic free energy        :         -0.202087073110894E+05 eV
  Total atomic forces (unitary forces cleaned) [eV/Ang]:
  |   1          0.177756870766406E-03          0.210389223619807E-03         -0.127257712081187E-02
  |   2          0.140087085547061E-02          0.258556712637139E-02         -0.470824815644656E-03
  |   3         -0.651043107680532E-03         -0.315289761416908E-02         -0.106057025307858E-02
  |   4          0.327061744723047E-03         -0.478477727361435E-03         -0.187200461366812E-03
  |   5          0.129888007972591E-03          0.507668613807031E-03          0.344524843125280E-05
  |   6         -0.751385118980212E-04          0.300834687172259E-03         -0.733388076141835E-03
  |   7          0.767843819643116E-03         -0.509534754636326E-03          0.105260911856391E-02
  |   8         -0.547426727864239E-03          0.965988497201342E-03         -0.845819247164200E-03
  |   9         -0.375962230006295E-03         -0.243344018693368E-03          0.644745122616475E-03
  |  10          0.766138247247045E-03          0.127628130075886E-02         -0.726772674203771E-03
  |  11         -0.741924469258737E-03         -0.158364216671947E-02          0.533205111318677E-03
  |  12         -0.104037933378415E-02         -0.362471104985917E-03          0.128333554030822E-03
  |  13          0.182446367227898E-03         -0.524211787193791E-04          0.158120146562260E-02
  |  14         -0.892548581532179E-04          0.244167472942535E-03         -0.253114706994219E-03
  |  15         -0.259027866816696E-03          0.780401578760474E-04          0.150780679081397E-03
  |  16         -0.106415222501122E-02         -0.428978239262068E-04         -0.501111242536734E-03
  |  17          0.737545986237154E-04         -0.182388310688934E-02          0.109363619488453E-02
  |  18          0.564107426342950E-03          0.136374054956896E-02         -0.133199678119001E-02
  |  19          0.201472742361206E-02         -0.137454957610808E-02          0.359229580826328E-02
  |  20         -0.167574572159441E-02          0.154429230495147E-02         -0.280513498436577E-02
  |  21         -0.183520158703190E-03         -0.665702118691193E-03         -0.192771809602985E-02
  |  22          0.215201860701843E-03         -0.714921080909592E-03          0.105903137882234E-02
  |  23         -0.103927892827508E-02          0.511794087362392E-03          0.832494422786897E-03
  |  24         -0.793895928069693E-04          0.298739988041243E-03          0.679316652614531E-03
  |  25          0.302399103619383E-03         -0.102990690504257E-03         -0.782985618393385E-03
  |  26          0.424078633943231E-03          0.111921707921530E-02         -0.219977037954976E-03
  |  27          0.127535131501383E-02         -0.686183348231056E-03         -0.783870578103600E-03
  |  28         -0.383061100009103E-03          0.853239602909716E-03          0.125888626473101E-02
  |  29         -0.487058283561795E-03         -0.166251035520832E-03          0.163402909310025E-02
  |  30          0.643536027835828E-03         -0.249117307121767E-04         -0.155862461987870E-03
  |  31         -0.115022970276906E-04          0.567226185705694E-03         -0.261995964927325E-03
  |  32         -0.561296890292214E-03         -0.442107800726340E-03          0.769100060274850E-04

  ------------------------------------ 
  Start decomposition of the XC Energy 
  ------------------------------------ 
  Hartree-Fock part   :          0.000000000 Ha              0.000000000 eV
  ------------------------------------ 
  X Energy            :        -96.985103160 Ha          -2639.098932853 eV
  C Energy GGA        :         -3.871051759 Ha           -105.336677827 eV
  Total XC Energy     :       -100.856154919 Ha          -2744.435610680 eV
  LDA X and C from self-consistent density 
  X Energy LDA        :        -88.006048116 Ha          -2394.766413613 eV
  C Energy LDA        :         -7.532641201 Ha           -204.973596026 eV
  ------------------------------------ 
  End decomposition of the XC Energy 
  ------------------------------------ 
   
  ESP charge fitting starts.
  | Calculation :  00000001  of  00000001
  | Full density
  Computing multipole expansion for total density.
  Generating points for esp charges.
  Partitioning the integration grid into batches with parallel hashing+maxmin method.
  | Number of batches:     3971
  | Maximal batch size:     197
  | Minimal batch size:      55
  | Average batch size:     122.945
  | Standard deviation of batch sizes:      14.186

  Integration load balanced across    32 MPI tasks.
  Work distribution over tasks is as follows:
  Initializing partition tables, free-atom densities, potentials, etc. across the integration grid (initialize_grid_storage).
  | Original list of interatomic distances with          32 x         32 entries is created.
  | Net number of integration points:   488213
  | of which are non-zero points    :   488213
  Summing up potential from multipole expanded  density.
  Summing up the Hartree potential.
  Time summed over all CPUs for potential: real work        6.349 s, elapsed        6.609 s
  Fitting esp charges to potential.
  |
  | ESP charges fitted to the electrostatic potential :
  |
  | Atom         1: C, ESP charge:      0.26068377
  |
  | Atom         2: C, ESP charge:     -0.48371661
  |
  | Atom         3: O, ESP charge:      0.51357084
  |
  | Atom         4: H, ESP charge:     -0.11025360
  |
  | Atom         5: H, ESP charge:     -0.08501391
  |
  | Atom         6: H, ESP charge:     -0.09283235
  |
  | Atom         7: N, ESP charge:      0.47084898
  |
  | Atom         8: C, ESP charge:     -0.43936548
  |
  | Atom         9: C, ESP charge:     -0.21718996
  |
  | Atom        10: O, ESP charge:      0.46485003
  |
  | Atom        11: H, ESP charge:     -0.27446659
  |
  | Atom        12: H, ESP charge:     -0.04868174
  |
  | Atom        13: C, ESP charge:      0.68147493
  |
  | Atom        14: H, ESP charge:     -0.20770863
  |
  | Atom        15: H, ESP charge:     -0.15563387
  |
  | Atom        16: H, ESP charge:     -0.19003446
  |
  | Atom        17: N, ESP charge:      0.21203100
  |
  | Atom        18: C, ESP charge:     -0.00519939
  |
  | Atom        19: C, ESP charge:     -0.52991020
  |
  | Atom        20: O, ESP charge:      0.51770088
  |
  | Atom        21: H, ESP charge:     -0.24984613
  |
  | Atom        22: H, ESP charge:     -0.02017689
  |
  | Atom        23: C, ESP charge:      0.34323068
  |
  | Atom        24: H, ESP charge:     -0.10637684
  |
  | Atom        25: H, ESP charge:     -0.11599225
  |
  | Atom        26: H, ESP charge:     -0.09360993
  |
  | Atom        27: N, ESP charge:      0.19145147
  |
  | Atom        28: C, ESP charge:      0.54673633
  |
  | Atom        29: H, ESP charge:     -0.19378352
  |
  | Atom        30: H, ESP charge:     -0.20551668
  |
  | Atom        31: H, ESP charge:     -0.18422944
  |
  | Atom        32: H, ESP charge:     -0.19304044

  RRMS:       0.00732460

  Done.

------------------------------------------------------------------------------
  Final output of selected total energy values:

  The following output summarizes some interesting total energy values
  at the end of a run (AFTER all relaxation, molecular dynamics, etc.).

  | Total energy of the DFT / Hartree-Fock s.c.f. calculation      :         -20208.707311089 eV
  | Final zero-broadening corrected energy (caution - metals only) :         -20208.707311089 eV
  | For reference only, the value of 1 Hartree used in FHI-aims is :             27.211384500 eV

  Before relying on these values, please be sure to understand exactly which
  total energy value is referred to by a given number. Different objects may
  all carry the same name 'total energy'. Definitions:

  Total energy of the DFT / Hartree-Fock s.c.f. calculation:
  | Note that this energy does not include ANY quantities calculated after the
  | s.c.f. cycle, in particular not ANY RPA, MP2, etc. many-body perturbation terms.

  Final zero-broadening corrected energy:
  | For metallic systems only, a broadening of the occupation numbers at the Fermi
  | level can be extrapolated back to zero broadening by an electron-gas inspired
  | formula. For all systems that are not real metals, this value can be
  | meaningless and should be avoided.

------------------------------------------------------------------------------
  Methods described in the following list of references were used in this FHI-aims run.
  If you publish the results, please make sure to cite these reference if they apply.
  FHI-aims is an academic code, and for our developers (often, Ph.D. students
  and postdocs), scientific credit in the community is essential.
  Thank you for helping us!

  For any use of FHI-aims, please cite:

    Volker Blum, Ralf Gehrke, Felix Hanke, Paula Havu, Ville Havu,
    Xinguo Ren, Karsten Reuter, and Matthias Scheffler
    'Ab initio molecular simulations with numeric atom-centered orbitals'
    Computer Physics Communications 180, 2175-2196 (2009)
    http://dx.doi.org/10.1016/j.cpc.2009.06.022


  The scalable eigensolver library ELPA was used in your run.
  ELPA is essential especially for large systems on hundreds or thousands of CPUs.
  For ELPA, please cite:

    Andreas Marek, Volker Blum, Rainer Johanni, Ville Havu, Bruno Lang,
    Thomas Auckenthaler, Alexander Heinecke, Hans-Joachim Bungartz, and Hermann Lederer,
    'The ELPA Library - Scalable Parallel Eigenvalue Solutions
    for Electronic Structure Theory and Computational Science'
    The Journal of Physics: Condensed Matter 26, 213201 (2014).
    http://dx.doi.org/10.1088/0953-8984/26/21/213201


  For ELPA's efficient two-stage tridiagonalization used in your run, please cite:

    T. Auckenthaler, V. Blum, H.-J. Bungartz, T. Huckle, R. Johanni, L. Kraemer,
    B. Lang, H. Lederer, and P. R. Willems,
    'Parallel solution of partial symmetric eigenvalue problems'
    'from  electronic structure calculations'
    Parallel Computing 37, 783-794 (2011).
    http://dx.doi.org/10.1016/j.parco.2011.05.002


  For the real-space grid partitioning and parallelization used in this calculation, please cite:

    Ville Havu, Volker Blum, Paula Havu, and Matthias Scheffler,
    'Efficient O(N) integration for all-electron electronic structure calculation'
    'using numerically tabulated basis functions'
    Journal of Computational Physics 228, 8367-8379 (2009).
    http://dx.doi.org/10.1016/j.jcp.2009.08.008

  Of course, there are many other important community references, e.g., those cited in the
  above references. Our list is limited to references that describe implementations in the
  FHI-aims code. The reason is purely practical (length of this list) - please credit others as well.

------------------------------------------------------------
          Leaving FHI-aims.
          Date     :  20170309, Time     :  175843.424

          Computational steps:
          | Number of self-consistency cycles          :           14

          Detailed time accounting                     :  max(cpu_time)    wall_clock(cpu1)
          | Total time                                 :       32.766 s          32.961 s
          | Preparation time                           :        0.240 s           0.237 s
          | Grid partitioning                          :        0.292 s           0.288 s
          | Preloading free-atom quantities on grid    :        0.028 s           0.028 s
          | Free-atom superposition energy             :        0.044 s           0.040 s
          | Total time for integrations                :       12.525 s          12.509 s
          | Total time for solution of K.-S. equations :        0.532 s           0.497 s
          | Total time for density & force components  :       10.457 s          10.434 s
          | Total time for mixing                      :        0.128 s           0.105 s
          | Total time for Hartree multipole update    :        0.064 s           0.060 s
          | Total time for Hartree multipole sum       :        6.348 s           6.319 s
          | Total time for total energy evaluation     :        0.036 s           0.015 s
          | Total time for vdW correction              :        0.128 s           0.128 s

          Have a nice day.
------------------------------------------------------------
