  MPI-parallelism will be employed.
------------------------------------------------------------
          Invoking FHI-aims ...
          Version 150427
          Git rev.: 9dd23e0 BL: Update Version stamp
          Compiled on 2015/11/03 at 22:05:20 on host eos03.

          When using FHI-aims, please cite the following reference:

          Volker Blum, Ralf Gehrke, Felix Hanke, Paula Havu,
          Ville Havu, Xinguo Ren, Karsten Reuter, and Matthias Scheffler,
          'Ab Initio Molecular Simulations with Numeric Atom-Centered Orbitals: FHI-aims',
          Computer Physics Communications 180, 2175-2196 (2009)

          For any questions about FHI-aims, please visit the aimsclub website
          with its forums and wiki. Contributions to both the forums and the
          wiki are warmly encouraged - they are for you, and everyone is welcome there.

------------------------------------------------------------

  Date     :  20170309, Time     :  162625.178
  Time zero on CPU 1             :   0.292018000000000E+00  s.
  Internal wall clock time zero  :           258308785.178  s.

  Using       32 parallel tasks.
  Task        0 on host eos107 reporting.
  Task        1 on host eos107 reporting.
  Task        2 on host eos107 reporting.
  Task        3 on host eos107 reporting.
  Task        4 on host eos107 reporting.
  Task        5 on host eos107 reporting.
  Task        6 on host eos107 reporting.
  Task        7 on host eos107 reporting.
  Task        8 on host eos107 reporting.
  Task        9 on host eos107 reporting.
  Task       10 on host eos107 reporting.
  Task       11 on host eos107 reporting.
  Task       12 on host eos107 reporting.
  Task       13 on host eos107 reporting.
  Task       14 on host eos107 reporting.
  Task       15 on host eos107 reporting.
  Task       16 on host eos107 reporting.
  Task       17 on host eos107 reporting.
  Task       18 on host eos107 reporting.
  Task       19 on host eos107 reporting.
  Task       20 on host eos107 reporting.
  Task       21 on host eos107 reporting.
  Task       22 on host eos107 reporting.
  Task       23 on host eos107 reporting.
  Task       24 on host eos107 reporting.
  Task       25 on host eos107 reporting.
  Task       26 on host eos107 reporting.
  Task       27 on host eos107 reporting.
  Task       28 on host eos107 reporting.
  Task       29 on host eos107 reporting.
  Task       30 on host eos107 reporting.
  Task       31 on host eos107 reporting.

  Performing system and environment tests:
  | Environment variable OMP_NUM_THREADS correctly set to 1.
  | Stacksize not measured: no C compiler
  | Checking for scalapack...
  | Testing pdtran()...
  | All pdtran() tests passed.

  Obtaining array dimensions for all initial allocations:
  
  -----------------------------------------------------------------------
  Parsing control.in (first pass over file, find array dimensions only).
  The contents of control.in will be repeated verbatim below
  unless switched off by setting 'verbatim_writeout .false.' .
  in the first line of control.in .
  -----------------------------------------------------------------------
  
  #########################################################################################
  #
  # Input for System
  #
  #########################################################################################
  #
  #
  #  Physical model
  #
    xc                 pbe
    vdw_correction_hirshfeld
    spin               none
    charge             0.
  #
  #  SCF convergence
  #
    occupation_type    gaussian 0.05
    mixer              pulay
      n_max_pulay        10
      charge_mix_param   0.5
    sc_accuracy_rho    1E-4
    sc_accuracy_eev    1E-2
    sc_accuracy_etot   1E-5
    sc_accuracy_forces 1E-4
    sc_iter_limit      1000
  #
  #  ESP charge
  #
    output esp
    esp equal_grid_n 80 80 80
  #
  #
  ################################################################################
  #
  #  FHI-aims code project
  # Volker Blum, Fritz Haber Institute Berlin, 2009
  #
  #  Suggested "tight" defaults for H atom (to be pasted into control.in file)
  #
  ################################################################################
    species        H
  #     global species definitions
      nucleus             1
      mass                1.00794
  #
      l_hartree           6
  #
      cut_pot             4.0  2.0  1.0
      basis_dep_cutoff    1e-4
  #
      radial_base         24 7.0
      radial_multiplier   2
      angular_grids       specified
        division   0.1930   50
        division   0.3175  110
        division   0.4293  194
        division   0.5066  302
        division   0.5626  434
  #      division   0.5922  590
  #      division   0.6227  974
  #      division   0.6868 1202
  #      outer_grid  770
        outer_grid  434
  ################################################################################
  #
  #  Definition of "minimal" basis
  #
  ################################################################################
  #     valence basis states
      valence      1  s   1.
  #     ion occupancy
      ion_occ      1  s   0.5
  ################################################################################
  #
  #  Suggested additional basis functions. For production calculations,
  #  uncomment them one after another (the most important basis functions are
  #  listed first).
  #
  #  Basis constructed for dimers: 0.5 A, 0.7 A, 1.0 A, 1.5 A, 2.5 A
  #
  ################################################################################
  #  "First tier" - improvements: -1014.90 meV to -62.69 meV
       hydro 2 s 2.1
       hydro 2 p 3.5
  #  "Second tier" - improvements: -12.89 meV to -1.83 meV
       hydro 1 s 0.85
       hydro 2 p 3.7
       hydro 2 s 1.2
       hydro 3 d 7
  #  "Third tier" - improvements: -0.25 meV to -0.12 meV
  #     hydro 4 f 11.2
  #     hydro 3 p 4.8
  #     hydro 4 d 9
  #     hydro 3 s 3.2
  ################################################################################
  #
  # For methods that use the localized form of the "resolution of identity" for
  # the two-electron Coulomb operator (RI_method LVL), particularly Hartree-Fock and
  # hybrid density functional calculations, the highest accuracy can be obtained by
  # uncommenting the line beginning with "for_aux"  below, thus adding an extra g radial
  # function to the construction of the product basis set for the expansion.
  # See Ref. New J. Phys. 17, 093020 (2015) for more information, particularly Figs. 1 and 6.
  #
  ################################################################################
  #
  # for_aux hydro 5 g 6.0
  ################################################################################
  #
  #  FHI-aims code project
  # Volker Blum, Fritz Haber Institute Berlin, 2009
  #
  #  Suggested "tight" defaults for C atom (to be pasted into control.in file)
  #
  ################################################################################
    species        C
  #     global species definitions
      nucleus             6
      mass                12.0107
  #
      l_hartree           6
  #
      cut_pot             4.0  2.0  1.0
      basis_dep_cutoff    1e-4
  #
      radial_base         34 7.0
      radial_multiplier   2
      angular_grids specified
        division   0.2187   50
        division   0.4416  110
        division   0.6335  194
        division   0.7727  302
        division   0.8772  434
  #      division   0.9334  590
  #      division   0.9924  770
  #      division   1.0230  974
  #      division   1.5020 1202
  #     outer_grid  974
        outer_grid  434
  ################################################################################
  #
  #  Definition of "minimal" basis
  #
  ################################################################################
  #     valence basis states
      valence      2  s   2.
      valence      2  p   2.
  #     ion occupancy
      ion_occ      2  s   1.
      ion_occ      2  p   1.
  ################################################################################
  #
  #  Suggested additional basis functions. For production calculations,
  #  uncomment them one after another (the most important basis functions are
  #  listed first).
  #
  #  Constructed for dimers: 1.0 A, 1.25 A, 1.5 A, 2.0 A, 3.0 A
  #
  ################################################################################
  #  "First tier" - improvements: -1214.57 meV to -155.61 meV
       hydro 2 p 1.7
       hydro 3 d 6
       hydro 2 s 4.9
  #  "Second tier" - improvements: -67.75 meV to -5.23 meV
       hydro 4 f 9.8
       hydro 3 p 5.2
       hydro 3 s 4.3
       hydro 5 g 14.4
       hydro 3 d 6.2
  #  "Third tier" - improvements: -2.43 meV to -0.60 meV
  #     hydro 2 p 5.6
  #     hydro 2 s 1.4
  #     hydro 3 d 4.9
  #     hydro 4 f 11.2
  #  "Fourth tier" - improvements: -0.39 meV to -0.18 meV
  #     hydro 2 p 2.1
  #     hydro 5 g 16.4
  #     hydro 4 d 13.2
  #     hydro 3 s 13.6
  #     hydro 4 f 17.6
  #  Further basis functions - improvements: -0.08 meV and below
  #     hydro 3 s 2
  #     hydro 3 p 6
  #     hydro 4 d 20
  ################################################################################
  #
  # For methods that use the localized form of the "resolution of identity" for
  # the two-electron Coulomb operator (RI_method LVL), particularly Hartree-Fock and
  # hybrid density functional calculations, the highest accuracy can be obtained by
  # uncommenting the line beginning with "for_aux"  below, thus adding an extra g radial
  # function to the construction of the product basis set for the expansion.
  # See Ref. New J. Phys. 17, 093020 (2015) for more information, particularly Figs. 1 and 6.
  #
  ################################################################################
  #
  # for_aux hydro 5 g 6.0
  ################################################################################
  #
  #  FHI-aims code project
  # Volker Blum, Fritz Haber Institute Berlin, 2009
  #
  #  Suggested "tight" defaults for N atom (to be pasted into control.in file)
  #
  ################################################################################
    species        N
  #     global species definitions
      nucleus             7
      mass                14.0067
  #
      l_hartree           6
  #
      cut_pot             4.0  2.0  1.0
      basis_dep_cutoff    1e-4
  #
      radial_base         35 7.0
      radial_multiplier   2
      angular_grids       specified
        division   0.1841   50
        division   0.3514  110
        division   0.5126  194
        division   0.6292  302
        division   0.6939  434
  #      division   0.7396  590
  #      division   0.7632  770
  #      division   0.8122  974
  #      division   1.1604 1202
  #      outer_grid  974
        outer_grid  434
  ################################################################################
  #
  #  Definition of "minimal" basis
  #
  ################################################################################
  #     valence basis states
      valence      2  s   2.
      valence      2  p   3.
  #     ion occupancy
      ion_occ      2  s   1.
      ion_occ      2  p   2.
  ################################################################################
  #
  #  Suggested additional basis functions. For production calculations,
  #  uncomment them one after another (the most important basis functions are
  #  listed first).
  #
  #  Constructed for dimers: 1.0 A, 1.1 A, 1.5 A, 2.0 A, 3.0 A
  #
  ################################################################################
  #  "First tier" - improvements: -1193.42 meV to -220.60 meV
       hydro 2 p 1.8
       hydro 3 d 6.8
       hydro 3 s 5.8
  #  "Second tier" - improvements: -80.21 meV to -6.86 meV
       hydro 4 f 10.8
       hydro 3 p 5.8
       hydro 1 s 0.8
       hydro 5 g 16
       hydro 3 d 4.9
  #  "Third tier" - improvements: -4.29 meV to -0.53 meV
  #     hydro 3 s 16
  #     ionic 2 p auto
  #     hydro 3 d 6.6
  #     hydro 4 f 11.6
  #  "Fourth tier" - improvements: -0.75 meV to -0.25 meV
  #     hydro 2 p 4.5
  #     hydro 2 s 2.4
  #     hydro 5 g 14.4
  #     hydro 4 d 14.4
  #     hydro 4 f 16.8
  # Further basis functions - -0.21 meV and below
  #     hydro 3 p 14.8
  #     hydro 3 s 4.4
  #     hydro 3 d 19.6
  #     hydro 5 g 12.8
  ################################################################################
  #
  # For methods that use the localized form of the "resolution of identity" for
  # the two-electron Coulomb operator (RI_method LVL), particularly Hartree-Fock and
  # hybrid density functional calculations, the highest accuracy can be obtained by
  # uncommenting the line beginning with "for_aux"  below, thus adding an extra g radial
  # function to the construction of the product basis set for the expansion.
  # See Ref. New J. Phys. 17, 093020 (2015) for more information, particularly Figs. 1 and 6.
  #
  ################################################################################
  #
  # for_aux hydro 5 g 6.0
  ################################################################################
  #
  #  FHI-aims code project
  # Volker Blum, Fritz Haber Institute Berlin, 2009
  #
  #  Suggested "tight" defaults for O atom (to be pasted into control.in file)
  #
  ################################################################################
    species        O
  #     global species definitions
      nucleus             8
      mass                15.9994
  #
      l_hartree           6
  #
      cut_pot             4.0  2.0  1.0
      basis_dep_cutoff    1e-4
  #
      radial_base         36 7.0
      radial_multiplier   2
       angular_grids specified
        division   0.1817   50
        division   0.3417  110
        division   0.4949  194
        division   0.6251  302
        division   0.8014  434
  #      division   0.8507  590
  #      division   0.8762  770
  #      division   0.9023  974
  #      division   1.2339 1202
  #      outer_grid 974
        outer_grid  434
  ################################################################################
  #
  #  Definition of "minimal" basis
  #
  ################################################################################
  #     valence basis states
      valence      2  s   2.
      valence      2  p   4.
  #     ion occupancy
      ion_occ      2  s   1.
      ion_occ      2  p   3.
  ################################################################################
  #
  #  Suggested additional basis functions. For production calculations,
  #  uncomment them one after another (the most important basis functions are
  #  listed first).
  #
  #  Constructed for dimers: 1.0 A, 1.208 A, 1.5 A, 2.0 A, 3.0 A
  #
  ################################################################################
  #  "First tier" - improvements: -699.05 meV to -159.38 meV
       hydro 2 p 1.8
       hydro 3 d 7.6
       hydro 3 s 6.4
  #  "Second tier" - improvements: -49.91 meV to -5.39 meV
       hydro 4 f 11.6
       hydro 3 p 6.2
       hydro 3 d 5.6
       hydro 5 g 17.6
       hydro 1 s 0.75
  #  "Third tier" - improvements: -2.83 meV to -0.50 meV
  #     ionic 2 p auto
  #     hydro 4 f 10.8
  #     hydro 4 d 4.7
  #     hydro 2 s 6.8
  #  "Fourth tier" - improvements: -0.40 meV to -0.12 meV
  #     hydro 3 p 5
  #     hydro 3 s 3.3
  #     hydro 5 g 15.6
  #     hydro 4 f 17.6
  #     hydro 4 d 14
  # Further basis functions - -0.08 meV and below
  #     hydro 3 s 2.1
  #     hydro 4 d 11.6
  #     hydro 3 p 16
  #     hydro 2 s 17.2
  ################################################################################
  #
  # For methods that use the localized form of the "resolution of identity" for
  # the two-electron Coulomb operator (RI_method LVL), particularly Hartree-Fock and
  # hybrid density functional calculations, the highest accuracy can be obtained by
  # uncommenting the line beginning with "for_aux"  below, thus adding an extra g radial
  # function to the construction of the product basis set for the expansion.
  # See Ref. New J. Phys. 17, 093020 (2015) for more information, particularly Figs. 1 and 6.
  #
  ################################################################################
  #
  # for_aux hydro 5 g 6.0
  
  -----------------------------------------------------------------------
  Completed first pass over input file control.in .
  -----------------------------------------------------------------------
  
  
  -----------------------------------------------------------------------
  Parsing geometry.in (first pass over file, find array dimensions only).
  The contents of geometry.in will be repeated verbatim below
  unless switched off by setting 'verbatim_writeout .false.' .
  in the first line of geometry.in .
  -----------------------------------------------------------------------
  
  #
  # This is the geometry file that corresponds to the current relaxation step.
  # If you do not want this file to be written, set the "write_restart_geometry" flag to .false.
  #
  atom       0.97341419      1.57494571      1.17653127 C
  atom       0.94734489      0.31520452      2.02159399 C
  atom       1.98029337     -0.17643396      2.46686241 O
  atom       1.72822842      2.24805121      1.59612118 H
  atom       0.01669638      2.10030106      1.09101990 H
  atom       1.29721367      1.29789048      0.16377896 H
  atom      -0.26331962     -0.31860944      2.22690313 N
  atom      -1.62285711      0.19193266      2.03358402 C
  atom      -1.95761506      0.51160773      0.55452141 C
  atom      -2.76318266      1.39165867      0.24914246 O
  atom      -0.16134341     -1.13302278      2.82644097 H
  atom      -2.27745320     -0.66307083      2.27191157 H
  atom      -2.00687237      1.34055957      2.97023911 C
  atom      -1.38304928      2.22726616      2.80375473 H
  atom      -1.88437471      1.02435083      4.01360492 H
  atom      -3.04946382      1.63143402      2.80117387 H
  atom      -1.34517706     -0.28587831     -0.35411236 N
  atom      -1.61589638     -0.19003846     -1.77304282 C
  atom      -1.30939217     -1.57032776     -2.37344697 C
  atom      -0.55370501     -2.35317615     -1.79479896 O
  atom      -0.70600010     -1.02749286     -0.07052315 H
  atom      -2.67872006      0.07033673     -1.88832912 H
  atom      -0.76110339      0.89919173     -2.44966621 C
  atom       0.30535682      0.65599301     -2.35659658 H
  atom      -0.95197324      1.86300241     -1.96317415 H
  atom      -1.00145479      1.00042681     -3.51591221 H
  atom      -1.87402398     -1.88292224     -3.57335237 N
  atom      -2.76631904     -1.08686415     -4.39825790 C
  atom      -1.56161677     -2.77821884     -3.93819250 H
  atom      -3.43566233     -1.75516151     -4.95307599 H
  atom      -2.22416861     -0.45954130     -5.12308987 H
  atom      -3.39127761     -0.43501376     -3.77785674 H
  
  -----------------------------------------------------------------------
  Completed first pass over input file geometry.in .
  -----------------------------------------------------------------------
  

  Basic array size parameters:
  | Number of species                 :        4
  | Number of atoms                   :       32
  | Max. basis fn. angular momentum   :        4
  | Max. atomic/ionic basis occupied n:        2
  | Max. number of basis fn. types    :        2
  | Max. radial fns per species/type  :        8
  | Max. logarithmic grid size        :     1301
  | Max. radial integration grid size :       73
  | Max. angular integration grid size:      434
  | Max. angular grid division number :        8
  | Radial grid for Hartree potential :     1301
  | Number of spin channels           :        1

------------------------------------------------------------
          Reading file control.in.
------------------------------------------------------------
  XC: Using PBE gradient-corrected functionals.
  Spin treatment: No spin polarisation.
  Charge =   0.000000E+00: Neutral system requested explicitly.
  Occupation type: Gaussian broadening, width =   0.500000E-01 eV.
  Using pulay charge density mixing.
  Pulay mixing - number of memorized iterations:   10
  Charge density mixing - mixing parameter:     0.5000
  Convergence accuracy of self-consistent charge density:  0.1000E-03
  Convergence accuracy of sum of eigenvalues:  0.1000E-01
  Convergence accuracy of total energy:  0.1000E-04
  Convergence accuracy of forces:  0.1000E-03
  Maximum number of s.-c. iterations  :  1000
  Fitting ESP-charges to Potential. 
  | Esp charge output options: 
  | ESP Grid method: 3, cubic grid
  | Number of points in x, ,y, z:  0080 0080 0080
  |
 
  Reading configuration options for species H                   .
  | Found nuclear charge :   1.0000
  | Found atomic mass :    1.00794000000000      amu
  | Found l_max for Hartree potential  :   6
  | Found cutoff potl. onset [A], width [A], scale factor :    4.00000    2.00000    1.00000
  | Threshold for basis-dependent cutoff potential is   0.100000E-03
  | Found data for basic radial integration grid :    24 points, outermost radius =    7.000 A
  | Found multiplier for basic radial grid :   2
  | Found angular grid specification: user-specified.
  | Specified grid contains     6 separate shells.
  | Check grid settings after all constraints further below.
  | Found free-atom valence shell :  1 s   1.000
  | No ionic wave fns used. Skipping ion_occ.
  | Found hydrogenic basis function :  2 s   2.100
  | Found hydrogenic basis function :  2 p   3.500
  | Found hydrogenic basis function :  1 s   0.850
  | Found hydrogenic basis function :  2 p   3.700
  | Found hydrogenic basis function :  2 s   1.200
  | Found hydrogenic basis function :  3 d   7.000
  Species H                   : Missing cutoff potential type.
  Defaulting to exp(1/x)/(1-x)^2 type cutoff potential.
  Species H : No 'logarithmic' tag. Using default grid for free atom:
  | Default logarithmic grid data [bohr] : 0.1000E-03 0.1000E+03 0.1012E+01
  Species H : On-site basis accuracy parameter (for Gram-Schmidt orthonormalisation) not specified.
  Using default value basis_acc =  0.1000000E-03.
  Species H                   : Using default innermost maximum threshold i_radial=  2 for radial functions.
  Species H                   : Default cutoff onset for free atom density etc. : 0.40000000E+01 AA.
  Species H                   : Basic radial grid will be enhanced according to radial_multiplier =   2, to contain    49 grid points.
 
  Reading configuration options for species C                   .
  | Found nuclear charge :   6.0000
  | Found atomic mass :    12.0107000000000      amu
  | Found l_max for Hartree potential  :   6
  | Found cutoff potl. onset [A], width [A], scale factor :    4.00000    2.00000    1.00000
  | Threshold for basis-dependent cutoff potential is   0.100000E-03
  | Found data for basic radial integration grid :    34 points, outermost radius =    7.000 A
  | Found multiplier for basic radial grid :   2
  | Found angular grid specification: user-specified.
  | Specified grid contains     6 separate shells.
  | Check grid settings after all constraints further below.
  | Found free-atom valence shell :  2 s   2.000
  | Found free-atom valence shell :  2 p   2.000
  | No ionic wave fns used. Skipping ion_occ.
  | No ionic wave fns used. Skipping ion_occ.
  | Found hydrogenic basis function :  2 p   1.700
  | Found hydrogenic basis function :  3 d   6.000
  | Found hydrogenic basis function :  2 s   4.900
  | Found hydrogenic basis function :  4 f   9.800
  | Found hydrogenic basis function :  3 p   5.200
  | Found hydrogenic basis function :  3 s   4.300
  | Found hydrogenic basis function :  5 g  14.400
  | Found hydrogenic basis function :  3 d   6.200
  Species C                   : Missing cutoff potential type.
  Defaulting to exp(1/x)/(1-x)^2 type cutoff potential.
  Species C : No 'logarithmic' tag. Using default grid for free atom:
  | Default logarithmic grid data [bohr] : 0.1000E-03 0.1000E+03 0.1012E+01
  Species C : On-site basis accuracy parameter (for Gram-Schmidt orthonormalisation) not specified.
  Using default value basis_acc =  0.1000000E-03.
  Species C                   : Using default innermost maximum threshold i_radial=  2 for radial functions.
  Species C                   : Default cutoff onset for free atom density etc. : 0.40000000E+01 AA.
  Species C                   : Basic radial grid will be enhanced according to radial_multiplier =   2, to contain    69 grid points.
 
  Reading configuration options for species N                   .
  | Found nuclear charge :   7.0000
  | Found atomic mass :    14.0067000000000      amu
  | Found l_max for Hartree potential  :   6
  | Found cutoff potl. onset [A], width [A], scale factor :    4.00000    2.00000    1.00000
  | Threshold for basis-dependent cutoff potential is   0.100000E-03
  | Found data for basic radial integration grid :    35 points, outermost radius =    7.000 A
  | Found multiplier for basic radial grid :   2
  | Found angular grid specification: user-specified.
  | Specified grid contains     6 separate shells.
  | Check grid settings after all constraints further below.
  | Found free-atom valence shell :  2 s   2.000
  | Found free-atom valence shell :  2 p   3.000
  | No ionic wave fns used. Skipping ion_occ.
  | No ionic wave fns used. Skipping ion_occ.
  | Found hydrogenic basis function :  2 p   1.800
  | Found hydrogenic basis function :  3 d   6.800
  | Found hydrogenic basis function :  3 s   5.800
  | Found hydrogenic basis function :  4 f  10.800
  | Found hydrogenic basis function :  3 p   5.800
  | Found hydrogenic basis function :  1 s   0.800
  | Found hydrogenic basis function :  5 g  16.000
  | Found hydrogenic basis function :  3 d   4.900
  Species N                   : Missing cutoff potential type.
  Defaulting to exp(1/x)/(1-x)^2 type cutoff potential.
  Species N : No 'logarithmic' tag. Using default grid for free atom:
  | Default logarithmic grid data [bohr] : 0.1000E-03 0.1000E+03 0.1012E+01
  Species N : On-site basis accuracy parameter (for Gram-Schmidt orthonormalisation) not specified.
  Using default value basis_acc =  0.1000000E-03.
  Species N                   : Using default innermost maximum threshold i_radial=  2 for radial functions.
  Species N                   : Default cutoff onset for free atom density etc. : 0.40000000E+01 AA.
  Species N                   : Basic radial grid will be enhanced according to radial_multiplier =   2, to contain    71 grid points.
 
  Reading configuration options for species O                   .
  | Found nuclear charge :   8.0000
  | Found atomic mass :    15.9994000000000      amu
  | Found l_max for Hartree potential  :   6
  | Found cutoff potl. onset [A], width [A], scale factor :    4.00000    2.00000    1.00000
  | Threshold for basis-dependent cutoff potential is   0.100000E-03
  | Found data for basic radial integration grid :    36 points, outermost radius =    7.000 A
  | Found multiplier for basic radial grid :   2
  | Found angular grid specification: user-specified.
  | Specified grid contains     6 separate shells.
  | Check grid settings after all constraints further below.
  | Found free-atom valence shell :  2 s   2.000
  | Found free-atom valence shell :  2 p   4.000
  | No ionic wave fns used. Skipping ion_occ.
  | No ionic wave fns used. Skipping ion_occ.
  | Found hydrogenic basis function :  2 p   1.800
  | Found hydrogenic basis function :  3 d   7.600
  | Found hydrogenic basis function :  3 s   6.400
  | Found hydrogenic basis function :  4 f  11.600
  | Found hydrogenic basis function :  3 p   6.200
  | Found hydrogenic basis function :  3 d   5.600
  | Found hydrogenic basis function :  5 g  17.600
  | Found hydrogenic basis function :  1 s   0.750
  Species O                   : Missing cutoff potential type.
  Defaulting to exp(1/x)/(1-x)^2 type cutoff potential.
  Species O : No 'logarithmic' tag. Using default grid for free atom:
  | Default logarithmic grid data [bohr] : 0.1000E-03 0.1000E+03 0.1012E+01
  Species O : On-site basis accuracy parameter (for Gram-Schmidt orthonormalisation) not specified.
  Using default value basis_acc =  0.1000000E-03.
  Species O                   : Using default innermost maximum threshold i_radial=  2 for radial functions.
  Species O                   : Default cutoff onset for free atom density etc. : 0.40000000E+01 AA.
  Species O                   : Basic radial grid will be enhanced according to radial_multiplier =   2, to contain    73 grid points.
 
  Finished reading input file 'control.in'. Consistency checks are next.
 
  Target number of points in a grid batch is not set. Defaulting to  100
  Method for grid partitioning is not set. Defaulting to parallel hash+maxmin partitioning.
  Batch size limit is not set. Defaulting to    200
  By default, will store active basis functions for each batch.
  If in need of memory, prune_basis_once .false. can be used to disable this option.
  communication_type for Hartree potential was not specified.
  Defaulting to calc_hartree .
  Pulay mixer: Number of initial linear mixing iterations not set.
  Defaulting to    0 iterations.
  Work space size for distributed Hartree potential not set.
  Defaulting to   0.200000E+03 MB.
  Algorithm-dependent basis array size parameters:
  | n_max_pulay                         :       10
  Geometry relaxation not requested: no relaxation will be performed.
  Handling of forces: Unphysical translation and rotation will be removed from forces.
  No accuracy limit for integral partition fn. given. Defaulting to  0.1000E-14.
  No threshold value for u(r) in integrations given. Defaulting to  0.1000E-05.
  No accuracy for occupation numbers given. Defaulting to  0.1000E-07.
  No threshold value for occupation numbers given. Defaulting to  0.0000E+00.
  No accuracy for fermi level given. Defaulting to  0.1000E-19.
  Maximum # of iterations to find E_F not set. Defaulting to  200.
  Preferred method for the eigenvalue solver ('KS_method') not specified in 'control.in'.
  Calling blacs routine to test compilation state
  Since scalapack support is enabled, defaulting to 'elpa'.
  Preferred method for the MBD eigenvalue solver ('mbd_eigensolver') not specified in 'control.in'.
  Calling blacs routine to test compilation state
  Since scalapack support is enabled, defaulting to 'scaLAPACK'.
  Will not use alltoall communication since running on < 1024 CPUs.
  Threshold for basis singularities not set.
  Default threshold for basis singularities:  0.1000E-04
  partition_type (choice of integration weights) for integrals was not specified.
  | Using a version of the partition function of Stratmann and coworkers ('stratmann_smoother').
  | At each grid point, the set of atoms used to build the partition table is smoothly restricted to
  | only those atoms whose free-atom density would be non-zero at that grid point.
  Partitioning for Hartree potential was not defined. Using partition_type for integrals.
  | Adjusted default value of keyword multip_moments_threshold to:       0.10000000E-11
  | This value may affect high angular momentum components of the Hartree potential in periodic systems.
  No q(lm)/r^(l+1) cutoff set for long-range Hartree potential.
  | Using default value of  0.100000E-09 .
  | Verify using the multipole_threshold keyword.
  Defaulting to new monopole extrapolation.
  Density update method: automatic selection selected.
------------------------------------------------------------


------------------------------------------------------------
          Reading geometry description geometry.in.
------------------------------------------------------------
 * Warning! You did not set the 'relativistic' flag in input file 'control.in'.
 * Since you are not attempting to treat any elements beyond Ca(Z=20), FHI-aims
 * will default to 'relativistic none'.
 * You must ensure that this is really what you want!!
 * For example, DO NOT compute total-energy differences between results from
 * different settings of the 'relativistic' flag.
  Input structure read successfully.
  The structure contains       32 atoms,  and a total of        116.000 electrons.

  Input geometry:
  | No unit cell requested.
  | Atomic structure:
  |       Atom                x [A]            y [A]            z [A]
  |    1: Species C              0.973414         1.574946         1.176531
  |    2: Species C              0.947345         0.315205         2.021594
  |    3: Species O              1.980293        -0.176434         2.466862
  |    4: Species H              1.728228         2.248051         1.596121
  |    5: Species H              0.016696         2.100301         1.091020
  |    6: Species H              1.297214         1.297890         0.163779
  |    7: Species N             -0.263320        -0.318609         2.226903
  |    8: Species C             -1.622857         0.191933         2.033584
  |    9: Species C             -1.957615         0.511608         0.554521
  |   10: Species O             -2.763183         1.391659         0.249142
  |   11: Species H             -0.161343        -1.133023         2.826441
  |   12: Species H             -2.277453        -0.663071         2.271912
  |   13: Species C             -2.006872         1.340560         2.970239
  |   14: Species H             -1.383049         2.227266         2.803755
  |   15: Species H             -1.884375         1.024351         4.013605
  |   16: Species H             -3.049464         1.631434         2.801174
  |   17: Species N             -1.345177        -0.285878        -0.354112
  |   18: Species C             -1.615896        -0.190038        -1.773043
  |   19: Species C             -1.309392        -1.570328        -2.373447
  |   20: Species O             -0.553705        -2.353176        -1.794799
  |   21: Species H             -0.706000        -1.027493        -0.070523
  |   22: Species H             -2.678720         0.070337        -1.888329
  |   23: Species C             -0.761103         0.899192        -2.449666
  |   24: Species H              0.305357         0.655993        -2.356597
  |   25: Species H             -0.951973         1.863002        -1.963174
  |   26: Species H             -1.001455         1.000427        -3.515912
  |   27: Species N             -1.874024        -1.882922        -3.573352
  |   28: Species C             -2.766319        -1.086864        -4.398258
  |   29: Species H             -1.561617        -2.778219        -3.938192
  |   30: Species H             -3.435662        -1.755162        -4.953076
  |   31: Species H             -2.224169        -0.459541        -5.123090
  |   32: Species H             -3.391278        -0.435014        -3.777857
  |

  | The smallest distance between any two atoms is         1.01600324 AA.
  |
  | The first atom of this pair is atom number                     27 .
  | The second atom of this pair is atom number                    29 .

  Number of empty states per atom not set in control.in - providing a guess from actual geometry.
  | Total number of empty states used during s.c.f. cycle:       71
  If you use a very high smearing, use empty_states (per atom!) in control.in to increase this value.

  Structure-dependent array size parameters: 
  | Maximum number of distinct radial functions  :       40
  | Maximum number of basis functions            :      840
  | Number of Kohn-Sham states (occupied + empty):      129
------------------------------------------------------------

------------------------------------------------------------
          Preparing all fixed parts of the calculation.
------------------------------------------------------------
  Determining machine precision:
    2.225073858507201E-308
  Setting up grids for atomic and cluster calculations.

  Creating wave function, potential, and density for free atoms.

  Species: H

  List of occupied orbitals and eigenvalues:
    n    l              occ      energy [Ha]    energy [eV]
    1    0           1.0000        -0.238382        -6.4867


  Species: C

  List of occupied orbitals and eigenvalues:
    n    l              occ      energy [Ha]    energy [eV]
    1    0           2.0000       -10.041232      -273.2358
    2    0           2.0000        -0.504327       -13.7234
    2    1           2.0000        -0.193750        -5.2722


  Species: N

  List of occupied orbitals and eigenvalues:
    n    l              occ      energy [Ha]    energy [eV]
    1    0           2.0000       -14.129007      -384.4699
    2    0           2.0000        -0.681802       -18.5528
    2    1           3.0000        -0.260543        -7.0897


  Species: O

  List of occupied orbitals and eigenvalues:
    n    l              occ      energy [Ha]    energy [eV]
    1    0           2.0000       -18.898576      -514.2564
    2    0           2.0000        -0.878795       -23.9132
    2    1           4.0000        -0.332075        -9.0362

  Creating fixed part of basis set: Ionic, confined, hydrogenic.
 
  H                    hydrogenic:
 
  List of hydrogenic basis orbitals: 
    n    l      effective z      eigenvalue [eV]  inner max. [A]     outer max. [A]     outer radius [A]   
    2    0         2.100000       -14.9965           0.193243           1.317208           5.373006
    2    1         3.500000       -41.6672           0.602369           0.602369           4.056063
    1    0         0.850000        -9.8292           0.624871           0.624871           5.373006
    2    1         3.700000       -46.5653           0.573622           0.573622           3.910002
    2    0         1.200000        -4.5995           0.334980           2.228188           5.505995
    3    2         7.000000       -74.0753           0.680699           0.680699           3.769201
 
 
  C                    hydrogenic:
 
  List of hydrogenic basis orbitals: 
    n    l      effective z      eigenvalue [eV]  inner max. [A]     outer max. [A]     outer radius [A]   
    2    1         1.700000        -9.8152           1.245706           1.245706           5.401630
    3    2         6.000000       -54.4226           0.792453           0.792453           4.178599
    2    0         4.900000       -81.6681           0.082559           0.562749           3.353238
    4    3         9.800000       -81.6681           0.863254           0.863254           4.028125
    3    1         5.200000       -40.8774           0.305389           1.215618           4.898362
    3    0         4.300000       -27.9508           0.091041           1.610311           5.401630
    5    4        14.400000      -112.8510           0.917666           0.917666           3.883070
    3    2         6.200000       -58.1113           0.763917           0.763917           4.077671
 
 
  N                    hydrogenic:
 
  List of hydrogenic basis orbitals: 
    n    l      effective z      eigenvalue [eV]  inner max. [A]     outer max. [A]     outer radius [A]   
    2    1         1.800000       -11.0118           1.177451           1.177451           5.427479
    3    2         6.800000       -69.9029           0.704619           0.704619           3.854246
    3    0         5.800000       -50.8549           0.067388           1.191934           4.629968
    4    3        10.800000       -99.1854           0.786571           0.786571           3.761152
    3    1         5.800000       -50.8549           0.274880           1.094176           4.518138
    1    0         0.800000        -8.7059           0.662839           0.662839           5.361532
    5    4        16.000000      -139.3222           0.825990           0.825990           3.625711
    3    2         4.900000       -36.2967           0.968267           0.968267           4.862000
 
 
  O                    hydrogenic:
 
  List of hydrogenic basis orbitals: 
    n    l      effective z      eigenvalue [eV]  inner max. [A]     outer max. [A]     outer radius [A]   
    2    1         1.800000       -11.0118           1.178562           1.178562           5.432602
    3    2         7.600000       -87.3182           0.624125           0.624125           3.541477
    3    0         6.400000       -61.9209           0.061167           1.081902           4.306578
    4    3        11.600000      -114.4238           0.731631           0.731631           3.585037
    3    1         6.200000       -58.1113           0.255680           1.030270           4.306578
    3    2         5.600000       -47.4081           0.847233           0.847233           4.413171
    5    4        17.600000      -168.5799           0.749740           0.749740           3.372465
    1    0         0.750000        -7.6499           0.705284           0.705284           5.366593
 

  Adding cutoff potential to free-atom effective potential.
  Creating atomic-like basis functions for current effective potential.

  Species H                   :

  List of atomic basis orbitals and eigenvalues:
    n    l      energy [Ha]    energy [eV]    outer radius [A]
    1    0        -0.238382        -6.4867       5.373006


  Species C                   :

  List of atomic basis orbitals and eigenvalues:
    n    l      energy [Ha]    energy [eV]    outer radius [A]
    1    0       -10.041232      -273.2358       1.934409
    2    0        -0.504327       -13.7234       5.271162
    2    1        -0.193750        -5.2722       5.401630


  Species N                   :

  List of atomic basis orbitals and eigenvalues:
    n    l      energy [Ha]    energy [eV]    outer radius [A]
    1    0       -14.129007      -384.4699       1.637919
    2    0        -0.681802       -18.5528       5.168461
    2    1        -0.260543        -7.0897       5.361532


  Species O                   :

  List of atomic basis orbitals and eigenvalues:
    n    l      energy [Ha]    energy [eV]    outer radius [A]
    1    0       -18.898576      -514.2564       1.415765
    2    0        -0.878795       -23.9132       5.048385
    2    1        -0.332075        -9.0362       5.301386

  Assembling full basis from fixed parts.
  | Species H :   atomic orbital   1 s accepted.
  | Species H :    hydro orbital   2 s accepted.
  | Species H :    hydro orbital   1 s accepted.
  | Species H :    hydro orbital   2 s accepted.
  | Species H :    hydro orbital   2 p accepted.
  | Species H :    hydro orbital   2 p accepted.
  | Species H :    hydro orbital   3 d accepted.
  | Species C :   atomic orbital   1 s accepted.
  | Species C :    hydro orbital   2 s accepted.
  | Species C :   atomic orbital   2 s accepted.
  | Species C :    hydro orbital   3 s accepted.
  | Species C :    hydro orbital   3 p accepted.
  | Species C :   atomic orbital   2 p accepted.
  | Species C :    hydro orbital   2 p accepted.
  | Species C :    hydro orbital   3 d accepted.
  | Species C :    hydro orbital   3 d accepted.
  | Species C :    hydro orbital   4 f accepted.
  | Species C :    hydro orbital   5 g accepted.
  | Species N :   atomic orbital   1 s accepted.
  | Species N :    hydro orbital   3 s accepted.
  | Species N :   atomic orbital   2 s accepted.
  | Species N :    hydro orbital   1 s accepted.
  | Species N :    hydro orbital   3 p accepted.
  | Species N :   atomic orbital   2 p accepted.
  | Species N :    hydro orbital   2 p accepted.
  | Species N :    hydro orbital   3 d accepted.
  | Species N :    hydro orbital   3 d accepted.
  | Species N :    hydro orbital   4 f accepted.
  | Species N :    hydro orbital   5 g accepted.
  | Species O :   atomic orbital   1 s accepted.
  | Species O :    hydro orbital   3 s accepted.
  | Species O :   atomic orbital   2 s accepted.
  | Species O :    hydro orbital   1 s accepted.
  | Species O :    hydro orbital   3 p accepted.
  | Species O :   atomic orbital   2 p accepted.
  | Species O :    hydro orbital   2 p accepted.
  | Species O :    hydro orbital   3 d accepted.
  | Species O :    hydro orbital   3 d accepted.
  | Species O :    hydro orbital   4 f accepted.
  | Species O :    hydro orbital   5 g accepted.
 
  Basis size parameters after reduction:
  | Total number of radial functions:       40
  | Total number of basis functions :      840
 
  Testing on-site integration grid accuracy.
  |  Species  Function  <phi|h_atom|phi> (log., in eV)  <phi|h_atom|phi> (rad., in eV)
           1        1                 -6.4869821809                 -6.4870742227
           1        2                 13.5044133542                 13.5041049177
           1        3                 32.7854418792                 32.7779770519
           1        4                 33.7995553101                 33.7152624900 ***
           1        5                 28.8558651799                 28.8558652046
           1        6                 59.6361831893                 59.6362535845
           1        7                 60.2733718049                 60.2733715484
           2        8               -273.2358277112               -273.2358261765
           2        9                -10.7624923123                -10.7625144012
           2       10                 17.4634079027                 17.4634252127
           2       11                 53.0363661832                 53.0366180446
           2       12                 15.0981351967                 15.0981317714
           2       13                  3.8522181899                  3.8522770949
           2       14                 12.1181835661                 12.1206868578
           2       15                 29.4320778347                 29.4320780959
           2       16                 54.8753777694                 54.8752901936
           2       17                 59.3533975461                 59.3533974833
           2       18                 93.4537491195                 93.4537492066
           3       19               -384.4698526889               -384.4698499465
           3       20                 12.5691022037                 12.5690910168
           3       21                -15.7489097511                -15.7489165588
           3       22                 27.0978334940                 27.0985589490
           3       23                 18.5949116966                 18.5949125562
           3       24                  1.2212828291                  1.2212855301
           3       25                 13.4428926797                 13.4434051125
           3       26                 35.9380614500                 35.9380613666
           3       27                 39.9231532098                 39.9231654735
           3       28                 72.9957335806                 72.9957336833
           3       29                116.4231321147                116.4231321431
           4       30               -514.2564144315               -514.2564099626
           4       31                 15.1726678541                 15.1726530877
           4       32                -21.5447785304                -21.5447874973
           4       33                 14.4944558459                 14.4944698284
           4       34                 20.8882174564                 20.8882178906
           4       35                 -2.4850315908                 -2.4850322289
           4       36                 13.8600193195                 13.8599826966
           4       37                 45.8243383616                 45.8243383675
           4       38                 52.1840606465                 52.1840622440
           4       39                 85.4074185510                 85.4074185819
           4       40                142.0983717302                142.0983717339
 * Note: Onsite integrals marked "***" above are less accurate than
 * onsite_accuracy_threshold =    0.03000 eV. Usually, this is harmless.
 * When in doubt, tighten the "radial" and/or "radial_multiplier" flags to check.

  Preparing densities etc. for the partition functions (integrals / Hartree potential).

  Preparations completed.
  max(cpu_time)          :      0.240 s.
  Wall clock time (cpu1) :      0.237 s.
------------------------------------------------------------

------------------------------------------------------------
          Begin self-consistency loop: Initialization.

          Date     :  20170309, Time     :  162626.228
------------------------------------------------------------

  Initializing index lists of integration centers etc. from given atomic structure:
  | Number of centers in hartree potential         :        32
  | Number of centers in hartree multipole         :        32
  | Number of centers in electron density summation:        32
  | Number of centers in basis integrals           :        32
  | Number of centers in integrals                 :        32
  | Number of centers in hamiltonian               :        32
  Using modified Scalapack Eigenvalue solver (ELPA)
  * Using 32 tasks for Scalapack Eigenvalue solver.
  Detailed listing of tasks and assigned k-points:
  (for non-periodic systems, the "k-point" denotes an internal label only)
   Task     0 k-point     1 on eos107
   Task     1 k-point     1 on eos107
   Task     2 k-point     1 on eos107
   Task     3 k-point     1 on eos107
   Task     4 k-point     1 on eos107
   Task     5 k-point     1 on eos107
   Task     6 k-point     1 on eos107
   Task     7 k-point     1 on eos107
   Task     8 k-point     1 on eos107
   Task     9 k-point     1 on eos107
   Task    10 k-point     1 on eos107
   Task    11 k-point     1 on eos107
   Task    12 k-point     1 on eos107
   Task    13 k-point     1 on eos107
   Task    14 k-point     1 on eos107
   Task    15 k-point     1 on eos107
   Task    16 k-point     1 on eos107
   Task    17 k-point     1 on eos107
   Task    18 k-point     1 on eos107
   Task    19 k-point     1 on eos107
   Task    20 k-point     1 on eos107
   Task    21 k-point     1 on eos107
   Task    22 k-point     1 on eos107
   Task    23 k-point     1 on eos107
   Task    24 k-point     1 on eos107
   Task    25 k-point     1 on eos107
   Task    26 k-point     1 on eos107
   Task    27 k-point     1 on eos107
   Task    28 k-point     1 on eos107
   Task    29 k-point     1 on eos107
   Task    30 k-point     1 on eos107
   Task    31 k-point     1 on eos107
  Tasks:    32 split into      8 X      4 BLACS grid
  Calculating blocksize based on n_basis =          840 max_nprow =            8 max_npcol =            4
  Scalapack blocksize set to:           16
  Required Scalapack workspace - INTEGER:            1 REAL:             1
  Partitioning the integration grid into batches with parallel hashing+maxmin method.
  | Number of batches:     4926
  | Maximal batch size:     195
  | Minimal batch size:      35
  | Average batch size:     107.131
  | Standard deviation of batch sizes:      35.251

  Integration load balanced across    32 MPI tasks.
  Work distribution over tasks is as follows:
  Task     0 has      16541 integration points.
  Task     1 has      16563 integration points.
  Task     2 has      16474 integration points.
  Task     3 has      16614 integration points.
  Task     4 has      16455 integration points.
  Task     5 has      16476 integration points.
  Task     6 has      16467 integration points.
  Task     7 has      16488 integration points.
  Task     8 has      16472 integration points.
  Task     9 has      16486 integration points.
  Task    10 has      16530 integration points.
  Task    11 has      16470 integration points.
  Task    12 has      16471 integration points.
  Task    13 has      16481 integration points.
  Task    14 has      16460 integration points.
  Task    15 has      16482 integration points.
  Task    16 has      16477 integration points.
  Task    17 has      16532 integration points.
  Task    18 has      16478 integration points.
  Task    19 has      16535 integration points.
  Task    20 has      16462 integration points.
  Task    21 has      16482 integration points.
  Task    22 has      16458 integration points.
  Task    23 has      16568 integration points.
  Task    24 has      16468 integration points.
  Task    25 has      16494 integration points.
  Task    26 has      16463 integration points.
  Task    27 has      16462 integration points.
  Task    28 has      16487 integration points.
  Task    29 has      16472 integration points.
  Task    30 has      16492 integration points.
  Task    31 has      16468 integration points.
  Initializing partition tables, free-atom densities, potentials, etc. across the integration grid (initialize_grid_storage).
  | initialize_grid_storage: Actual outermost partition radius vs. multipole_radius_free
  | (-- VB: in principle, multipole_radius_free should be larger, hence this output)
  | Species        1: Confinement radius =              6.000000000000000 AA, multipole_radius_free =              6.071692442739658 AA.
  | Species        1: outer_partition_radius set to              6.071692442739658 AA .
  | Species        2: Confinement radius =              6.000000000000000 AA, multipole_radius_free =              6.029870734432609 AA.
  | Species        2: outer_partition_radius set to              6.029870734432609 AA .
  | Species        3: Confinement radius =              6.000000000000000 AA, multipole_radius_free =              6.058726835495003 AA.
  | Species        3: outer_partition_radius set to              6.058726835495003 AA .
  | Species        4: Confinement radius =              6.000000000000000 AA, multipole_radius_free =              6.064445521808699 AA.
  | Species        4: outer_partition_radius set to              6.064445521808699 AA .
  | Original list of interatomic distances with          32 x         32 entries is created.
  | Net number of integration points:   527728
  | of which are non-zero points    :   414821
  Obtaining max. number of non-zero basis functions in each batch (get_n_compute_maxes).
  | Maximal number of non-zero basis functions:      743 in task     0
  | Maximal number of non-zero basis functions:      756 in task     1
  | Maximal number of non-zero basis functions:      742 in task     2
  | Maximal number of non-zero basis functions:      753 in task     3
  | Maximal number of non-zero basis functions:      760 in task     4
  | Maximal number of non-zero basis functions:      757 in task     5
  | Maximal number of non-zero basis functions:      761 in task     6
  | Maximal number of non-zero basis functions:      748 in task     7
  | Maximal number of non-zero basis functions:      750 in task     8
  | Maximal number of non-zero basis functions:      748 in task     9
  | Maximal number of non-zero basis functions:      746 in task    10
  | Maximal number of non-zero basis functions:      744 in task    11
  | Maximal number of non-zero basis functions:      748 in task    12
  | Maximal number of non-zero basis functions:      761 in task    13
  | Maximal number of non-zero basis functions:      745 in task    14
  | Maximal number of non-zero basis functions:      746 in task    15
  | Maximal number of non-zero basis functions:      753 in task    16
  | Maximal number of non-zero basis functions:      743 in task    17
  | Maximal number of non-zero basis functions:      746 in task    18
  | Maximal number of non-zero basis functions:      730 in task    19
  | Maximal number of non-zero basis functions:      749 in task    20
  | Maximal number of non-zero basis functions:      738 in task    21
  | Maximal number of non-zero basis functions:      747 in task    22
  | Maximal number of non-zero basis functions:      745 in task    23
  | Maximal number of non-zero basis functions:      751 in task    24
  | Maximal number of non-zero basis functions:      746 in task    25
  | Maximal number of non-zero basis functions:      745 in task    26
  | Maximal number of non-zero basis functions:      761 in task    27
  | Maximal number of non-zero basis functions:      748 in task    28
  | Maximal number of non-zero basis functions:      760 in task    29
  | Maximal number of non-zero basis functions:      744 in task    30
  | Maximal number of non-zero basis functions:      737 in task    31
  Selecting the method for density update.
  Loop over occupied states selected for charge density update.
  Integrating Hamiltonian matrix: batch-based integration.
  Time summed over all CPUs for integration: real work       21.104 s, elapsed       22.464 s
  Integrating overlap matrix.
  Time summed over all CPUs for integration: real work       12.697 s, elapsed       13.247 s
  Deallocating overlap matrix.

  Updating Kohn-Sham eigenvalues, eigenvectors, occupation numbers, and Fermi level.
  Solving generalized eigenproblem
  Solving real symmetric generalised eigenvalue problem by standard ScaLAPACK.
  Transforming overlap matrix with ScaLAPACK and checking for singularities.
  : Overlap matrix is nonsingular, using Cholesky decomposition
  | Lowest eigenvalue:  0.809675E-04
  Factoring overlap matrix with Cholesky decomposition
  Using Cholesky factor for transformation
  Using 1-stage real ELPA solver
  Determining occupation numbers for Kohn-Sham eigenstates.
  | Chemical potential (Fermi level) in eV                 : -.95910330E+01
  | Error in electron count due to remaining E_F inaccuracy: 0.00000000E+00
  | Maximum occupation number of highest empty state:  0.00E+00

  Writing Kohn-Sham eigenvalues.

  State    Occupation    Eigenvalue [Ha]    Eigenvalue [eV]
      1       2.00000         -18.974319         -516.31748
      2       2.00000         -18.973732         -516.30152
      3       2.00000         -18.973655         -516.29943
      4       2.00000         -14.257514         -387.96670
      5       2.00000         -14.255422         -387.90976
      6       2.00000         -14.251262         -387.79656
      7       2.00000         -10.171306         -276.77532
      8       2.00000         -10.171242         -276.77358
      9       2.00000         -10.170105         -276.74265
     10       2.00000         -10.166754         -276.65145
     11       2.00000         -10.149584         -276.18424
     12       2.00000         -10.147360         -276.12373
     13       2.00000         -10.135115         -275.79051
     14       2.00000         -10.134971         -275.78659
     15       2.00000         -10.134878         -275.78407
     16       2.00000          -1.134267          -30.86497
     17       2.00000          -1.131918          -30.80106
     18       2.00000          -1.128297          -30.70252
     19       2.00000          -1.022477          -27.82303
     20       2.00000          -1.012207          -27.54356
     21       2.00000          -1.004718          -27.33978
     22       2.00000          -0.883894          -24.05197
     23       2.00000          -0.871769          -23.72203
     24       2.00000          -0.848537          -23.08986
     25       2.00000          -0.817057          -22.23325
     26       2.00000          -0.787182          -21.42032
     27       2.00000          -0.756358          -20.58155
     28       2.00000          -0.705218          -19.18996
     29       2.00000          -0.686444          -18.67910
     30       2.00000          -0.676863          -18.41838
     31       2.00000          -0.635528          -17.29360
     32       2.00000          -0.622842          -16.94840
     33       2.00000          -0.612329          -16.66232
     34       2.00000          -0.599075          -16.30166
     35       2.00000          -0.596166          -16.22250
     36       2.00000          -0.577270          -15.70830
     37       2.00000          -0.571951          -15.56359
     38       2.00000          -0.565205          -15.38002
     39       2.00000          -0.559160          -15.21551
     40       2.00000          -0.553852          -15.07107
     41       2.00000          -0.548905          -14.93647
     42       2.00000          -0.545002          -14.83026
     43       2.00000          -0.535950          -14.58395
     44       2.00000          -0.527211          -14.34613
     45       2.00000          -0.522531          -14.21879
     46       2.00000          -0.518218          -14.10143
     47       2.00000          -0.509117          -13.85378
     48       2.00000          -0.499130          -13.58201
     49       2.00000          -0.495553          -13.48469
     50       2.00000          -0.485383          -13.20795
     51       2.00000          -0.482334          -13.12499
     52       2.00000          -0.472157          -12.84805
     53       2.00000          -0.411801          -11.20568
     54       2.00000          -0.402620          -10.95586
     55       2.00000          -0.400467          -10.89726
     56       2.00000          -0.392210          -10.67259
     57       2.00000          -0.383239          -10.42847
     58       2.00000          -0.381554          -10.38260
     59       0.00000          -0.167335           -4.55343
     60       0.00000          -0.159784           -4.34794
     61       0.00000          -0.154145           -4.19449
     62       0.00000          -0.079368           -2.15971
     63       0.00000          -0.066032           -1.79681
     64       0.00000          -0.057245           -1.55772
     65       0.00000          -0.054767           -1.49028
     66       0.00000          -0.051835           -1.41049
     67       0.00000          -0.040902           -1.11300
     68       0.00000          -0.035442           -0.96443
     69       0.00000          -0.029817           -0.81137
     70       0.00000          -0.023855           -0.64912
     71       0.00000          -0.021216           -0.57732
     72       0.00000          -0.019534           -0.53154
     73       0.00000          -0.013509           -0.36759
     74       0.00000          -0.007109           -0.19345
     75       0.00000          -0.002928           -0.07968
     76       0.00000           0.003219            0.08759
     77       0.00000           0.006479            0.17629
     78       0.00000           0.007151            0.19459
     79       0.00000           0.014468            0.39371
     80       0.00000           0.022289            0.60650
     81       0.00000           0.023767            0.64672
     82       0.00000           0.030318            0.82499
     83       0.00000           0.034391            0.93583
     84       0.00000           0.041162            1.12008
     85       0.00000           0.046384            1.26216
     86       0.00000           0.053622            1.45912
     87       0.00000           0.056940            1.54941
     88       0.00000           0.058730            1.59812
     89       0.00000           0.064027            1.74227
     90       0.00000           0.069453            1.88992
     91       0.00000           0.077080            2.09745
     92       0.00000           0.082943            2.25698
     93       0.00000           0.089053            2.42327
     94       0.00000           0.092916            2.52838
     95       0.00000           0.094173            2.56256
     96       0.00000           0.098895            2.69107
     97       0.00000           0.103877            2.82663
     98       0.00000           0.113672            3.09316
     99       0.00000           0.121159            3.29691
    100       0.00000           0.125862            3.42488
    101       0.00000           0.132715            3.61137
    102       0.00000           0.135731            3.69342
    103       0.00000           0.136507            3.71454
    104       0.00000           0.139390            3.79299
    105       0.00000           0.142758            3.88464
    106       0.00000           0.153185            4.16838
    107       0.00000           0.157658            4.29009
    108       0.00000           0.161467            4.39374
    109       0.00000           0.163736            4.45548
    110       0.00000           0.169568            4.61418
    111       0.00000           0.174910            4.75954
    112       0.00000           0.181018            4.92575
    113       0.00000           0.183753            5.00016
    114       0.00000           0.191789            5.21884
    115       0.00000           0.194994            5.30605
    116       0.00000           0.197570            5.37615
    117       0.00000           0.202240            5.50322
    118       0.00000           0.207503            5.64643
    119       0.00000           0.210148            5.71842
    120       0.00000           0.214819            5.84551
    121       0.00000           0.222168            6.04550
    122       0.00000           0.224855            6.11861
    123       0.00000           0.232699            6.33207
    124       0.00000           0.244401            6.65048
    125       0.00000           0.246055            6.69549
    126       0.00000           0.249354            6.78527
    127       0.00000           0.259920            7.07277
    128       0.00000           0.262179            7.13425
    129       0.00000           0.266504            7.25194

  Highest occupied state (VBM) at    -10.38260173 eV
  | Occupation number:      2.00000000

  Lowest unoccupied state (CBM) at    -4.55342899 eV
  | Occupation number:      0.00000000

  Overall HOMO-LUMO gap:      5.82917274 eV.
  Calculating total energy contributions from superposition of free atom densities.

  Total energy components:
  | Sum of eigenvalues            :        -437.88237431 Ha      -11915.38565324 eV
  | XC energy correction          :         -98.82397834 Ha       -2689.13727253 eV
  | XC potential correction       :         127.02689062 Ha        3456.57756244 eV
  | Free-atom electrostatic energy:        -333.60672480 Ha       -9077.90086023 eV
  | Hartree energy correction     :           0.00000000 Ha           0.00000000 eV
  | vdW energy correction         :           0.00000000 Ha           0.00000000 eV
  | Entropy correction            :          -0.00000000 Ha          -0.00000000 eV
  | ---------------------------
  | Total energy                  :        -743.28618684 Ha      -20225.84622356 eV
  | Total energy, T -> 0          :        -743.28618684 Ha      -20225.84622356 eV  <-- do not rely on this value for anything but (periodic) metals
  | Electronic free energy        :        -743.28618684 Ha      -20225.84622356 eV

  Derived energy quantities:
  | Kinetic energy                :         735.16887808 Ha       20004.96301379 eV
  | Electrostatic energy          :       -1379.63108657 Ha      -37541.67196482 eV
  | Energy correction for multipole
  | error in Hartree potential    :           0.00000000 Ha           0.00000000 eV
  | Sum of eigenvalues per atom                           :        -372.35580166 eV
  | Total energy (T->0) per atom                          :        -632.05769449 eV  <-- do not rely on this value for anything but (periodic) metals
  | Electronic free energy per atom                       :        -632.05769449 eV
  Initialize hartree_potential_storage
  Max. number of atoms included in rho_multipole:           32

  End scf initialization - timings             :  max(cpu_time)    wall_clock(cpu1)
  | Time for scf. initialization               :        1.840 s           1.838 s
  | Boundary condition initialization          :        0.000 s           0.000 s
  | Integration                                :        1.140 s           1.138 s
  | Solution of K.-S. eqns.                    :        0.076 s           0.074 s
  | Grid partitioning                          :        0.292 s           0.290 s
  | Preloading free-atom quantities on grid    :        0.028 s           0.028 s
  | Free-atom superposition energy             :        0.040 s           0.040 s
  | Total energy evaluation                    :        0.004 s           0.001 s
------------------------------------------------------------

------------------------------------------------------------
          Begin self-consistency iteration #    1

  Date     :  20170309, Time     :  162628.067
------------------------------------------------------------
  Evaluating new KS density.
  Integration grid: deviation in total charge (<rho> - N_e) =   1.421085E-13
  Pulay mixing of updated and previous charge densities.

  Evaluating partitioned Hartree potential by multipole expansion.
  | Analytical far-field extrapolation by fixed multipoles:
  | Hartree multipole sum: apparent total charge =   0.117473E-04
  Summing up the Hartree potential.
  Time summed over all CPUs for potential: real work        9.532 s, elapsed        9.776 s
  | RMS charge density error from multipole expansion :   0.108078E-01

  Integrating Hamiltonian matrix: batch-based integration.
  Time summed over all CPUs for integration: real work       20.863 s, elapsed       21.878 s

  Updating Kohn-Sham eigenvalues, eigenvectors, occupation numbers, and Fermi level.
  Solving generalized eigenproblem
  Solving real symmetric generalised eigenvalue problem by standard ScaLAPACK.
  Using Cholesky factor for transformation
  Using 2-stage real ELPA solver
  K-Point:    1, Trafo times: 1-stage=     0.021 s, 2-stage=     0.019 s ==> Using 2-stage solver
  Determining occupation numbers for Kohn-Sham eigenstates.
  | Chemical potential (Fermi level) in eV                 : -.46040843E+01
  | Error in electron count due to remaining E_F inaccuracy: 0.00000000E+00
  | Maximum occupation number of highest empty state:  0.00E+00

  Writing Kohn-Sham eigenvalues.

  State    Occupation    Eigenvalue [Ha]    Eigenvalue [eV]
      1       2.00000         -18.626878         -506.86315
      2       2.00000         -18.620824         -506.69841
      3       2.00000         -18.605150         -506.27188
      4       2.00000         -13.993992         -380.79589
      5       2.00000         -13.989600         -380.67639
      6       2.00000         -13.983899         -380.52125
      7       2.00000         -10.059809         -273.74132
      8       2.00000         -10.055104         -273.61331
      9       2.00000         -10.048213         -273.42580
     10       2.00000          -9.968405         -271.25410
     11       2.00000          -9.958557         -270.98613
     12       2.00000          -9.903461         -269.48690
     13       2.00000          -9.841822         -267.80961
     14       2.00000          -9.835198         -267.62936
     15       2.00000          -9.828816         -267.45569
     16       2.00000          -0.972387          -26.46000
     17       2.00000          -0.960813          -26.14506
     18       2.00000          -0.951534          -25.89255
     19       2.00000          -0.870206          -23.67951
     20       2.00000          -0.865524          -23.55210
     21       2.00000          -0.855689          -23.28448
     22       2.00000          -0.738327          -20.09089
     23       2.00000          -0.715258          -19.46317
     24       2.00000          -0.691977          -18.82965
     25       2.00000          -0.681549          -18.54590
     26       2.00000          -0.637869          -17.35730
     27       2.00000          -0.617616          -16.80617
     28       2.00000          -0.577146          -15.70494
     29       2.00000          -0.554566          -15.09051
     30       2.00000          -0.547538          -14.89928
     31       2.00000          -0.501531          -13.64735
     32       2.00000          -0.483653          -13.16087
     33       2.00000          -0.473564          -12.88633
     34       2.00000          -0.463487          -12.61213
     35       2.00000          -0.455241          -12.38775
     36       2.00000          -0.442359          -12.03721
     37       2.00000          -0.429260          -11.68077
     38       2.00000          -0.425367          -11.57483
     39       2.00000          -0.414536          -11.28011
     40       2.00000          -0.399727          -10.87711
     41       2.00000          -0.394833          -10.74395
     42       2.00000          -0.386567          -10.51902
     43       2.00000          -0.383199          -10.42738
     44       2.00000          -0.378957          -10.31195
     45       2.00000          -0.374016          -10.17750
     46       2.00000          -0.370044          -10.06941
     47       2.00000          -0.359404           -9.77989
     48       2.00000          -0.353915           -9.63052
     49       2.00000          -0.347517           -9.45643
     50       2.00000          -0.345996           -9.41504
     51       2.00000          -0.337996           -9.19734
     52       2.00000          -0.326187           -8.87599
     53       2.00000          -0.241678           -6.57638
     54       2.00000          -0.237604           -6.46554
     55       2.00000          -0.229693           -6.25027
     56       2.00000          -0.225325           -6.13139
     57       2.00000          -0.209381           -5.69756
     58       2.00000          -0.202731           -5.51660
     59       0.00000          -0.054143           -1.47330
     60       0.00000          -0.048284           -1.31388
     61       0.00000          -0.042161           -1.14727
     62       0.00000          -0.033230           -0.90424
     63       0.00000          -0.020926           -0.56944
     64       0.00000          -0.011646           -0.31689
     65       0.00000          -0.007008           -0.19071
     66       0.00000           0.002940            0.07999
     67       0.00000           0.007851            0.21365
     68       0.00000           0.014315            0.38954
     69       0.00000           0.024478            0.66608
     70       0.00000           0.029485            0.80234
     71       0.00000           0.031061            0.84520
     72       0.00000           0.038878            1.05792
     73       0.00000           0.050819            1.38286
     74       0.00000           0.053774            1.46326
     75       0.00000           0.060285            1.64044
     76       0.00000           0.062400            1.69798
     77       0.00000           0.069855            1.90084
     78       0.00000           0.076180            2.07295
     79       0.00000           0.081417            2.21547
     80       0.00000           0.083943            2.28421
     81       0.00000           0.094537            2.57247
     82       0.00000           0.098510            2.68060
     83       0.00000           0.101625            2.76536
     84       0.00000           0.106463            2.89700
     85       0.00000           0.109931            2.99138
     86       0.00000           0.119469            3.25092
     87       0.00000           0.123027            3.34773
     88       0.00000           0.131486            3.57793
     89       0.00000           0.133658            3.63701
     90       0.00000           0.136261            3.70785
     91       0.00000           0.140404            3.82059
     92       0.00000           0.148413            4.03851
     93       0.00000           0.155691            4.23656
     94       0.00000           0.161765            4.40186
     95       0.00000           0.166067            4.51891
     96       0.00000           0.172468            4.69308
     97       0.00000           0.173498            4.72113
     98       0.00000           0.179625            4.88784
     99       0.00000           0.181977            4.95186
    100       0.00000           0.186512            5.07524
    101       0.00000           0.189984            5.16972
    102       0.00000           0.194571            5.29454
    103       0.00000           0.202275            5.50419
    104       0.00000           0.205373            5.58849
    105       0.00000           0.208741            5.68014
    106       0.00000           0.214301            5.83144
    107       0.00000           0.220432            5.99825
    108       0.00000           0.225642            6.14002
    109       0.00000           0.226521            6.16395
    110       0.00000           0.231224            6.29193
    111       0.00000           0.234314            6.37600
    112       0.00000           0.241490            6.57129
    113       0.00000           0.243597            6.62862
    114       0.00000           0.252183            6.86224
    115       0.00000           0.258330            7.02952
    116       0.00000           0.263169            7.16121
    117       0.00000           0.263846            7.17962
    118       0.00000           0.270653            7.36485
    119       0.00000           0.276038            7.51138
    120       0.00000           0.279578            7.60770
    121       0.00000           0.287349            7.81917
    122       0.00000           0.294927            8.02536
    123       0.00000           0.299892            8.16048
    124       0.00000           0.303379            8.25536
    125       0.00000           0.311400            8.47362
    126       0.00000           0.325481            8.85678
    127       0.00000           0.328035            8.92627
    128       0.00000           0.333482            9.07450
    129       0.00000           0.340556            9.26700

  Highest occupied state (VBM) at     -5.51659894 eV
  | Occupation number:      2.00000000

  Lowest unoccupied state (CBM) at    -1.47329565 eV
  | Occupation number:      0.00000000

  Overall HOMO-LUMO gap:      4.04330329 eV.

  Total energy components:
  | Sum of eigenvalues            :        -417.50299959 Ha      -11360.83465162 eV
  | XC energy correction          :        -100.75641612 Ha       -2741.72157983 eV
  | XC potential correction       :         129.53299868 Ha        3524.77223239 eV
  | Free-atom electrostatic energy:        -333.60672480 Ha       -9077.90086023 eV
  | Hartree energy correction     :         -20.38425474 Ha        -554.68379336 eV
  | vdW energy correction         :           0.00000000 Ha           0.00000000 eV
  | Entropy correction            :          -0.00000000 Ha          -0.00000000 eV
  | ---------------------------
  | Total energy                  :        -742.71739656 Ha      -20210.36865264 eV
  | Total energy, T -> 0          :        -742.71739656 Ha      -20210.36865264 eV  <-- do not rely on this value for anything but (periodic) metals
  | Electronic free energy        :        -742.71739656 Ha      -20210.36865264 eV

  Derived energy quantities:
  | Kinetic energy                :         744.04487337 Ha       20246.49113443 eV
  | Electrostatic energy          :       -1386.00585381 Ha      -37715.13820725 eV
  | Energy correction for multipole
  | error in Hartree potential    :          -0.04152481 Ha          -1.12994758 eV
  | Sum of eigenvalues per atom                           :        -355.02608286 eV
  | Total energy (T->0) per atom                          :        -631.57402040 eV  <-- do not rely on this value for anything but (periodic) metals
  | Electronic free energy per atom                       :        -631.57402040 eV

  Self-consistency convergence accuracy:
  | Change of charge density      :  0.9030E+00
  | Change of sum of eigenvalues  :  0.5546E+03 eV
  | Change of total energy        :  0.1548E+02 eV

  End self-consistency iteration #     1       :  max(cpu_time)    wall_clock(cpu1)
  | Time for this iteration                    :        1.528 s           1.527 s
  | Charge density update                      :        0.484 s           0.484 s
[...]
   ----------------------------------------------------------------
   Total forces(  20)            : -0.836092E-03  0.512671E-03 -0.183660E-02
  atom #   21
   Hellmann-Feynman              : -0.258501E-01  0.192684E-01 -0.276083E-01
   Ionic forces                  :  0.000000E+00  0.000000E+00  0.000000E+00
   Multipole                     : -0.710885E-02  0.148861E-01  0.155570E-01
   Pulay + GGA                   :  0.298464E-01 -0.368485E-01  0.174359E-01
   Van der Waals                 :  0.118909E-02  0.565076E-02 -0.294031E-02
   ----------------------------------------------------------------
   Total forces(  21)            : -0.192341E-02  0.295670E-02  0.244430E-02
  atom #   22
   Hellmann-Feynman              :  0.618406E-01  0.535388E-02  0.532046E-01
   Ionic forces                  :  0.000000E+00  0.000000E+00  0.000000E+00
   Multipole                     :  0.481404E-02  0.397596E-02 -0.286847E-01
   Pulay + GGA                   : -0.629471E-01 -0.703914E-02 -0.338649E-01
   Van der Waals                 : -0.306238E-02 -0.216183E-02  0.898345E-02
   ----------------------------------------------------------------
   Total forces(  22)            :  0.645159E-03  0.128882E-03 -0.361573E-03
  atom #   23
   Hellmann-Feynman              :  0.604610E+00  0.845362E+00 -0.299115E+00
   Ionic forces                  :  0.000000E+00  0.000000E+00  0.000000E+00
   Multipole                     : -0.210565E+00 -0.194866E+00  0.157754E+00
   Pulay + GGA                   : -0.402420E+00 -0.663969E+00  0.142569E+00
   Van der Waals                 :  0.696041E-02  0.116406E-01 -0.470138E-03
   ----------------------------------------------------------------
   Total forces(  23)            : -0.141515E-02 -0.183235E-02  0.738430E-03
  atom #   24
   Hellmann-Feynman              : -0.461781E-01 -0.208539E-01  0.339876E-02
   Ionic forces                  :  0.000000E+00  0.000000E+00  0.000000E+00
   Multipole                     : -0.122444E-01  0.234838E-01 -0.114430E-01
   Pulay + GGA                   :  0.600350E-01 -0.345577E-02  0.319863E-02
   Van der Waals                 : -0.198518E-02  0.352867E-03  0.519457E-02
   ----------------------------------------------------------------
   Total forces(  24)            : -0.372709E-03 -0.472972E-03  0.348984E-03
  atom #   25
   Hellmann-Feynman              : -0.450087E-01 -0.522664E-01  0.178166E-01
   Ionic forces                  :  0.000000E+00  0.000000E+00  0.000000E+00
   Multipole                     :  0.254872E-01 -0.634850E-02 -0.281734E-01
   Pulay + GGA                   :  0.877806E-02  0.564612E-01  0.128983E-01
   Van der Waals                 :  0.114650E-01  0.163127E-02 -0.233970E-02
   ----------------------------------------------------------------
   Total forces(  25)            :  0.721588E-03 -0.522368E-03  0.201807E-03
  atom #   26
   Hellmann-Feynman              : -0.132458E-01 -0.194822E-01  0.385188E-01
   Ionic forces                  :  0.000000E+00  0.000000E+00  0.000000E+00
   Multipole                     :  0.228187E-01  0.858172E-02  0.163446E-01
   Pulay + GGA                   : -0.184428E-01 -0.116259E-02 -0.602854E-01
   Van der Waals                 :  0.910207E-02  0.121167E-01  0.620446E-02
   ----------------------------------------------------------------
   Total forces(  26)            :  0.232083E-03  0.536471E-04  0.782460E-03
  atom #   27
   Hellmann-Feynman              :  0.358551E+00 -0.108816E+01  0.117246E+01
   Ionic forces                  :  0.000000E+00  0.000000E+00  0.000000E+00
   Multipole                     :  0.103756E+00 -0.323250E-01  0.136957E+00
   Pulay + GGA                   : -0.468558E+00  0.112787E+01 -0.131219E+01
   Van der Waals                 :  0.378581E-02 -0.603450E-02  0.418725E-02
   ----------------------------------------------------------------
   Total forces(  27)            : -0.246498E-02  0.134274E-02  0.141605E-02
  atom #   28
   Hellmann-Feynman              : -0.147875E+01  0.113815E+01 -0.132363E+01
   Ionic forces                  :  0.000000E+00  0.000000E+00  0.000000E+00
   Multipole                     :  0.127427E+00 -0.139514E+00  0.103142E+00
   Pulay + GGA                   :  0.135739E+01 -0.991942E+00  0.123084E+01
   Van der Waals                 : -0.322085E-02 -0.908109E-02 -0.894049E-02
   ----------------------------------------------------------------
   Total forces(  28)            :  0.284097E-02 -0.238363E-02  0.141250E-02
  atom #   29
   Hellmann-Feynman              :  0.142057E-01  0.325814E-01  0.579017E-01
   Ionic forces                  :  0.000000E+00  0.000000E+00  0.000000E+00
   Multipole                     : -0.287678E-01  0.208065E-01 -0.282203E-01
   Pulay + GGA                   :  0.126657E-01 -0.573772E-01 -0.352824E-01
   Van der Waals                 :  0.182327E-02  0.573510E-02  0.578241E-02
   ----------------------------------------------------------------
   Total forces(  29)            : -0.730839E-04  0.174584E-02  0.181394E-03
  atom #   30
   Hellmann-Feynman              :  0.388668E-01 -0.799233E-03  0.430329E-01
   Ionic forces                  :  0.000000E+00  0.000000E+00  0.000000E+00
   Multipole                     :  0.640424E-03  0.342120E-01 -0.112384E-01
   Pulay + GGA                   : -0.392602E-01 -0.371459E-01 -0.371591E-01
   Van der Waals                 :  0.545513E-03  0.401049E-02  0.447008E-02
   ----------------------------------------------------------------
   Total forces(  30)            :  0.792502E-03  0.277367E-03 -0.894558E-03
  atom #   31
   Hellmann-Feynman              :  0.485773E-02 -0.410317E-01  0.229276E-01
   Ionic forces                  :  0.000000E+00  0.000000E+00  0.000000E+00
   Multipole                     : -0.226222E-01 -0.812219E-02  0.171751E-01
   Pulay + GGA                   :  0.174252E-01  0.473738E-01 -0.475286E-01
   Van der Waals                 :  0.873341E-03  0.153701E-02  0.707832E-02
   ----------------------------------------------------------------
   Total forces(  31)            :  0.534143E-03 -0.243034E-03 -0.347492E-03
  atom #   32
   Hellmann-Feynman              :  0.318666E-01 -0.471864E-01 -0.344109E-04
   Ionic forces                  :  0.000000E+00  0.000000E+00  0.000000E+00
   Multipole                     :  0.668256E-02  0.287194E-02 -0.355537E-01
   Pulay + GGA                   : -0.368419E-01  0.413697E-01  0.372063E-01
   Van der Waals                 : -0.134678E-02  0.306404E-02 -0.301810E-02
   ----------------------------------------------------------------
   Total forces(  32)            :  0.360487E-03  0.119287E-03 -0.139995E-02

  Timings for VdW correction (Tkatchenko-Scheffler 2009 or later):
  | CPU time:        0.120 s, Wall clock time:        0.121 s.
  Removing unitary transformations (pure translations, rotations) from forces on atoms.
  Atomic forces before filtering:
  | Net force on center of mass :  -0.436274E-03  0.315472E-03 -0.108963E-03 eV/A
  | Net torque on center of mass:   0.364590E-02  0.479292E-03  0.437038E-02 eV
  Atomic forces after filtering:
  | Net force on center of mass :   0.165513E-17  0.108890E-18  0.174225E-18 eV/A
  | Net torque on center of mass:   0.460979E-17 -0.516296E-17 -0.921958E-18 eV

  Energy and forces in a compact form:
  | Total energy uncorrected      :         -0.202087130360182E+05 eV
  | Total energy corrected        :         -0.202087130360182E+05 eV  <-- do not rely on this value for anything but (periodic) metals
  | Electronic free energy        :         -0.202087130360182E+05 eV
  Total atomic forces (unitary forces cleaned) [eV/Ang]:
  |   1         -0.537305244189761E-03         -0.201613438631637E-02         -0.571469015010810E-03
  |   2          0.298411189384774E-02         -0.526080138437971E-03         -0.676429053452806E-03
  |   3         -0.382550803209362E-02          0.856946046970254E-03         -0.174159417343818E-02
  |   4         -0.132179376423007E-02          0.124765321084239E-03          0.474877833143130E-03
  |   5          0.485145591939276E-04          0.610382045827102E-05          0.335426180093707E-03
  |   6         -0.621011406871985E-03          0.190393793352249E-02          0.846370964154757E-03
  |   7         -0.224675553443520E-02          0.196488232136886E-02         -0.291709443034016E-02
  |   8          0.339966943314636E-02         -0.101805060909079E-02          0.128641848703126E-02
  |   9         -0.925622619843211E-03         -0.151532034049696E-02         -0.160062732667418E-03
  |  10          0.345210510228516E-03         -0.980457335675244E-03          0.112246604996132E-02
  |  11          0.589347984610257E-05          0.711804058388031E-03          0.207481511162165E-02
  |  12         -0.132323545553607E-04          0.123942302792734E-02         -0.231061658965738E-03
  |  13          0.663255994061845E-03          0.983969624429871E-04         -0.241902009226954E-02
  |  14          0.502084849769116E-03         -0.100795142701645E-02          0.608219376531761E-03
  |  15          0.821212324917486E-03         -0.534363478578554E-03          0.110344514222455E-03
  |  16          0.125215023843435E-02          0.191664738964600E-03          0.189094051733969E-02
  |  17         -0.186105104435095E-03         -0.112577274291835E-02         -0.491629787199481E-02
  |  18          0.179841581863987E-03          0.675835676003984E-03          0.190639051803817E-02
  |  19          0.273612377686442E-03         -0.217984611148045E-03          0.142535335730542E-03
  |  20         -0.924940643165779E-03          0.446229491847190E-03         -0.177472080610552E-02
  |  21         -0.196942682861678E-02          0.293328476471758E-02          0.247688549919640E-02
  |  22          0.673635878350492E-03          0.162392054096838E-03         -0.375457376019717E-03
  |  23         -0.134017873558851E-02         -0.190241834647386E-02          0.730430294143624E-03
  |  24         -0.310520814654491E-03         -0.592242748523883E-03          0.358845826616424E-03
  |  25          0.836919149759251E-03         -0.573202497125590E-03          0.171542776887139E-03
  |  26          0.324725176453244E-03         -0.269850630750445E-04          0.769472296211183E-03
  |  27         -0.250989860011723E-02          0.130275300153235E-02          0.145231313706468E-02
  |  28          0.284414205012169E-02         -0.239792131752260E-02          0.142154232193732E-02
  |  29         -0.156541122197168E-03          0.168331787286454E-02          0.239959172293960E-03
  |  30          0.770300429714262E-03          0.283672918242063E-03         -0.879721502697612E-03
  |  31          0.576107705270964E-03         -0.298338366774749E-03         -0.344932324219678E-03
  |  32          0.387453172328485E-03          0.147813398742855E-03         -0.141193517503719E-02

  ------------------------------------ 
  Start decomposition of the XC Energy 
  ------------------------------------ 
  Hartree-Fock part   :          0.000000000 Ha              0.000000000 eV
  ------------------------------------ 
  X Energy            :        -96.987563516 Ha          -2639.165882565 eV
  C Energy GGA        :         -3.869817966 Ha           -105.303104610 eV
  Total XC Energy     :       -100.857381482 Ha          -2744.468987174 eV
  LDA X and C from self-consistent density 
  X Energy LDA        :        -88.005657412 Ha          -2394.755782021 eV
  C Energy LDA        :         -7.532258773 Ha           -204.963189623 eV
  ------------------------------------ 
  End decomposition of the XC Energy 
  ------------------------------------ 
   
  ESP charge fitting starts.
  | Calculation :  00000001  of  00000001
  | Full density
  Computing multipole expansion for total density.
  Generating points for esp charges.
  Partitioning the integration grid into batches with parallel hashing+maxmin method.
  | Number of batches:     3916
  | Maximal batch size:     189
  | Minimal batch size:      51
  | Average batch size:     124.309
  | Standard deviation of batch sizes:      15.760

  Integration load balanced across    32 MPI tasks.
  Work distribution over tasks is as follows:
  Initializing partition tables, free-atom densities, potentials, etc. across the integration grid (initialize_grid_storage).
  | Original list of interatomic distances with          32 x         32 entries is created.
  | Net number of integration points:   486795
  | of which are non-zero points    :   486795
  Summing up potential from multipole expanded  density.
  Summing up the Hartree potential.
  Time summed over all CPUs for potential: real work        6.405 s, elapsed        6.603 s
  Fitting esp charges to potential.
  |
  | ESP charges fitted to the electrostatic potential :
  |
  | Atom         1: C, ESP charge:      0.31166037
  |
  | Atom         2: C, ESP charge:     -0.64871791
  |
  | Atom         3: O, ESP charge:      0.55056161
  |
  | Atom         4: H, ESP charge:     -0.10510954
  |
  | Atom         5: H, ESP charge:     -0.10692714
  |
  | Atom         6: H, ESP charge:     -0.07038207
  |
  | Atom         7: N, ESP charge:      0.68624868
  |
  | Atom         8: C, ESP charge:     -0.48839536
  |
  | Atom         9: C, ESP charge:     -0.31618856
  |
  | Atom        10: O, ESP charge:      0.49925919
  |
  | Atom        11: H, ESP charge:     -0.32579840
  |
  | Atom        12: H, ESP charge:     -0.02803809
  |
  | Atom        13: C, ESP charge:      0.57801574
  |
  | Atom        14: H, ESP charge:     -0.15830672
  |
  | Atom        15: H, ESP charge:     -0.14306429
  |
  | Atom        16: H, ESP charge:     -0.14999012
  |
  | Atom        17: N, ESP charge:      0.66104798
  |
  | Atom        18: C, ESP charge:     -0.98295230
  |
  | Atom        19: C, ESP charge:      0.04856943
  |
  | Atom        20: O, ESP charge:      0.44327281
  |
  | Atom        21: H, ESP charge:     -0.32345551
  |
  | Atom        22: H, ESP charge:      0.08564898
  |
  | Atom        23: C, ESP charge:      0.56882418
  |
  | Atom        24: H, ESP charge:     -0.17691356
  |
  | Atom        25: H, ESP charge:     -0.12924322
  |
  | Atom        26: H, ESP charge:     -0.10022911
  |
  | Atom        27: N, ESP charge:      0.16969812
  |
  | Atom        28: C, ESP charge:      0.34383585
  |
  | Atom        29: H, ESP charge:     -0.30165258
  |
  | Atom        30: H, ESP charge:     -0.14132631
  |
  | Atom        31: H, ESP charge:     -0.12518637
  |
  | Atom        32: H, ESP charge:     -0.12476576

  RRMS:       0.00365784

  Done.

------------------------------------------------------------------------------
  Final output of selected total energy values:

  The following output summarizes some interesting total energy values
  at the end of a run (AFTER all relaxation, molecular dynamics, etc.).

  | Total energy of the DFT / Hartree-Fock s.c.f. calculation      :         -20208.713036018 eV
  | Final zero-broadening corrected energy (caution - metals only) :         -20208.713036018 eV
  | For reference only, the value of 1 Hartree used in FHI-aims is :             27.211384500 eV

  Before relying on these values, please be sure to understand exactly which
  total energy value is referred to by a given number. Different objects may
  all carry the same name 'total energy'. Definitions:

  Total energy of the DFT / Hartree-Fock s.c.f. calculation:
  | Note that this energy does not include ANY quantities calculated after the
  | s.c.f. cycle, in particular not ANY RPA, MP2, etc. many-body perturbation terms.

  Final zero-broadening corrected energy:
  | For metallic systems only, a broadening of the occupation numbers at the Fermi
  | level can be extrapolated back to zero broadening by an electron-gas inspired
  | formula. For all systems that are not real metals, this value can be
  | meaningless and should be avoided.

------------------------------------------------------------------------------
  Methods described in the following list of references were used in this FHI-aims run.
  If you publish the results, please make sure to cite these reference if they apply.
  FHI-aims is an academic code, and for our developers (often, Ph.D. students
  and postdocs), scientific credit in the community is essential.
  Thank you for helping us!

  For any use of FHI-aims, please cite:

    Volker Blum, Ralf Gehrke, Felix Hanke, Paula Havu, Ville Havu,
    Xinguo Ren, Karsten Reuter, and Matthias Scheffler
    'Ab initio molecular simulations with numeric atom-centered orbitals'
    Computer Physics Communications 180, 2175-2196 (2009)
    http://dx.doi.org/10.1016/j.cpc.2009.06.022


  The scalable eigensolver library ELPA was used in your run.
  ELPA is essential especially for large systems on hundreds or thousands of CPUs.
  For ELPA, please cite:

    Andreas Marek, Volker Blum, Rainer Johanni, Ville Havu, Bruno Lang,
    Thomas Auckenthaler, Alexander Heinecke, Hans-Joachim Bungartz, and Hermann Lederer,
    'The ELPA Library - Scalable Parallel Eigenvalue Solutions
    for Electronic Structure Theory and Computational Science'
    The Journal of Physics: Condensed Matter 26, 213201 (2014).
    http://dx.doi.org/10.1088/0953-8984/26/21/213201


  For ELPA's efficient two-stage tridiagonalization used in your run, please cite:

    T. Auckenthaler, V. Blum, H.-J. Bungartz, T. Huckle, R. Johanni, L. Kraemer,
    B. Lang, H. Lederer, and P. R. Willems,
    'Parallel solution of partial symmetric eigenvalue problems'
    'from  electronic structure calculations'
    Parallel Computing 37, 783-794 (2011).
    http://dx.doi.org/10.1016/j.parco.2011.05.002


  For the real-space grid partitioning and parallelization used in this calculation, please cite:

    Ville Havu, Volker Blum, Paula Havu, and Matthias Scheffler,
    'Efficient O(N) integration for all-electron electronic structure calculation'
    'using numerically tabulated basis functions'
    Journal of Computational Physics 228, 8367-8379 (2009).
    http://dx.doi.org/10.1016/j.jcp.2009.08.008

  Of course, there are many other important community references, e.g., those cited in the
  above references. Our list is limited to references that describe implementations in the
  FHI-aims code. The reason is purely practical (length of this list) - please credit others as well.

------------------------------------------------------------
          Leaving FHI-aims.
          Date     :  20170309, Time     :  162655.736

          Computational steps:
          | Number of self-consistency cycles          :           14

          Detailed time accounting                     :  max(cpu_time)    wall_clock(cpu1)
          | Total time                                 :       30.402 s          30.558 s
          | Preparation time                           :        0.240 s           0.237 s
          | Grid partitioning                          :        0.292 s           0.290 s
          | Preloading free-atom quantities on grid    :        0.028 s           0.028 s
          | Free-atom superposition energy             :        0.040 s           0.040 s
          | Total time for integrations                :       10.929 s          10.908 s
          | Total time for solution of K.-S. equations :        0.528 s           0.496 s
          | Total time for density & force components  :        9.657 s           9.637 s
          | Total time for mixing                      :        0.124 s           0.107 s
          | Total time for Hartree multipole update    :        0.056 s           0.056 s
          | Total time for Hartree multipole sum       :        6.428 s           6.407 s
          | Total time for total energy evaluation     :        0.020 s           0.018 s
          | Total time for vdW correction              :        0.120 s           0.121 s

          Have a nice day.
------------------------------------------------------------
