  MPI-parallelism will be employed.
------------------------------------------------------------
          Invoking FHI-aims ...
          Version 150427
          Git rev.: 9dd23e0 BL: Update Version stamp
          Compiled on 2015/11/03 at 22:05:20 on host eos03.

          When using FHI-aims, please cite the following reference:

          Volker Blum, Ralf Gehrke, Felix Hanke, Paula Havu,
          Ville Havu, Xinguo Ren, Karsten Reuter, and Matthias Scheffler,
          'Ab Initio Molecular Simulations with Numeric Atom-Centered Orbitals: FHI-aims',
          Computer Physics Communications 180, 2175-2196 (2009)

          For any questions about FHI-aims, please visit the aimsclub website
          with its forums and wiki. Contributions to both the forums and the
          wiki are warmly encouraged - they are for you, and everyone is welcome there.

------------------------------------------------------------

  Date     :  20170309, Time     :  184655.535
  Time zero on CPU 1             :   0.328020000000000E+00  s.
  Internal wall clock time zero  :           258317215.535  s.

  Using       32 parallel tasks.
  Task        0 on host eos221 reporting.
  Task        1 on host eos221 reporting.
  Task        2 on host eos221 reporting.
  Task        3 on host eos221 reporting.
  Task        4 on host eos221 reporting.
  Task        5 on host eos221 reporting.
  Task        6 on host eos221 reporting.
  Task        7 on host eos221 reporting.
  Task        8 on host eos221 reporting.
  Task        9 on host eos221 reporting.
  Task       10 on host eos221 reporting.
  Task       11 on host eos221 reporting.
  Task       12 on host eos221 reporting.
  Task       13 on host eos221 reporting.
  Task       14 on host eos221 reporting.
  Task       15 on host eos221 reporting.
  Task       16 on host eos221 reporting.
  Task       17 on host eos221 reporting.
  Task       18 on host eos221 reporting.
  Task       19 on host eos221 reporting.
  Task       20 on host eos221 reporting.
  Task       21 on host eos221 reporting.
  Task       22 on host eos221 reporting.
  Task       23 on host eos221 reporting.
  Task       24 on host eos221 reporting.
  Task       25 on host eos221 reporting.
  Task       26 on host eos221 reporting.
  Task       27 on host eos221 reporting.
  Task       28 on host eos221 reporting.
  Task       29 on host eos221 reporting.
  Task       30 on host eos221 reporting.
  Task       31 on host eos221 reporting.

  Performing system and environment tests:
  | Environment variable OMP_NUM_THREADS correctly set to 1.
  | Stacksize not measured: no C compiler
  | Checking for scalapack...
  | Testing pdtran()...
  | All pdtran() tests passed.

  Obtaining array dimensions for all initial allocations:
  
  -----------------------------------------------------------------------
  Parsing control.in (first pass over file, find array dimensions only).
  The contents of control.in will be repeated verbatim below
  unless switched off by setting 'verbatim_writeout .false.' .
  in the first line of control.in .
  -----------------------------------------------------------------------
  
  #########################################################################################
  #
  # Input for System
  #
  #########################################################################################
  #
  #
  #  Physical model
  #
    xc                 pbe
    vdw_correction_hirshfeld
    spin               none
    charge             0.
  #
  #  SCF convergence
  #
    occupation_type    gaussian 0.05
    mixer              pulay
      n_max_pulay        10
      charge_mix_param   0.5
    sc_accuracy_rho    1E-4
    sc_accuracy_eev    1E-2
    sc_accuracy_etot   1E-5
    sc_accuracy_forces 1E-4
    sc_iter_limit      1000
  #
  #  ESP charge
  #
    output esp
    esp equal_grid_n 80 80 80
  #
  #
  ################################################################################
  #
  #  FHI-aims code project
  # Volker Blum, Fritz Haber Institute Berlin, 2009
  #
  #  Suggested "tight" defaults for H atom (to be pasted into control.in file)
  #
  ################################################################################
    species        H
  #     global species definitions
      nucleus             1
      mass                1.00794
  #
      l_hartree           6
  #
      cut_pot             4.0  2.0  1.0
      basis_dep_cutoff    1e-4
  #
      radial_base         24 7.0
      radial_multiplier   2
      angular_grids       specified
        division   0.1930   50
        division   0.3175  110
        division   0.4293  194
        division   0.5066  302
        division   0.5626  434
  #      division   0.5922  590
  #      division   0.6227  974
  #      division   0.6868 1202
  #      outer_grid  770
        outer_grid  434
  ################################################################################
  #
  #  Definition of "minimal" basis
  #
  ################################################################################
  #     valence basis states
      valence      1  s   1.
  #     ion occupancy
      ion_occ      1  s   0.5
  ################################################################################
  #
  #  Suggested additional basis functions. For production calculations,
  #  uncomment them one after another (the most important basis functions are
  #  listed first).
  #
  #  Basis constructed for dimers: 0.5 A, 0.7 A, 1.0 A, 1.5 A, 2.5 A
  #
  ################################################################################
  #  "First tier" - improvements: -1014.90 meV to -62.69 meV
       hydro 2 s 2.1
       hydro 2 p 3.5
  #  "Second tier" - improvements: -12.89 meV to -1.83 meV
       hydro 1 s 0.85
       hydro 2 p 3.7
       hydro 2 s 1.2
       hydro 3 d 7
  #  "Third tier" - improvements: -0.25 meV to -0.12 meV
  #     hydro 4 f 11.2
  #     hydro 3 p 4.8
  #     hydro 4 d 9
  #     hydro 3 s 3.2
  ################################################################################
  #
  # For methods that use the localized form of the "resolution of identity" for
  # the two-electron Coulomb operator (RI_method LVL), particularly Hartree-Fock and
  # hybrid density functional calculations, the highest accuracy can be obtained by
  # uncommenting the line beginning with "for_aux"  below, thus adding an extra g radial
  # function to the construction of the product basis set for the expansion.
  # See Ref. New J. Phys. 17, 093020 (2015) for more information, particularly Figs. 1 and 6.
  #
  ################################################################################
  #
  # for_aux hydro 5 g 6.0
  ################################################################################
  #
  #  FHI-aims code project
  # Volker Blum, Fritz Haber Institute Berlin, 2009
  #
  #  Suggested "tight" defaults for C atom (to be pasted into control.in file)
  #
  ################################################################################
    species        C
  #     global species definitions
      nucleus             6
      mass                12.0107
  #
      l_hartree           6
  #
      cut_pot             4.0  2.0  1.0
      basis_dep_cutoff    1e-4
  #
      radial_base         34 7.0
      radial_multiplier   2
      angular_grids specified
        division   0.2187   50
        division   0.4416  110
        division   0.6335  194
        division   0.7727  302
        division   0.8772  434
  #      division   0.9334  590
  #      division   0.9924  770
  #      division   1.0230  974
  #      division   1.5020 1202
  #     outer_grid  974
        outer_grid  434
  ################################################################################
  #
  #  Definition of "minimal" basis
  #
  ################################################################################
  #     valence basis states
      valence      2  s   2.
      valence      2  p   2.
  #     ion occupancy
      ion_occ      2  s   1.
      ion_occ      2  p   1.
  ################################################################################
  #
  #  Suggested additional basis functions. For production calculations,
  #  uncomment them one after another (the most important basis functions are
  #  listed first).
  #
  #  Constructed for dimers: 1.0 A, 1.25 A, 1.5 A, 2.0 A, 3.0 A
  #
  ################################################################################
  #  "First tier" - improvements: -1214.57 meV to -155.61 meV
       hydro 2 p 1.7
       hydro 3 d 6
       hydro 2 s 4.9
  #  "Second tier" - improvements: -67.75 meV to -5.23 meV
       hydro 4 f 9.8
       hydro 3 p 5.2
       hydro 3 s 4.3
       hydro 5 g 14.4
       hydro 3 d 6.2
  #  "Third tier" - improvements: -2.43 meV to -0.60 meV
  #     hydro 2 p 5.6
  #     hydro 2 s 1.4
  #     hydro 3 d 4.9
  #     hydro 4 f 11.2
  #  "Fourth tier" - improvements: -0.39 meV to -0.18 meV
  #     hydro 2 p 2.1
  #     hydro 5 g 16.4
  #     hydro 4 d 13.2
  #     hydro 3 s 13.6
  #     hydro 4 f 17.6
  #  Further basis functions - improvements: -0.08 meV and below
  #     hydro 3 s 2
  #     hydro 3 p 6
  #     hydro 4 d 20
  ################################################################################
  #
  # For methods that use the localized form of the "resolution of identity" for
  # the two-electron Coulomb operator (RI_method LVL), particularly Hartree-Fock and
  # hybrid density functional calculations, the highest accuracy can be obtained by
  # uncommenting the line beginning with "for_aux"  below, thus adding an extra g radial
  # function to the construction of the product basis set for the expansion.
  # See Ref. New J. Phys. 17, 093020 (2015) for more information, particularly Figs. 1 and 6.
  #
  ################################################################################
  #
  # for_aux hydro 5 g 6.0
  ################################################################################
  #
  #  FHI-aims code project
  # Volker Blum, Fritz Haber Institute Berlin, 2009
  #
  #  Suggested "tight" defaults for N atom (to be pasted into control.in file)
  #
  ################################################################################
    species        N
  #     global species definitions
      nucleus             7
      mass                14.0067
  #
      l_hartree           6
  #
      cut_pot             4.0  2.0  1.0
      basis_dep_cutoff    1e-4
  #
      radial_base         35 7.0
      radial_multiplier   2
      angular_grids       specified
        division   0.1841   50
        division   0.3514  110
        division   0.5126  194
        division   0.6292  302
        division   0.6939  434
  #      division   0.7396  590
  #      division   0.7632  770
  #      division   0.8122  974
  #      division   1.1604 1202
  #      outer_grid  974
        outer_grid  434
  ################################################################################
  #
  #  Definition of "minimal" basis
  #
  ################################################################################
  #     valence basis states
      valence      2  s   2.
      valence      2  p   3.
  #     ion occupancy
      ion_occ      2  s   1.
      ion_occ      2  p   2.
  ################################################################################
  #
  #  Suggested additional basis functions. For production calculations,
  #  uncomment them one after another (the most important basis functions are
  #  listed first).
  #
  #  Constructed for dimers: 1.0 A, 1.1 A, 1.5 A, 2.0 A, 3.0 A
  #
  ################################################################################
  #  "First tier" - improvements: -1193.42 meV to -220.60 meV
       hydro 2 p 1.8
       hydro 3 d 6.8
       hydro 3 s 5.8
  #  "Second tier" - improvements: -80.21 meV to -6.86 meV
       hydro 4 f 10.8
       hydro 3 p 5.8
       hydro 1 s 0.8
       hydro 5 g 16
       hydro 3 d 4.9
  #  "Third tier" - improvements: -4.29 meV to -0.53 meV
  #     hydro 3 s 16
  #     ionic 2 p auto
  #     hydro 3 d 6.6
  #     hydro 4 f 11.6
  #  "Fourth tier" - improvements: -0.75 meV to -0.25 meV
  #     hydro 2 p 4.5
  #     hydro 2 s 2.4
  #     hydro 5 g 14.4
  #     hydro 4 d 14.4
  #     hydro 4 f 16.8
  # Further basis functions - -0.21 meV and below
  #     hydro 3 p 14.8
  #     hydro 3 s 4.4
  #     hydro 3 d 19.6
  #     hydro 5 g 12.8
  ################################################################################
  #
  # For methods that use the localized form of the "resolution of identity" for
  # the two-electron Coulomb operator (RI_method LVL), particularly Hartree-Fock and
  # hybrid density functional calculations, the highest accuracy can be obtained by
  # uncommenting the line beginning with "for_aux"  below, thus adding an extra g radial
  # function to the construction of the product basis set for the expansion.
  # See Ref. New J. Phys. 17, 093020 (2015) for more information, particularly Figs. 1 and 6.
  #
  ################################################################################
  #
  # for_aux hydro 5 g 6.0
  ################################################################################
  #
  #  FHI-aims code project
  # Volker Blum, Fritz Haber Institute Berlin, 2009
  #
  #  Suggested "tight" defaults for O atom (to be pasted into control.in file)
  #
  ################################################################################
    species        O
  #     global species definitions
      nucleus             8
      mass                15.9994
  #
      l_hartree           6
  #
      cut_pot             4.0  2.0  1.0
      basis_dep_cutoff    1e-4
  #
      radial_base         36 7.0
      radial_multiplier   2
       angular_grids specified
        division   0.1817   50
        division   0.3417  110
        division   0.4949  194
        division   0.6251  302
        division   0.8014  434
  #      division   0.8507  590
  #      division   0.8762  770
  #      division   0.9023  974
  #      division   1.2339 1202
  #      outer_grid 974
        outer_grid  434
  ################################################################################
  #
  #  Definition of "minimal" basis
  #
  ################################################################################
  #     valence basis states
      valence      2  s   2.
      valence      2  p   4.
  #     ion occupancy
      ion_occ      2  s   1.
      ion_occ      2  p   3.
  ################################################################################
  #
  #  Suggested additional basis functions. For production calculations,
  #  uncomment them one after another (the most important basis functions are
  #  listed first).
  #
  #  Constructed for dimers: 1.0 A, 1.208 A, 1.5 A, 2.0 A, 3.0 A
  #
  ################################################################################
  #  "First tier" - improvements: -699.05 meV to -159.38 meV
       hydro 2 p 1.8
       hydro 3 d 7.6
       hydro 3 s 6.4
  #  "Second tier" - improvements: -49.91 meV to -5.39 meV
       hydro 4 f 11.6
       hydro 3 p 6.2
       hydro 3 d 5.6
       hydro 5 g 17.6
       hydro 1 s 0.75
  #  "Third tier" - improvements: -2.83 meV to -0.50 meV
  #     ionic 2 p auto
  #     hydro 4 f 10.8
  #     hydro 4 d 4.7
  #     hydro 2 s 6.8
  #  "Fourth tier" - improvements: -0.40 meV to -0.12 meV
  #     hydro 3 p 5
  #     hydro 3 s 3.3
  #     hydro 5 g 15.6
  #     hydro 4 f 17.6
  #     hydro 4 d 14
  # Further basis functions - -0.08 meV and below
  #     hydro 3 s 2.1
  #     hydro 4 d 11.6
  #     hydro 3 p 16
  #     hydro 2 s 17.2
  ################################################################################
  #
  # For methods that use the localized form of the "resolution of identity" for
  # the two-electron Coulomb operator (RI_method LVL), particularly Hartree-Fock and
  # hybrid density functional calculations, the highest accuracy can be obtained by
  # uncommenting the line beginning with "for_aux"  below, thus adding an extra g radial
  # function to the construction of the product basis set for the expansion.
  # See Ref. New J. Phys. 17, 093020 (2015) for more information, particularly Figs. 1 and 6.
  #
  ################################################################################
  #
  # for_aux hydro 5 g 6.0
  
  -----------------------------------------------------------------------
  Completed first pass over input file control.in .
  -----------------------------------------------------------------------
  
  
  -----------------------------------------------------------------------
  Parsing geometry.in (first pass over file, find array dimensions only).
  The contents of geometry.in will be repeated verbatim below
  unless switched off by setting 'verbatim_writeout .false.' .
  in the first line of geometry.in .
  -----------------------------------------------------------------------
  
  #
  # This is the geometry file that corresponds to the current relaxation step.
  # If you do not want this file to be written, set the "write_restart_geometry" flag to .false.
  #
  atom      -0.03237460     -0.60819964      0.17565406 C
  atom       0.05233634     -0.06261219      1.59346684 C
  atom       1.12977298      0.18053869      2.13074583 O
  atom       0.98763965     -0.77420420     -0.18045457 H
  atom      -0.52882327      0.10538575     -0.49832663 H
  atom      -0.58748616     -1.55503576      0.12607792 H
  atom      -1.13129767      0.16793947      2.24506776 N
  atom      -2.48239253     -0.08951653      1.78458048 C
  atom      -3.39597157      0.93024813      2.49265891 C
  atom      -3.17771990      1.29260064      3.64480304 O
  atom      -1.06069797      0.54562236      3.18986090 H
  atom      -2.52829355      0.07542459      0.69720067 H
  atom      -2.97238484     -1.51396412      2.10849083 C
  atom      -3.99547091     -1.67649561      1.74154055 H
  atom      -2.96228007     -1.67414855      3.19398067 H
  atom      -2.31573801     -2.25957291      1.64313624 H
  atom      -4.44919432      1.37238633      1.75192324 N
  atom      -5.52935828      2.21457372      2.27690862 C
  atom      -5.02444586      3.40970013      3.13146063 C
  atom      -5.53200601      3.65642027      4.21883816 O
  atom      -4.55843177      1.00128220      0.81528676 H
  atom      -6.01052931      2.65912960      1.38923296 H
  atom      -6.56305936      1.39860730      3.05130493 C
  atom      -6.10707490      0.95895589      3.94571395 H
  atom      -6.95907738      0.59629601      2.41466132 H
  atom      -7.39010413      2.03801644      3.37806518 H
  atom      -4.08072050      4.23827856      2.58786492 N
  atom      -3.34525309      4.13226564      1.34160199 C
  atom      -3.78844650      4.95841494      3.24122419 H
  atom      -2.97225101      5.12781003      1.07259069 H
  atom      -3.99531880      3.79713655      0.52382801 H
  atom      -2.48420871      3.44813626      1.40750791 H
  
  -----------------------------------------------------------------------
  Completed first pass over input file geometry.in .
  -----------------------------------------------------------------------
  

  Basic array size parameters:
  | Number of species                 :        4
  | Number of atoms                   :       32
  | Max. basis fn. angular momentum   :        4
  | Max. atomic/ionic basis occupied n:        2
  | Max. number of basis fn. types    :        2
  | Max. radial fns per species/type  :        8
  | Max. logarithmic grid size        :     1301
  | Max. radial integration grid size :       73
  | Max. angular integration grid size:      434
  | Max. angular grid division number :        8
  | Radial grid for Hartree potential :     1301
  | Number of spin channels           :        1

------------------------------------------------------------
          Reading file control.in.
------------------------------------------------------------
  XC: Using PBE gradient-corrected functionals.
  Spin treatment: No spin polarisation.
  Charge =   0.000000E+00: Neutral system requested explicitly.
  Occupation type: Gaussian broadening, width =   0.500000E-01 eV.
  Using pulay charge density mixing.
  Pulay mixing - number of memorized iterations:   10
  Charge density mixing - mixing parameter:     0.5000
  Convergence accuracy of self-consistent charge density:  0.1000E-03
  Convergence accuracy of sum of eigenvalues:  0.1000E-01
  Convergence accuracy of total energy:  0.1000E-04
  Convergence accuracy of forces:  0.1000E-03
  Maximum number of s.-c. iterations  :  1000
  Fitting ESP-charges to Potential. 
  | Esp charge output options: 
  | ESP Grid method: 3, cubic grid
  | Number of points in x, ,y, z:  0080 0080 0080
  |
 
  Reading configuration options for species H                   .
  | Found nuclear charge :   1.0000
  | Found atomic mass :    1.00794000000000      amu
  | Found l_max for Hartree potential  :   6
  | Found cutoff potl. onset [A], width [A], scale factor :    4.00000    2.00000    1.00000
  | Threshold for basis-dependent cutoff potential is   0.100000E-03
  | Found data for basic radial integration grid :    24 points, outermost radius =    7.000 A
  | Found multiplier for basic radial grid :   2
  | Found angular grid specification: user-specified.
  | Specified grid contains     6 separate shells.
  | Check grid settings after all constraints further below.
  | Found free-atom valence shell :  1 s   1.000
  | No ionic wave fns used. Skipping ion_occ.
  | Found hydrogenic basis function :  2 s   2.100
  | Found hydrogenic basis function :  2 p   3.500
  | Found hydrogenic basis function :  1 s   0.850
  | Found hydrogenic basis function :  2 p   3.700
  | Found hydrogenic basis function :  2 s   1.200
  | Found hydrogenic basis function :  3 d   7.000
  Species H                   : Missing cutoff potential type.
  Defaulting to exp(1/x)/(1-x)^2 type cutoff potential.
  Species H : No 'logarithmic' tag. Using default grid for free atom:
  | Default logarithmic grid data [bohr] : 0.1000E-03 0.1000E+03 0.1012E+01
  Species H : On-site basis accuracy parameter (for Gram-Schmidt orthonormalisation) not specified.
  Using default value basis_acc =  0.1000000E-03.
  Species H                   : Using default innermost maximum threshold i_radial=  2 for radial functions.
  Species H                   : Default cutoff onset for free atom density etc. : 0.40000000E+01 AA.
  Species H                   : Basic radial grid will be enhanced according to radial_multiplier =   2, to contain    49 grid points.
 
  Reading configuration options for species C                   .
  | Found nuclear charge :   6.0000
  | Found atomic mass :    12.0107000000000      amu
  | Found l_max for Hartree potential  :   6
  | Found cutoff potl. onset [A], width [A], scale factor :    4.00000    2.00000    1.00000
  | Threshold for basis-dependent cutoff potential is   0.100000E-03
  | Found data for basic radial integration grid :    34 points, outermost radius =    7.000 A
  | Found multiplier for basic radial grid :   2
  | Found angular grid specification: user-specified.
  | Specified grid contains     6 separate shells.
  | Check grid settings after all constraints further below.
  | Found free-atom valence shell :  2 s   2.000
  | Found free-atom valence shell :  2 p   2.000
  | No ionic wave fns used. Skipping ion_occ.
  | No ionic wave fns used. Skipping ion_occ.
  | Found hydrogenic basis function :  2 p   1.700
  | Found hydrogenic basis function :  3 d   6.000
  | Found hydrogenic basis function :  2 s   4.900
  | Found hydrogenic basis function :  4 f   9.800
  | Found hydrogenic basis function :  3 p   5.200
  | Found hydrogenic basis function :  3 s   4.300
  | Found hydrogenic basis function :  5 g  14.400
  | Found hydrogenic basis function :  3 d   6.200
  Species C                   : Missing cutoff potential type.
  Defaulting to exp(1/x)/(1-x)^2 type cutoff potential.
  Species C : No 'logarithmic' tag. Using default grid for free atom:
  | Default logarithmic grid data [bohr] : 0.1000E-03 0.1000E+03 0.1012E+01
  Species C : On-site basis accuracy parameter (for Gram-Schmidt orthonormalisation) not specified.
  Using default value basis_acc =  0.1000000E-03.
  Species C                   : Using default innermost maximum threshold i_radial=  2 for radial functions.
  Species C                   : Default cutoff onset for free atom density etc. : 0.40000000E+01 AA.
  Species C                   : Basic radial grid will be enhanced according to radial_multiplier =   2, to contain    69 grid points.
 
  Reading configuration options for species N                   .
  | Found nuclear charge :   7.0000
  | Found atomic mass :    14.0067000000000      amu
  | Found l_max for Hartree potential  :   6
  | Found cutoff potl. onset [A], width [A], scale factor :    4.00000    2.00000    1.00000
  | Threshold for basis-dependent cutoff potential is   0.100000E-03
  | Found data for basic radial integration grid :    35 points, outermost radius =    7.000 A
  | Found multiplier for basic radial grid :   2
  | Found angular grid specification: user-specified.
  | Specified grid contains     6 separate shells.
  | Check grid settings after all constraints further below.
  | Found free-atom valence shell :  2 s   2.000
  | Found free-atom valence shell :  2 p   3.000
  | No ionic wave fns used. Skipping ion_occ.
  | No ionic wave fns used. Skipping ion_occ.
  | Found hydrogenic basis function :  2 p   1.800
  | Found hydrogenic basis function :  3 d   6.800
  | Found hydrogenic basis function :  3 s   5.800
  | Found hydrogenic basis function :  4 f  10.800
  | Found hydrogenic basis function :  3 p   5.800
  | Found hydrogenic basis function :  1 s   0.800
  | Found hydrogenic basis function :  5 g  16.000
  | Found hydrogenic basis function :  3 d   4.900
  Species N                   : Missing cutoff potential type.
  Defaulting to exp(1/x)/(1-x)^2 type cutoff potential.
  Species N : No 'logarithmic' tag. Using default grid for free atom:
  | Default logarithmic grid data [bohr] : 0.1000E-03 0.1000E+03 0.1012E+01
  Species N : On-site basis accuracy parameter (for Gram-Schmidt orthonormalisation) not specified.
  Using default value basis_acc =  0.1000000E-03.
  Species N                   : Using default innermost maximum threshold i_radial=  2 for radial functions.
  Species N                   : Default cutoff onset for free atom density etc. : 0.40000000E+01 AA.
  Species N                   : Basic radial grid will be enhanced according to radial_multiplier =   2, to contain    71 grid points.
 
  Reading configuration options for species O                   .
  | Found nuclear charge :   8.0000
  | Found atomic mass :    15.9994000000000      amu
  | Found l_max for Hartree potential  :   6
  | Found cutoff potl. onset [A], width [A], scale factor :    4.00000    2.00000    1.00000
  | Threshold for basis-dependent cutoff potential is   0.100000E-03
  | Found data for basic radial integration grid :    36 points, outermost radius =    7.000 A
  | Found multiplier for basic radial grid :   2
  | Found angular grid specification: user-specified.
  | Specified grid contains     6 separate shells.
  | Check grid settings after all constraints further below.
  | Found free-atom valence shell :  2 s   2.000
  | Found free-atom valence shell :  2 p   4.000
  | No ionic wave fns used. Skipping ion_occ.
  | No ionic wave fns used. Skipping ion_occ.
  | Found hydrogenic basis function :  2 p   1.800
  | Found hydrogenic basis function :  3 d   7.600
  | Found hydrogenic basis function :  3 s   6.400
  | Found hydrogenic basis function :  4 f  11.600
  | Found hydrogenic basis function :  3 p   6.200
  | Found hydrogenic basis function :  3 d   5.600
  | Found hydrogenic basis function :  5 g  17.600
  | Found hydrogenic basis function :  1 s   0.750
  Species O                   : Missing cutoff potential type.
  Defaulting to exp(1/x)/(1-x)^2 type cutoff potential.
  Species O : No 'logarithmic' tag. Using default grid for free atom:
  | Default logarithmic grid data [bohr] : 0.1000E-03 0.1000E+03 0.1012E+01
  Species O : On-site basis accuracy parameter (for Gram-Schmidt orthonormalisation) not specified.
  Using default value basis_acc =  0.1000000E-03.
  Species O                   : Using default innermost maximum threshold i_radial=  2 for radial functions.
  Species O                   : Default cutoff onset for free atom density etc. : 0.40000000E+01 AA.
  Species O                   : Basic radial grid will be enhanced according to radial_multiplier =   2, to contain    73 grid points.
 
  Finished reading input file 'control.in'. Consistency checks are next.
 
  Target number of points in a grid batch is not set. Defaulting to  100
  Method for grid partitioning is not set. Defaulting to parallel hash+maxmin partitioning.
  Batch size limit is not set. Defaulting to    200
  By default, will store active basis functions for each batch.
  If in need of memory, prune_basis_once .false. can be used to disable this option.
  communication_type for Hartree potential was not specified.
  Defaulting to calc_hartree .
  Pulay mixer: Number of initial linear mixing iterations not set.
  Defaulting to    0 iterations.
  Work space size for distributed Hartree potential not set.
  Defaulting to   0.200000E+03 MB.
  Algorithm-dependent basis array size parameters:
  | n_max_pulay                         :       10
  Geometry relaxation not requested: no relaxation will be performed.
  Handling of forces: Unphysical translation and rotation will be removed from forces.
  No accuracy limit for integral partition fn. given. Defaulting to  0.1000E-14.
  No threshold value for u(r) in integrations given. Defaulting to  0.1000E-05.
  No accuracy for occupation numbers given. Defaulting to  0.1000E-07.
  No threshold value for occupation numbers given. Defaulting to  0.0000E+00.
  No accuracy for fermi level given. Defaulting to  0.1000E-19.
  Maximum # of iterations to find E_F not set. Defaulting to  200.
  Preferred method for the eigenvalue solver ('KS_method') not specified in 'control.in'.
  Calling blacs routine to test compilation state
  Since scalapack support is enabled, defaulting to 'elpa'.
  Preferred method for the MBD eigenvalue solver ('mbd_eigensolver') not specified in 'control.in'.
  Calling blacs routine to test compilation state
  Since scalapack support is enabled, defaulting to 'scaLAPACK'.
  Will not use alltoall communication since running on < 1024 CPUs.
  Threshold for basis singularities not set.
  Default threshold for basis singularities:  0.1000E-04
  partition_type (choice of integration weights) for integrals was not specified.
  | Using a version of the partition function of Stratmann and coworkers ('stratmann_smoother').
  | At each grid point, the set of atoms used to build the partition table is smoothly restricted to
  | only those atoms whose free-atom density would be non-zero at that grid point.
  Partitioning for Hartree potential was not defined. Using partition_type for integrals.
  | Adjusted default value of keyword multip_moments_threshold to:       0.10000000E-11
  | This value may affect high angular momentum components of the Hartree potential in periodic systems.
  No q(lm)/r^(l+1) cutoff set for long-range Hartree potential.
  | Using default value of  0.100000E-09 .
  | Verify using the multipole_threshold keyword.
  Defaulting to new monopole extrapolation.
  Density update method: automatic selection selected.
------------------------------------------------------------


------------------------------------------------------------
          Reading geometry description geometry.in.
------------------------------------------------------------
 * Warning! You did not set the 'relativistic' flag in input file 'control.in'.
 * Since you are not attempting to treat any elements beyond Ca(Z=20), FHI-aims
 * will default to 'relativistic none'.
 * You must ensure that this is really what you want!!
 * For example, DO NOT compute total-energy differences between results from
 * different settings of the 'relativistic' flag.
  Input structure read successfully.
  The structure contains       32 atoms,  and a total of        116.000 electrons.

  Input geometry:
  | No unit cell requested.
  | Atomic structure:
  |       Atom                x [A]            y [A]            z [A]
  |    1: Species C             -0.032375        -0.608200         0.175654
  |    2: Species C              0.052336        -0.062612         1.593467
  |    3: Species O              1.129773         0.180539         2.130746
  |    4: Species H              0.987640        -0.774204        -0.180455
  |    5: Species H             -0.528823         0.105386        -0.498327
  |    6: Species H             -0.587486        -1.555036         0.126078
  |    7: Species N             -1.131298         0.167939         2.245068
  |    8: Species C             -2.482393        -0.089517         1.784580
  |    9: Species C             -3.395972         0.930248         2.492659
  |   10: Species O             -3.177720         1.292601         3.644803
  |   11: Species H             -1.060698         0.545622         3.189861
  |   12: Species H             -2.528294         0.075425         0.697201
  |   13: Species C             -2.972385        -1.513964         2.108491
  |   14: Species H             -3.995471        -1.676496         1.741541
  |   15: Species H             -2.962280        -1.674149         3.193981
  |   16: Species H             -2.315738        -2.259573         1.643136
  |   17: Species N             -4.449194         1.372386         1.751923
  |   18: Species C             -5.529358         2.214574         2.276909
  |   19: Species C             -5.024446         3.409700         3.131461
  |   20: Species O             -5.532006         3.656420         4.218838
  |   21: Species H             -4.558432         1.001282         0.815287
  |   22: Species H             -6.010529         2.659130         1.389233
  |   23: Species C             -6.563059         1.398607         3.051305
  |   24: Species H             -6.107075         0.958956         3.945714
  |   25: Species H             -6.959077         0.596296         2.414661
  |   26: Species H             -7.390104         2.038016         3.378065
  |   27: Species N             -4.080720         4.238279         2.587865
  |   28: Species C             -3.345253         4.132266         1.341602
  |   29: Species H             -3.788447         4.958415         3.241224
  |   30: Species H             -2.972251         5.127810         1.072591
  |   31: Species H             -3.995319         3.797137         0.523828
  |   32: Species H             -2.484209         3.448136         1.407508
  |

  | The smallest distance between any two atoms is         1.01337998 AA.
  |
  | The first atom of this pair is atom number                     17 .
  | The second atom of this pair is atom number                    21 .

  Number of empty states per atom not set in control.in - providing a guess from actual geometry.
  | Total number of empty states used during s.c.f. cycle:       71
  If you use a very high smearing, use empty_states (per atom!) in control.in to increase this value.

  Structure-dependent array size parameters: 
  | Maximum number of distinct radial functions  :       40
  | Maximum number of basis functions            :      840
  | Number of Kohn-Sham states (occupied + empty):      129
------------------------------------------------------------

------------------------------------------------------------
          Preparing all fixed parts of the calculation.
------------------------------------------------------------
  Determining machine precision:
    2.225073858507201E-308
  Setting up grids for atomic and cluster calculations.

  Creating wave function, potential, and density for free atoms.

  Species: H

  List of occupied orbitals and eigenvalues:
    n    l              occ      energy [Ha]    energy [eV]
    1    0           1.0000        -0.238382        -6.4867


  Species: C

  List of occupied orbitals and eigenvalues:
    n    l              occ      energy [Ha]    energy [eV]
    1    0           2.0000       -10.041232      -273.2358
    2    0           2.0000        -0.504327       -13.7234
    2    1           2.0000        -0.193750        -5.2722


  Species: N

  List of occupied orbitals and eigenvalues:
    n    l              occ      energy [Ha]    energy [eV]
    1    0           2.0000       -14.129007      -384.4699
    2    0           2.0000        -0.681802       -18.5528
    2    1           3.0000        -0.260543        -7.0897


  Species: O

  List of occupied orbitals and eigenvalues:
    n    l              occ      energy [Ha]    energy [eV]
    1    0           2.0000       -18.898576      -514.2564
    2    0           2.0000        -0.878795       -23.9132
    2    1           4.0000        -0.332075        -9.0362

  Creating fixed part of basis set: Ionic, confined, hydrogenic.
 
  H                    hydrogenic:
 
  List of hydrogenic basis orbitals: 
    n    l      effective z      eigenvalue [eV]  inner max. [A]     outer max. [A]     outer radius [A]   
    2    0         2.100000       -14.9965           0.193243           1.317208           5.373006
    2    1         3.500000       -41.6672           0.602369           0.602369           4.056063
    1    0         0.850000        -9.8292           0.624871           0.624871           5.373006
    2    1         3.700000       -46.5653           0.573622           0.573622           3.910002
    2    0         1.200000        -4.5995           0.334980           2.228188           5.505995
    3    2         7.000000       -74.0753           0.680699           0.680699           3.769201
 
 
  C                    hydrogenic:
 
  List of hydrogenic basis orbitals: 
    n    l      effective z      eigenvalue [eV]  inner max. [A]     outer max. [A]     outer radius [A]   
    2    1         1.700000        -9.8152           1.245706           1.245706           5.401630
    3    2         6.000000       -54.4226           0.792453           0.792453           4.178599
    2    0         4.900000       -81.6681           0.082559           0.562749           3.353238
    4    3         9.800000       -81.6681           0.863254           0.863254           4.028125
    3    1         5.200000       -40.8774           0.305389           1.215618           4.898362
    3    0         4.300000       -27.9508           0.091041           1.610311           5.401630
    5    4        14.400000      -112.8510           0.917666           0.917666           3.883070
    3    2         6.200000       -58.1113           0.763917           0.763917           4.077671
 
 
  N                    hydrogenic:
 
  List of hydrogenic basis orbitals: 
    n    l      effective z      eigenvalue [eV]  inner max. [A]     outer max. [A]     outer radius [A]   
    2    1         1.800000       -11.0118           1.177451           1.177451           5.427479
    3    2         6.800000       -69.9029           0.704619           0.704619           3.854246
    3    0         5.800000       -50.8549           0.067388           1.191934           4.629968
    4    3        10.800000       -99.1854           0.786571           0.786571           3.761152
    3    1         5.800000       -50.8549           0.274880           1.094176           4.518138
    1    0         0.800000        -8.7059           0.662839           0.662839           5.361532
    5    4        16.000000      -139.3222           0.825990           0.825990           3.625711
    3    2         4.900000       -36.2967           0.968267           0.968267           4.862000
 
 
  O                    hydrogenic:
 
  List of hydrogenic basis orbitals: 
    n    l      effective z      eigenvalue [eV]  inner max. [A]     outer max. [A]     outer radius [A]   
    2    1         1.800000       -11.0118           1.178562           1.178562           5.432602
    3    2         7.600000       -87.3182           0.624125           0.624125           3.541477
    3    0         6.400000       -61.9209           0.061167           1.081902           4.306578
    4    3        11.600000      -114.4238           0.731631           0.731631           3.585037
    3    1         6.200000       -58.1113           0.255680           1.030270           4.306578
    3    2         5.600000       -47.4081           0.847233           0.847233           4.413171
    5    4        17.600000      -168.5799           0.749740           0.749740           3.372465
    1    0         0.750000        -7.6499           0.705284           0.705284           5.366593
 

  Adding cutoff potential to free-atom effective potential.
  Creating atomic-like basis functions for current effective potential.

  Species H                   :

  List of atomic basis orbitals and eigenvalues:
    n    l      energy [Ha]    energy [eV]    outer radius [A]
    1    0        -0.238382        -6.4867       5.373006


  Species C                   :

  List of atomic basis orbitals and eigenvalues:
    n    l      energy [Ha]    energy [eV]    outer radius [A]
    1    0       -10.041232      -273.2358       1.934409
    2    0        -0.504327       -13.7234       5.271162
    2    1        -0.193750        -5.2722       5.401630


  Species N                   :

  List of atomic basis orbitals and eigenvalues:
    n    l      energy [Ha]    energy [eV]    outer radius [A]
    1    0       -14.129007      -384.4699       1.637919
    2    0        -0.681802       -18.5528       5.168461
    2    1        -0.260543        -7.0897       5.361532


  Species O                   :

  List of atomic basis orbitals and eigenvalues:
    n    l      energy [Ha]    energy [eV]    outer radius [A]
    1    0       -18.898576      -514.2564       1.415765
    2    0        -0.878795       -23.9132       5.048385
    2    1        -0.332075        -9.0362       5.301386

  Assembling full basis from fixed parts.
  | Species H :   atomic orbital   1 s accepted.
  | Species H :    hydro orbital   2 s accepted.
  | Species H :    hydro orbital   1 s accepted.
  | Species H :    hydro orbital   2 s accepted.
  | Species H :    hydro orbital   2 p accepted.
  | Species H :    hydro orbital   2 p accepted.
  | Species H :    hydro orbital   3 d accepted.
  | Species C :   atomic orbital   1 s accepted.
  | Species C :    hydro orbital   2 s accepted.
  | Species C :   atomic orbital   2 s accepted.
  | Species C :    hydro orbital   3 s accepted.
  | Species C :    hydro orbital   3 p accepted.
  | Species C :   atomic orbital   2 p accepted.
  | Species C :    hydro orbital   2 p accepted.
  | Species C :    hydro orbital   3 d accepted.
  | Species C :    hydro orbital   3 d accepted.
  | Species C :    hydro orbital   4 f accepted.
  | Species C :    hydro orbital   5 g accepted.
  | Species N :   atomic orbital   1 s accepted.
  | Species N :    hydro orbital   3 s accepted.
  | Species N :   atomic orbital   2 s accepted.
  | Species N :    hydro orbital   1 s accepted.
  | Species N :    hydro orbital   3 p accepted.
  | Species N :   atomic orbital   2 p accepted.
  | Species N :    hydro orbital   2 p accepted.
  | Species N :    hydro orbital   3 d accepted.
  | Species N :    hydro orbital   3 d accepted.
  | Species N :    hydro orbital   4 f accepted.
  | Species N :    hydro orbital   5 g accepted.
  | Species O :   atomic orbital   1 s accepted.
  | Species O :    hydro orbital   3 s accepted.
  | Species O :   atomic orbital   2 s accepted.
  | Species O :    hydro orbital   1 s accepted.
  | Species O :    hydro orbital   3 p accepted.
  | Species O :   atomic orbital   2 p accepted.
  | Species O :    hydro orbital   2 p accepted.
  | Species O :    hydro orbital   3 d accepted.
  | Species O :    hydro orbital   3 d accepted.
  | Species O :    hydro orbital   4 f accepted.
  | Species O :    hydro orbital   5 g accepted.
 
  Basis size parameters after reduction:
  | Total number of radial functions:       40
  | Total number of basis functions :      840
 
  Testing on-site integration grid accuracy.
  |  Species  Function  <phi|h_atom|phi> (log., in eV)  <phi|h_atom|phi> (rad., in eV)
           1        1                 -6.4869821809                 -6.4870742227
           1        2                 13.5044133542                 13.5041049177
           1        3                 32.7854418792                 32.7779770519
           1        4                 33.7995553101                 33.7152624900 ***
           1        5                 28.8558651799                 28.8558652046
           1        6                 59.6361831893                 59.6362535845
           1        7                 60.2733718049                 60.2733715484
           2        8               -273.2358277112               -273.2358261765
           2        9                -10.7624923123                -10.7625144012
           2       10                 17.4634079027                 17.4634252127
           2       11                 53.0363661832                 53.0366180446
           2       12                 15.0981351967                 15.0981317714
           2       13                  3.8522181899                  3.8522770949
           2       14                 12.1181835661                 12.1206868578
           2       15                 29.4320778347                 29.4320780959
           2       16                 54.8753777694                 54.8752901936
           2       17                 59.3533975461                 59.3533974833
           2       18                 93.4537491195                 93.4537492066
           3       19               -384.4698526889               -384.4698499465
           3       20                 12.5691022037                 12.5690910168
           3       21                -15.7489097511                -15.7489165588
           3       22                 27.0978334940                 27.0985589490
           3       23                 18.5949116966                 18.5949125562
           3       24                  1.2212828291                  1.2212855301
           3       25                 13.4428926797                 13.4434051125
           3       26                 35.9380614500                 35.9380613666
           3       27                 39.9231532098                 39.9231654735
           3       28                 72.9957335806                 72.9957336833
           3       29                116.4231321147                116.4231321431
           4       30               -514.2564144315               -514.2564099626
           4       31                 15.1726678541                 15.1726530877
           4       32                -21.5447785304                -21.5447874973
           4       33                 14.4944558459                 14.4944698284
           4       34                 20.8882174564                 20.8882178906
           4       35                 -2.4850315908                 -2.4850322289
           4       36                 13.8600193195                 13.8599826966
           4       37                 45.8243383616                 45.8243383675
           4       38                 52.1840606465                 52.1840622440
           4       39                 85.4074185510                 85.4074185819
           4       40                142.0983717302                142.0983717339
 * Note: Onsite integrals marked "***" above are less accurate than
 * onsite_accuracy_threshold =    0.03000 eV. Usually, this is harmless.
 * When in doubt, tighten the "radial" and/or "radial_multiplier" flags to check.

  Preparing densities etc. for the partition functions (integrals / Hartree potential).

  Preparations completed.
  max(cpu_time)          :      0.232 s.
  Wall clock time (cpu1) :      0.232 s.
------------------------------------------------------------

------------------------------------------------------------
          Begin self-consistency loop: Initialization.

          Date     :  20170309, Time     :  184656.570
------------------------------------------------------------

  Initializing index lists of integration centers etc. from given atomic structure:
  | Number of centers in hartree potential         :        32
  | Number of centers in hartree multipole         :        32
  | Number of centers in electron density summation:        32
  | Number of centers in basis integrals           :        32
  | Number of centers in integrals                 :        32
  | Number of centers in hamiltonian               :        32
  Using modified Scalapack Eigenvalue solver (ELPA)
  * Using 32 tasks for Scalapack Eigenvalue solver.
  Detailed listing of tasks and assigned k-points:
  (for non-periodic systems, the "k-point" denotes an internal label only)
   Task     0 k-point     1 on eos221
   Task     1 k-point     1 on eos221
   Task     2 k-point     1 on eos221
   Task     3 k-point     1 on eos221
   Task     4 k-point     1 on eos221
   Task     5 k-point     1 on eos221
   Task     6 k-point     1 on eos221
   Task     7 k-point     1 on eos221
   Task     8 k-point     1 on eos221
   Task     9 k-point     1 on eos221
   Task    10 k-point     1 on eos221
   Task    11 k-point     1 on eos221
   Task    12 k-point     1 on eos221
   Task    13 k-point     1 on eos221
   Task    14 k-point     1 on eos221
   Task    15 k-point     1 on eos221
   Task    16 k-point     1 on eos221
   Task    17 k-point     1 on eos221
   Task    18 k-point     1 on eos221
   Task    19 k-point     1 on eos221
   Task    20 k-point     1 on eos221
   Task    21 k-point     1 on eos221
   Task    22 k-point     1 on eos221
   Task    23 k-point     1 on eos221
   Task    24 k-point     1 on eos221
   Task    25 k-point     1 on eos221
   Task    26 k-point     1 on eos221
   Task    27 k-point     1 on eos221
   Task    28 k-point     1 on eos221
   Task    29 k-point     1 on eos221
   Task    30 k-point     1 on eos221
   Task    31 k-point     1 on eos221
  Tasks:    32 split into      8 X      4 BLACS grid
  Calculating blocksize based on n_basis =          840 max_nprow =            8 max_npcol =            4
  Scalapack blocksize set to:           16
  Required Scalapack workspace - INTEGER:            1 REAL:             1
  Partitioning the integration grid into batches with parallel hashing+maxmin method.
  | Number of batches:     4963
  | Maximal batch size:     200
  | Minimal batch size:      25
  | Average batch size:     106.332
  | Standard deviation of batch sizes:      32.886

  Integration load balanced across    32 MPI tasks.
  Work distribution over tasks is as follows:
  Task     0 has      16484 integration points.
  Task     1 has      16523 integration points.
  Task     2 has      16479 integration points.
  Task     3 has      16515 integration points.
  Task     4 has      16475 integration points.
  Task     5 has      16544 integration points.
  Task     6 has      16535 integration points.
  Task     7 has      16463 integration points.
  Task     8 has      16484 integration points.
  Task     9 has      16536 integration points.
  Task    10 has      16492 integration points.
  Task    11 has      16526 integration points.
  Task    12 has      16446 integration points.
  Task    13 has      16467 integration points.
  Task    14 has      16448 integration points.
  Task    15 has      16473 integration points.
  Task    16 has      16519 integration points.
  Task    17 has      16490 integration points.
  Task    18 has      16519 integration points.
  Task    19 has      16426 integration points.
  Task    20 has      16495 integration points.
  Task    21 has      16475 integration points.
  Task    22 has      16492 integration points.
  Task    23 has      16470 integration points.
  Task    24 has      16473 integration points.
  Task    25 has      16484 integration points.
  Task    26 has      16520 integration points.
  Task    27 has      16543 integration points.
  Task    28 has      16467 integration points.
  Task    29 has      16487 integration points.
  Task    30 has      16451 integration points.
  Task    31 has      16527 integration points.
  Initializing partition tables, free-atom densities, potentials, etc. across the integration grid (initialize_grid_storage).
  | initialize_grid_storage: Actual outermost partition radius vs. multipole_radius_free
  | (-- VB: in principle, multipole_radius_free should be larger, hence this output)
  | Species        1: Confinement radius =              6.000000000000000 AA, multipole_radius_free =              6.071692442739658 AA.
  | Species        1: outer_partition_radius set to              6.071692442739658 AA .
  | Species        2: Confinement radius =              6.000000000000000 AA, multipole_radius_free =              6.029870734432609 AA.
  | Species        2: outer_partition_radius set to              6.029870734432609 AA .
  | Species        3: Confinement radius =              6.000000000000000 AA, multipole_radius_free =              6.058726835495003 AA.
  | Species        3: outer_partition_radius set to              6.058726835495003 AA .
  | Species        4: Confinement radius =              6.000000000000000 AA, multipole_radius_free =              6.064445521808699 AA.
  | Species        4: outer_partition_radius set to              6.064445521808699 AA .
  | Original list of interatomic distances with          32 x         32 entries is created.
  | Net number of integration points:   527728
  | of which are non-zero points    :   414230
  Obtaining max. number of non-zero basis functions in each batch (get_n_compute_maxes).
  | Maximal number of non-zero basis functions:      745 in task     0
  | Maximal number of non-zero basis functions:      757 in task     1
  | Maximal number of non-zero basis functions:      759 in task     2
  | Maximal number of non-zero basis functions:      767 in task     3
  | Maximal number of non-zero basis functions:      743 in task     4
  | Maximal number of non-zero basis functions:      768 in task     5
  | Maximal number of non-zero basis functions:      763 in task     6
  | Maximal number of non-zero basis functions:      775 in task     7
  | Maximal number of non-zero basis functions:      773 in task     8
  | Maximal number of non-zero basis functions:      766 in task     9
  | Maximal number of non-zero basis functions:      765 in task    10
  | Maximal number of non-zero basis functions:      757 in task    11
  | Maximal number of non-zero basis functions:      771 in task    12
  | Maximal number of non-zero basis functions:      746 in task    13
  | Maximal number of non-zero basis functions:      750 in task    14
  | Maximal number of non-zero basis functions:      753 in task    15
  | Maximal number of non-zero basis functions:      735 in task    16
  | Maximal number of non-zero basis functions:      745 in task    17
  | Maximal number of non-zero basis functions:      751 in task    18
  | Maximal number of non-zero basis functions:      764 in task    19
  | Maximal number of non-zero basis functions:      758 in task    20
  | Maximal number of non-zero basis functions:      759 in task    21
  | Maximal number of non-zero basis functions:      755 in task    22
  | Maximal number of non-zero basis functions:      747 in task    23
  | Maximal number of non-zero basis functions:      770 in task    24
  | Maximal number of non-zero basis functions:      752 in task    25
  | Maximal number of non-zero basis functions:      752 in task    26
  | Maximal number of non-zero basis functions:      762 in task    27
  | Maximal number of non-zero basis functions:      742 in task    28
  | Maximal number of non-zero basis functions:      745 in task    29
  | Maximal number of non-zero basis functions:      768 in task    30
  | Maximal number of non-zero basis functions:      770 in task    31
  Selecting the method for density update.
  Loop over occupied states selected for charge density update.
  Integrating Hamiltonian matrix: batch-based integration.
  Time summed over all CPUs for integration: real work       20.866 s, elapsed       21.667 s
  Integrating overlap matrix.
  Time summed over all CPUs for integration: real work       12.608 s, elapsed       12.996 s
  Deallocating overlap matrix.

  Updating Kohn-Sham eigenvalues, eigenvectors, occupation numbers, and Fermi level.
  Solving generalized eigenproblem
  Solving real symmetric generalised eigenvalue problem by standard ScaLAPACK.
  Transforming overlap matrix with ScaLAPACK and checking for singularities.
  : Overlap matrix is nonsingular, using Cholesky decomposition
  | Lowest eigenvalue:  0.831408E-04
  Factoring overlap matrix with Cholesky decomposition
  Using Cholesky factor for transformation
  Using 1-stage real ELPA solver
  Determining occupation numbers for Kohn-Sham eigenstates.
  | Chemical potential (Fermi level) in eV                 : -.89951245E+01
  | Error in electron count due to remaining E_F inaccuracy: 0.00000000E+00
  | Maximum occupation number of highest empty state:  0.00E+00

  Writing Kohn-Sham eigenvalues.

  State    Occupation    Eigenvalue [Ha]    Eigenvalue [eV]
      1       2.00000         -18.975349         -516.34552
      2       2.00000         -18.975054         -516.33749
      3       2.00000         -18.973982         -516.30832
      4       2.00000         -14.255105         -387.90116
      5       2.00000         -14.254661         -387.88907
      6       2.00000         -14.254092         -387.87358
      7       2.00000         -10.171525         -276.78128
      8       2.00000         -10.170588         -276.75579
      9       2.00000         -10.169897         -276.73699
     10       2.00000         -10.166538         -276.64558
     11       2.00000         -10.148827         -276.16362
     12       2.00000         -10.147114         -276.11703
     13       2.00000         -10.135662         -275.80539
     14       2.00000         -10.135618         -275.80421
     15       2.00000         -10.133713         -275.75236
     16       2.00000          -1.136968          -30.93849
     17       2.00000          -1.132626          -30.82031
     18       2.00000          -1.129598          -30.73792
     19       2.00000          -1.019031          -27.72923
     20       2.00000          -1.013892          -27.58941
     21       2.00000          -1.006035          -27.37561
     22       2.00000          -0.888436          -24.17557
     23       2.00000          -0.868351          -23.62903
     24       2.00000          -0.846393          -23.03154
     25       2.00000          -0.817469          -22.24446
     26       2.00000          -0.782131          -21.28287
     27       2.00000          -0.758089          -20.62864
     28       2.00000          -0.708234          -19.27203
     29       2.00000          -0.685017          -18.64027
     30       2.00000          -0.664682          -18.08692
     31       2.00000          -0.646687          -17.59725
     32       2.00000          -0.619407          -16.85492
     33       2.00000          -0.611989          -16.65307
     34       2.00000          -0.605032          -16.46376
     35       2.00000          -0.592582          -16.12496
     36       2.00000          -0.577859          -15.72435
     37       2.00000          -0.571143          -15.54160
     38       2.00000          -0.560287          -15.24619
     39       2.00000          -0.558903          -15.20853
     40       2.00000          -0.555092          -15.10483
     41       2.00000          -0.548170          -14.91647
     42       2.00000          -0.543194          -14.78106
     43       2.00000          -0.538888          -14.66390
     44       2.00000          -0.527225          -14.34653
     45       2.00000          -0.520855          -14.17319
     46       2.00000          -0.517532          -14.08275
     47       2.00000          -0.507677          -13.81460
     48       2.00000          -0.498955          -13.57725
     49       2.00000          -0.494190          -13.44759
     50       2.00000          -0.487293          -13.25993
     51       2.00000          -0.482838          -13.13870
     52       2.00000          -0.479721          -13.05387
     53       2.00000          -0.408515          -11.11625
     54       2.00000          -0.403731          -10.98608
     55       2.00000          -0.400290          -10.89246
     56       2.00000          -0.387914          -10.55566
     57       2.00000          -0.385445          -10.48849
     58       2.00000          -0.381680          -10.38604
     59       0.00000          -0.166695           -4.53601
     60       0.00000          -0.160010           -4.35408
     61       0.00000          -0.152504           -4.14983
     62       0.00000          -0.083784           -2.27988
     63       0.00000          -0.063262           -1.72145
     64       0.00000          -0.060726           -1.65243
     65       0.00000          -0.056071           -1.52577
     66       0.00000          -0.047535           -1.29349
     67       0.00000          -0.038772           -1.05504
     68       0.00000          -0.033303           -0.90622
     69       0.00000          -0.029973           -0.81561
     70       0.00000          -0.026073           -0.70949
     71       0.00000          -0.020170           -0.54885
     72       0.00000          -0.013880           -0.37769
     73       0.00000          -0.013416           -0.36507
     74       0.00000          -0.007293           -0.19846
     75       0.00000          -0.004395           -0.11960
     76       0.00000           0.000643            0.01750
     77       0.00000           0.006046            0.16452
     78       0.00000           0.007517            0.20455
     79       0.00000           0.010982            0.29882
     80       0.00000           0.013736            0.37378
     81       0.00000           0.023427            0.63749
     82       0.00000           0.031369            0.85360
     83       0.00000           0.032749            0.89114
     84       0.00000           0.038054            1.03549
     85       0.00000           0.044333            1.20637
     86       0.00000           0.046185            1.25676
     87       0.00000           0.051392            1.39844
     88       0.00000           0.061414            1.67117
     89       0.00000           0.063925            1.73949
     90       0.00000           0.070940            1.93038
     91       0.00000           0.078868            2.14612
     92       0.00000           0.085181            2.31789
     93       0.00000           0.088116            2.39777
     94       0.00000           0.091018            2.47673
     95       0.00000           0.094138            2.56162
     96       0.00000           0.098881            2.69068
     97       0.00000           0.107973            2.93808
     98       0.00000           0.114169            3.10669
     99       0.00000           0.122399            3.33065
    100       0.00000           0.125623            3.41836
    101       0.00000           0.127250            3.46266
    102       0.00000           0.130615            3.55420
    103       0.00000           0.131672            3.58298
    104       0.00000           0.143479            3.90425
    105       0.00000           0.143925            3.91640
    106       0.00000           0.147548            4.01500
    107       0.00000           0.153467            4.17604
    108       0.00000           0.159092            4.32910
    109       0.00000           0.165048            4.49118
    110       0.00000           0.169491            4.61208
    111       0.00000           0.174249            4.74155
    112       0.00000           0.178711            4.86298
    113       0.00000           0.185489            5.04742
    114       0.00000           0.187527            5.10287
    115       0.00000           0.191080            5.19955
    116       0.00000           0.197692            5.37947
    117       0.00000           0.204082            5.55335
    118       0.00000           0.207551            5.64775
    119       0.00000           0.211109            5.74457
    120       0.00000           0.215171            5.85510
    121       0.00000           0.219402            5.97022
    122       0.00000           0.222769            6.06184
    123       0.00000           0.226954            6.17572
    124       0.00000           0.231114            6.28892
    125       0.00000           0.240197            6.53610
    126       0.00000           0.246806            6.71594
    127       0.00000           0.251860            6.85345
    128       0.00000           0.257624            7.01031
    129       0.00000           0.259285            7.05550

  Highest occupied state (VBM) at    -10.38603774 eV
  | Occupation number:      2.00000000

  Lowest unoccupied state (CBM) at    -4.53601496 eV
  | Occupation number:      0.00000000

  Overall HOMO-LUMO gap:      5.85002278 eV.
  Calculating total energy contributions from superposition of free atom densities.

  Total energy components:
  | Sum of eigenvalues            :        -437.87554978 Ha      -11915.19994811 eV
  | XC energy correction          :         -98.81140499 Ha       -2688.79513415 eV
  | XC potential correction       :         127.00924313 Ha        3456.09734976 eV
  | Free-atom electrostatic energy:        -333.61347718 Ha       -9078.08460190 eV
  | Hartree energy correction     :           0.00000000 Ha           0.00000000 eV
  | vdW energy correction         :           0.00000000 Ha           0.00000000 eV
  | Entropy correction            :           0.00000000 Ha           0.00000000 eV
  | ---------------------------
  | Total energy                  :        -743.29118882 Ha      -20225.98233441 eV
  | Total energy, T -> 0          :        -743.29118882 Ha      -20225.98233441 eV  <-- do not rely on this value for anything but (periodic) metals
  | Electronic free energy        :        -743.29118882 Ha      -20225.98233441 eV

  Derived energy quantities:
  | Kinetic energy                :         735.14230283 Ha       20004.23986457 eV
  | Electrostatic energy          :       -1379.62208666 Ha      -37541.42706482 eV
  | Energy correction for multipole
  | error in Hartree potential    :           0.00000000 Ha           0.00000000 eV
  | Sum of eigenvalues per atom                           :        -372.34999838 eV
  | Total energy (T->0) per atom                          :        -632.06194795 eV  <-- do not rely on this value for anything but (periodic) metals
  | Electronic free energy per atom                       :        -632.06194795 eV
  Initialize hartree_potential_storage
  Max. number of atoms included in rho_multipole:           32

  End scf initialization - timings             :  max(cpu_time)    wall_clock(cpu1)
  | Time for scf. initialization               :        1.844 s           1.840 s
  | Boundary condition initialization          :        0.000 s           0.000 s
  | Integration                                :        1.108 s           1.105 s
  | Solution of K.-S. eqns.                    :        0.076 s           0.074 s
  | Grid partitioning                          :        0.312 s           0.306 s
  | Preloading free-atom quantities on grid    :        0.028 s           0.027 s
  | Free-atom superposition energy             :        0.040 s           0.039 s
  | Total energy evaluation                    :        0.004 s           0.001 s
------------------------------------------------------------

------------------------------------------------------------
          Begin self-consistency iteration #    1

  Date     :  20170309, Time     :  184658.410
------------------------------------------------------------
  Evaluating new KS density.
  Integration grid: deviation in total charge (<rho> - N_e) =   2.842171E-14
  Pulay mixing of updated and previous charge densities.

  Evaluating partitioned Hartree potential by multipole expansion.
  | Analytical far-field extrapolation by fixed multipoles:
  | Hartree multipole sum: apparent total charge =  -0.435135E-04
  Summing up the Hartree potential.
  Time summed over all CPUs for potential: real work        9.495 s, elapsed        9.654 s
  | RMS charge density error from multipole expansion :   0.106127E-01

  Integrating Hamiltonian matrix: batch-based integration.
  Time summed over all CPUs for integration: real work       20.684 s, elapsed       21.462 s

  Updating Kohn-Sham eigenvalues, eigenvectors, occupation numbers, and Fermi level.
  Solving generalized eigenproblem
  Solving real symmetric generalised eigenvalue problem by standard ScaLAPACK.
  Using Cholesky factor for transformation
  Using 2-stage real ELPA solver
  K-Point:    1, Trafo times: 1-stage=     0.021 s, 2-stage=     0.019 s ==> Using 2-stage solver
  Determining occupation numbers for Kohn-Sham eigenstates.
  | Chemical potential (Fermi level) in eV                 : -.44853492E+01
  | Error in electron count due to remaining E_F inaccuracy: 0.00000000E+00
  | Maximum occupation number of highest empty state:  0.00E+00

  Writing Kohn-Sham eigenvalues.

  State    Occupation    Eigenvalue [Ha]    Eigenvalue [eV]
      1       2.00000         -18.629966         -506.94716
      2       2.00000         -18.600302         -506.13996
      3       2.00000         -18.599644         -506.12206
      4       2.00000         -14.015097         -381.37018
      5       2.00000         -13.979186         -380.39302
      6       2.00000         -13.976272         -380.31370
      7       2.00000         -10.067211         -273.94276
      8       2.00000         -10.046500         -273.37919
      9       2.00000         -10.043419         -273.29533
     10       2.00000          -9.976945         -271.48650
     11       2.00000          -9.966299         -271.19679
     12       2.00000          -9.896810         -269.30590
     13       2.00000          -9.850119         -268.03538
     14       2.00000          -9.845541         -267.91081
     15       2.00000          -9.821910         -267.26777
     16       2.00000          -0.977130          -26.58906
     17       2.00000          -0.949338          -25.83281
     18       2.00000          -0.946811          -25.76403
     19       2.00000          -0.883842          -24.05056
     20       2.00000          -0.860622          -23.41870
     21       2.00000          -0.849057          -23.10403
     22       2.00000          -0.748644          -20.37165
     23       2.00000          -0.716152          -19.48748
     24       2.00000          -0.696962          -18.96529
     25       2.00000          -0.673780          -18.33448
     26       2.00000          -0.638755          -17.38140
     27       2.00000          -0.620427          -16.88267
     28       2.00000          -0.590100          -16.05743
     29       2.00000          -0.557078          -15.15886
     30       2.00000          -0.539702          -14.68604
     31       2.00000          -0.519740          -14.14285
     32       2.00000          -0.481778          -13.10985
     33       2.00000          -0.472807          -12.86572
     34       2.00000          -0.462324          -12.58047
     35       2.00000          -0.455329          -12.39013
     36       2.00000          -0.444239          -12.08835
     37       2.00000          -0.431710          -11.74742
     38       2.00000          -0.429430          -11.68539
     39       2.00000          -0.416222          -11.32598
     40       2.00000          -0.401945          -10.93747
     41       2.00000          -0.395244          -10.75514
     42       2.00000          -0.390915          -10.63734
     43       2.00000          -0.385730          -10.49625
     44       2.00000          -0.383908          -10.44668
     45       2.00000          -0.369699          -10.06001
     46       2.00000          -0.362850           -9.87366
     47       2.00000          -0.358876           -9.76552
     48       2.00000          -0.349966           -9.52306
     49       2.00000          -0.349389           -9.50735
     50       2.00000          -0.343554           -9.34858
     51       2.00000          -0.338835           -9.22018
     52       2.00000          -0.334020           -9.08913
     53       2.00000          -0.250710           -6.82217
     54       2.00000          -0.229642           -6.24887
     55       2.00000          -0.219155           -5.96350
     56       2.00000          -0.218013           -5.93243
     57       2.00000          -0.201071           -5.47141
     58       2.00000          -0.200043           -5.44343
     59       0.00000          -0.063220           -1.72029
     60       0.00000          -0.055690           -1.51540
     61       0.00000          -0.037133           -1.01044
     62       0.00000          -0.033571           -0.91350
     63       0.00000          -0.023409           -0.63698
     64       0.00000          -0.020001           -0.54425
     65       0.00000          -0.014642           -0.39844
     66       0.00000          -0.001504           -0.04092
     67       0.00000           0.005841            0.15893
     68       0.00000           0.010233            0.27844
     69       0.00000           0.018857            0.51314
     70       0.00000           0.026350            0.71702
     71       0.00000           0.034685            0.94382
     72       0.00000           0.036194            0.98488
     73       0.00000           0.045531            1.23897
     74       0.00000           0.049307            1.34171
     75       0.00000           0.050466            1.37325
     76       0.00000           0.055700            1.51568
     77       0.00000           0.062488            1.70040
     78       0.00000           0.067472            1.83600
     79       0.00000           0.071804            1.95389
     80       0.00000           0.074254            2.02056
     81       0.00000           0.084438            2.29768
     82       0.00000           0.086682            2.35872
     83       0.00000           0.092871            2.52714
     84       0.00000           0.104857            2.85331
     85       0.00000           0.107675            2.92999
     86       0.00000           0.113176            3.07968
     87       0.00000           0.121458            3.30503
     88       0.00000           0.127140            3.45967
     89       0.00000           0.128871            3.50675
     90       0.00000           0.138619            3.77203
     91       0.00000           0.144052            3.91985
     92       0.00000           0.149128            4.05798
     93       0.00000           0.154117            4.19375
     94       0.00000           0.156108            4.24791
     95       0.00000           0.164676            4.48106
     96       0.00000           0.168104            4.57435
     97       0.00000           0.171035            4.65409
     98       0.00000           0.174102            4.73755
     99       0.00000           0.176585            4.80512
    100       0.00000           0.182799            4.97421
    101       0.00000           0.188823            5.13813
    102       0.00000           0.191484            5.21055
    103       0.00000           0.197214            5.36647
    104       0.00000           0.202149            5.50074
    105       0.00000           0.206783            5.62684
    106       0.00000           0.209349            5.69668
    107       0.00000           0.211968            5.76794
    108       0.00000           0.217259            5.91191
    109       0.00000           0.220286            5.99427
    110       0.00000           0.227582            6.19281
    111       0.00000           0.229648            6.24905
    112       0.00000           0.240902            6.55528
    113       0.00000           0.243264            6.61954
    114       0.00000           0.248763            6.76919
    115       0.00000           0.255364            6.94881
    116       0.00000           0.263748            7.17695
    117       0.00000           0.265981            7.23772
    118       0.00000           0.271187            7.37938
    119       0.00000           0.274633            7.47314
    120       0.00000           0.281294            7.65440
    121       0.00000           0.289056            7.86562
    122       0.00000           0.291826            7.94099
    123       0.00000           0.294397            8.01095
    124       0.00000           0.294668            8.01833
    125       0.00000           0.302029            8.21862
    126       0.00000           0.308590            8.39715
    127       0.00000           0.312547            8.50484
    128       0.00000           0.326821            8.89326
    129       0.00000           0.331633            9.02420

  Highest occupied state (VBM) at     -5.44343408 eV
  | Occupation number:      2.00000000

  Lowest unoccupied state (CBM) at    -1.72029295 eV
  | Occupation number:      0.00000000

  Overall HOMO-LUMO gap:      3.72314112 eV.

  Total energy components:
  | Sum of eigenvalues            :        -417.52152368 Ha      -11361.33871785 eV
  | XC energy correction          :        -100.75391156 Ha       -2741.65342724 eV
  | XC potential correction       :         129.52888006 Ha        3524.66015917 eV
  | Free-atom electrostatic energy:        -333.61347718 Ha       -9078.08460190 eV
  | Hartree energy correction     :         -20.35477339 Ha        -553.88156519 eV
  | vdW energy correction         :           0.00000000 Ha           0.00000000 eV
  | Entropy correction            :          -0.00000000 Ha          -0.00000000 eV
  | ---------------------------
  | Total energy                  :        -742.71480575 Ha      -20210.29815300 eV
  | Total energy, T -> 0          :        -742.71480575 Ha      -20210.29815300 eV  <-- do not rely on this value for anything but (periodic) metals
  | Electronic free energy        :        -742.71480575 Ha      -20210.29815300 eV

  Derived energy quantities:
  | Kinetic energy                :         744.05697016 Ha       20246.82030505 eV
  | Electrostatic energy          :       -1386.01786435 Ha      -37715.46503082 eV
  | Energy correction for multipole
  | error in Hartree potential    :          -0.04145176 Ha          -1.12795973 eV
  | Sum of eigenvalues per atom                           :        -355.04183493 eV
  | Total energy (T->0) per atom                          :        -631.57181728 eV  <-- do not rely on this value for anything but (periodic) metals
  | Electronic free energy per atom                       :        -631.57181728 eV

  Self-consistency convergence accuracy:
  | Change of charge density      :  0.9042E+00
  | Change of sum of eigenvalues  :  0.5539E+03 eV
  | Change of total energy        :  0.1568E+02 eV

  End self-consistency iteration #     1       :  max(cpu_time)    wall_clock(cpu1)
  | Time for this iteration                    :        1.508 s           1.506 s
  | Charge density update                      :        0.484 s           0.478 s
[...]
   ----------------------------------------------------------------
   Total forces(  20)            : -0.861499E-03 -0.427323E-03  0.323410E-02
  atom #   21
   Hellmann-Feynman              :  0.589318E-02  0.968347E-02  0.280596E-01
   Ionic forces                  :  0.000000E+00  0.000000E+00  0.000000E+00
   Multipole                     : -0.146852E-01  0.127021E-01  0.149354E-01
   Pulay + GGA                   :  0.275484E-02 -0.283564E-01 -0.558672E-01
   Van der Waals                 :  0.627964E-02  0.629217E-02  0.107825E-01
   ----------------------------------------------------------------
   Total forces(  21)            :  0.242446E-03  0.321305E-03 -0.208967E-02
  atom #   22
   Hellmann-Feynman              :  0.120279E-01 -0.216637E-01  0.595636E-01
   Ionic forces                  :  0.000000E+00  0.000000E+00  0.000000E+00
   Multipole                     : -0.130230E-02  0.939029E-02  0.846835E-02
   Pulay + GGA                   : -0.109753E-01  0.168092E-01 -0.662609E-01
   Van der Waals                 : -0.324291E-03 -0.299570E-02 -0.245947E-02
   ----------------------------------------------------------------
   Total forces(  22)            : -0.573908E-03  0.154015E-02 -0.688434E-03
  atom #   23
   Hellmann-Feynman              : -0.757686E+00 -0.495208E+00  0.781018E+00
   Ionic forces                  :  0.000000E+00  0.000000E+00  0.000000E+00
   Multipole                     :  0.169746E+00  0.136791E+00 -0.236328E+00
   Pulay + GGA                   :  0.585907E+00  0.358017E+00 -0.544250E+00
   Van der Waals                 : -0.300893E-03 -0.793344E-03 -0.634232E-03
   ----------------------------------------------------------------
   Total forces(  23)            : -0.233373E-02 -0.119329E-02 -0.194360E-03
  atom #   24
   Hellmann-Feynman              :  0.193034E-01  0.673220E-01 -0.272361E-01
   Ionic forces                  :  0.000000E+00  0.000000E+00  0.000000E+00
   Multipole                     : -0.232077E-01 -0.352834E-02 -0.149153E-01
   Pulay + GGA                   :  0.129427E-01 -0.515603E-01  0.398324E-01
   Van der Waals                 : -0.841713E-02 -0.122948E-01  0.334384E-02
   ----------------------------------------------------------------
   Total forces(  24)            :  0.621294E-03 -0.613942E-04  0.102482E-02
  atom #   25
   Hellmann-Feynman              :  0.260539E-01  0.424478E-01  0.613255E-02
   Ionic forces                  :  0.000000E+00  0.000000E+00  0.000000E+00
   Multipole                     : -0.143193E-01 -0.289973E-02  0.348694E-01
   Pulay + GGA                   : -0.163371E-01 -0.379384E-01 -0.447548E-01
   Van der Waals                 :  0.446843E-02 -0.180048E-02  0.356224E-02
   ----------------------------------------------------------------
   Total forces(  25)            : -0.134179E-03 -0.190897E-03 -0.190593E-03
  atom #   26
   Hellmann-Feynman              :  0.673664E-01  0.191264E-01  0.814447E-03
   Ionic forces                  :  0.000000E+00  0.000000E+00  0.000000E+00
   Multipole                     :  0.322047E-03 -0.330474E-01  0.493929E-02
   Pulay + GGA                   : -0.629254E-01  0.225960E-01 -0.578266E-02
   Van der Waals                 : -0.497886E-02 -0.787681E-02  0.385873E-03
   ----------------------------------------------------------------
   Total forces(  26)            : -0.215780E-03  0.798175E-03  0.356947E-03
  atom #   27
   Hellmann-Feynman              : -0.162496E+01  0.712190E+00  0.798296E+00
   Ionic forces                  :  0.000000E+00  0.000000E+00  0.000000E+00
   Multipole                     : -0.920167E-01  0.141511E-01  0.140943E+00
   Pulay + GGA                   :  0.171769E+01 -0.730999E+00 -0.945686E+00
   Van der Waals                 :  0.224639E-02  0.487483E-02  0.701975E-02
   ----------------------------------------------------------------
   Total forces(  27)            :  0.296154E-02  0.216233E-03  0.572072E-03
  atom #   28
   Hellmann-Feynman              :  0.121856E+01  0.505792E-01 -0.180741E+01
   Ionic forces                  :  0.000000E+00  0.000000E+00  0.000000E+00
   Multipole                     : -0.851406E-01  0.446262E-01  0.151404E+00
   Pulay + GGA                   : -0.114468E+01 -0.967891E-01  0.165406E+01
   Van der Waals                 :  0.115411E-01  0.125957E-02  0.126267E-02
   ----------------------------------------------------------------
   Total forces(  28)            :  0.287655E-03 -0.324090E-03 -0.683849E-03
  atom #   29
   Hellmann-Feynman              : -0.397732E-01 -0.504015E-01  0.826520E-02
   Ionic forces                  :  0.000000E+00  0.000000E+00  0.000000E+00
   Multipole                     :  0.170916E-01  0.605105E-02 -0.392097E-01
   Pulay + GGA                   :  0.252094E-01  0.553442E-01  0.318072E-01
   Van der Waals                 : -0.383702E-02 -0.955681E-02 -0.668143E-03
   ----------------------------------------------------------------
   Total forces(  29)            : -0.130922E-02  0.143691E-02  0.194571E-03
  atom #   30
   Hellmann-Feynman              : -0.362389E-01 -0.175633E-01  0.435408E-01
   Ionic forces                  :  0.000000E+00  0.000000E+00  0.000000E+00
   Multipole                     :  0.167563E-01 -0.334264E-01 -0.238803E-01
   Pulay + GGA                   :  0.232678E-01  0.580300E-01 -0.197609E-01
   Van der Waals                 : -0.307099E-02 -0.615828E-02  0.171036E-03
   ----------------------------------------------------------------
   Total forces(  30)            :  0.714285E-03  0.882015E-03  0.706559E-04
  atom #   31
   Hellmann-Feynman              : -0.466822E-02  0.261525E-01  0.545403E-01
   Ionic forces                  :  0.000000E+00  0.000000E+00  0.000000E+00
   Multipole                     :  0.307630E-01 -0.779578E-02  0.725626E-02
   Pulay + GGA                   : -0.387978E-01 -0.232128E-01 -0.549650E-01
   Van der Waals                 :  0.121243E-01  0.494445E-02 -0.868295E-02
   ----------------------------------------------------------------
   Total forces(  31)            : -0.578760E-03  0.883594E-04 -0.185132E-02
  atom #   32
   Hellmann-Feynman              : -0.358600E-01  0.310329E-01  0.443802E-01
   Ionic forces                  :  0.000000E+00  0.000000E+00  0.000000E+00
   Multipole                     : -0.199130E-01  0.126813E-01 -0.118319E-01
   Pulay + GGA                   :  0.522108E-01 -0.353865E-01 -0.309130E-01
   Van der Waals                 :  0.481569E-02 -0.894170E-02 -0.166093E-02
   ----------------------------------------------------------------
   Total forces(  32)            :  0.125361E-02 -0.613959E-03 -0.256588E-04

  Timings for VdW correction (Tkatchenko-Scheffler 2009 or later):
  | CPU time:        0.124 s, Wall clock time:        0.122 s.
  Removing unitary transformations (pure translations, rotations) from forces on atoms.
  Atomic forces before filtering:
  | Net force on center of mass :  -0.187979E-03 -0.467148E-03 -0.101851E-02 eV/A
  | Net torque on center of mass:   0.349141E-02 -0.163462E-02  0.179948E-02 eV
  Atomic forces after filtering:
  | Net force on center of mass :  -0.522674E-18 -0.174225E-17 -0.228670E-18 eV/A
  | Net torque on center of mass:  -0.829762E-17 -0.443692E-17  0.590053E-17 eV

  Energy and forces in a compact form:
  | Total energy uncorrected      :         -0.202084792117637E+05 eV
  | Total energy corrected        :         -0.202084792117637E+05 eV  <-- do not rely on this value for anything but (periodic) metals
  | Electronic free energy        :         -0.202084792117637E+05 eV
  Total atomic forces (unitary forces cleaned) [eV/Ang]:
  |   1         -0.375940684480350E-03         -0.190503495566754E-03         -0.959683101767455E-03
  |   2         -0.173399646788580E-02          0.544733254704526E-03         -0.256495158057066E-02
  |   3          0.304134557700273E-02          0.301956268313768E-03          0.247413303564983E-02
  |   4          0.997236954846051E-03          0.787092436681021E-03         -0.191783918214357E-03
  |   5         -0.331134583927758E-03          0.121135457080923E-02          0.522281956677795E-03
  |   6          0.296955696830810E-03         -0.328898975739837E-03          0.168509239763780E-03
  |   7         -0.772074788337037E-03         -0.106567773920716E-02         -0.184757064282555E-02
  |   8          0.149200334441417E-03          0.223535489988104E-02          0.293960616947603E-02
  |   9         -0.434672785015482E-03         -0.982506941072333E-03         -0.440361285198763E-02
  |  10          0.160733271476158E-02          0.129480049863433E-02          0.293208980760477E-02
  |  11         -0.163904012759618E-02          0.200329525010698E-02          0.292918519096090E-02
  |  12         -0.897138183689573E-03         -0.938011353389591E-04         -0.237757581548475E-02
  |  13         -0.122536471237064E-02         -0.289174062860231E-02          0.208803443816517E-03
  |  14         -0.471945476734742E-03         -0.653077585450131E-03          0.104499492912894E-03
  |  15          0.251757201710661E-03         -0.238526688715413E-03          0.112699560558856E-02
  |  16          0.530151558291333E-03         -0.942749781434469E-03          0.171560720942270E-03
  |  17         -0.781216086074924E-03         -0.332800269141351E-02         -0.962580014764204E-03
  |  18         -0.347699971600958E-03         -0.330077964091406E-03          0.400651239394569E-04
  |  19          0.189714665944273E-02         -0.119216082492557E-03         -0.230896828485215E-03
  |  20         -0.818483590358275E-03         -0.354904532075213E-03          0.324045917589703E-02
  |  21          0.230966620350419E-03          0.309986269605925E-03         -0.203357541127080E-02
  |  22         -0.574588707026345E-03          0.154466234389332E-02         -0.650749042216874E-03
  |  23         -0.231120172809623E-02         -0.114777717012641E-02         -0.117867993079931E-03
  |  24          0.656634461862020E-03          0.517338165770944E-05          0.110513234833681E-02
  |  25         -0.122247349772399E-03         -0.160283389630674E-03         -0.887366561256360E-04
  |  26         -0.187505453486034E-03          0.852697769867316E-03          0.430334917944213E-03
  |  27          0.298090514183968E-02          0.247216350419311E-03          0.542609485545870E-03
  |  28          0.288218947420311E-03         -0.324272286966066E-03         -0.721757087436364E-03
  |  29         -0.127911135754636E-02          0.148333053157764E-02          0.143287925093849E-03
  |  30          0.712145039472142E-03          0.874820430526702E-03          0.304777531625509E-05
  |  31         -0.590886183459288E-03          0.692326619751311E-04         -0.187137172989716E-02
  |  32          0.125425132918649E-02         -0.613689830730749E-03         -0.598887413402582E-04

  ------------------------------------ 
  Start decomposition of the XC Energy 
  ------------------------------------ 
  Hartree-Fock part   :          0.000000000 Ha              0.000000000 eV
  ------------------------------------ 
  X Energy            :        -96.981173376 Ha          -2638.991997994 eV
  C Energy GGA        :         -3.867495921 Ha           -105.239918570 eV
  Total XC Energy     :       -100.848669297 Ha          -2744.231916564 eV
  LDA X and C from self-consistent density 
  X Energy LDA        :        -87.995919866 Ha          -2394.490809900 eV
  C Energy LDA        :         -7.531323394 Ha           -204.937736675 eV
  ------------------------------------ 
  End decomposition of the XC Energy 
  ------------------------------------ 
   
  ESP charge fitting starts.
  | Calculation :  00000001  of  00000001
  | Full density
  Computing multipole expansion for total density.
  Generating points for esp charges.
  Partitioning the integration grid into batches with parallel hashing+maxmin method.
  | Number of batches:     3856
  | Maximal batch size:     200
  | Minimal batch size:      51
  | Average batch size:     126.381
  | Standard deviation of batch sizes:      18.250

  Integration load balanced across    32 MPI tasks.
  Work distribution over tasks is as follows:
  Initializing partition tables, free-atom densities, potentials, etc. across the integration grid (initialize_grid_storage).
  | Original list of interatomic distances with          32 x         32 entries is created.
  | Net number of integration points:   487325
  | of which are non-zero points    :   487325
  Summing up potential from multipole expanded  density.
  Summing up the Hartree potential.
  Time summed over all CPUs for potential: real work        6.327 s, elapsed        6.486 s
  Fitting esp charges to potential.
  |
  | ESP charges fitted to the electrostatic potential :
  |
  | Atom         1: C, ESP charge:      0.29998906
  |
  | Atom         2: C, ESP charge:     -0.49676183
  |
  | Atom         3: O, ESP charge:      0.53998114
  |
  | Atom         4: H, ESP charge:     -0.12096311
  |
  | Atom         5: H, ESP charge:     -0.05833143
  |
  | Atom         6: H, ESP charge:     -0.08387683
  |
  | Atom         7: N, ESP charge:      0.15223277
  |
  | Atom         8: C, ESP charge:      0.19311197
  |
  | Atom         9: C, ESP charge:     -0.36852159
  |
  | Atom        10: O, ESP charge:      0.39127083
  |
  | Atom        11: H, ESP charge:     -0.19740945
  |
  | Atom        12: H, ESP charge:     -0.14887769
  |
  | Atom        13: C, ESP charge:      0.53632179
  |
  | Atom        14: H, ESP charge:     -0.14210863
  |
  | Atom        15: H, ESP charge:     -0.17933245
  |
  | Atom        16: H, ESP charge:     -0.18171624
  |
  | Atom        17: N, ESP charge:     -0.05356111
  |
  | Atom        18: C, ESP charge:     -0.05867890
  |
  | Atom        19: C, ESP charge:     -0.39163898
  |
  | Atom        20: O, ESP charge:      0.47015979
  |
  | Atom        21: H, ESP charge:     -0.12626867
  |
  | Atom        22: H, ESP charge:     -0.12776201
  |
  | Atom        23: C, ESP charge:      0.65585402
  |
  | Atom        24: H, ESP charge:     -0.21217091
  |
  | Atom        25: H, ESP charge:     -0.13347828
  |
  | Atom        26: H, ESP charge:     -0.21581161
  |
  | Atom        27: N, ESP charge:      0.60757961
  |
  | Atom        28: C, ESP charge:     -0.42420329
  |
  | Atom        29: H, ESP charge:     -0.35302177
  |
  | Atom        30: H, ESP charge:      0.00268591
  |
  | Atom        31: H, ESP charge:      0.11209548
  |
  | Atom        32: H, ESP charge:      0.11321241

  RRMS:       0.00212028

  Done.

------------------------------------------------------------------------------
  Final output of selected total energy values:

  The following output summarizes some interesting total energy values
  at the end of a run (AFTER all relaxation, molecular dynamics, etc.).

  | Total energy of the DFT / Hartree-Fock s.c.f. calculation      :         -20208.479211764 eV
  | Final zero-broadening corrected energy (caution - metals only) :         -20208.479211764 eV
  | For reference only, the value of 1 Hartree used in FHI-aims is :             27.211384500 eV

  Before relying on these values, please be sure to understand exactly which
  total energy value is referred to by a given number. Different objects may
  all carry the same name 'total energy'. Definitions:

  Total energy of the DFT / Hartree-Fock s.c.f. calculation:
  | Note that this energy does not include ANY quantities calculated after the
  | s.c.f. cycle, in particular not ANY RPA, MP2, etc. many-body perturbation terms.

  Final zero-broadening corrected energy:
  | For metallic systems only, a broadening of the occupation numbers at the Fermi
  | level can be extrapolated back to zero broadening by an electron-gas inspired
  | formula. For all systems that are not real metals, this value can be
  | meaningless and should be avoided.

------------------------------------------------------------------------------
  Methods described in the following list of references were used in this FHI-aims run.
  If you publish the results, please make sure to cite these reference if they apply.
  FHI-aims is an academic code, and for our developers (often, Ph.D. students
  and postdocs), scientific credit in the community is essential.
  Thank you for helping us!

  For any use of FHI-aims, please cite:

    Volker Blum, Ralf Gehrke, Felix Hanke, Paula Havu, Ville Havu,
    Xinguo Ren, Karsten Reuter, and Matthias Scheffler
    'Ab initio molecular simulations with numeric atom-centered orbitals'
    Computer Physics Communications 180, 2175-2196 (2009)
    http://dx.doi.org/10.1016/j.cpc.2009.06.022


  The scalable eigensolver library ELPA was used in your run.
  ELPA is essential especially for large systems on hundreds or thousands of CPUs.
  For ELPA, please cite:

    Andreas Marek, Volker Blum, Rainer Johanni, Ville Havu, Bruno Lang,
    Thomas Auckenthaler, Alexander Heinecke, Hans-Joachim Bungartz, and Hermann Lederer,
    'The ELPA Library - Scalable Parallel Eigenvalue Solutions
    for Electronic Structure Theory and Computational Science'
    The Journal of Physics: Condensed Matter 26, 213201 (2014).
    http://dx.doi.org/10.1088/0953-8984/26/21/213201


  For ELPA's efficient two-stage tridiagonalization used in your run, please cite:

    T. Auckenthaler, V. Blum, H.-J. Bungartz, T. Huckle, R. Johanni, L. Kraemer,
    B. Lang, H. Lederer, and P. R. Willems,
    'Parallel solution of partial symmetric eigenvalue problems'
    'from  electronic structure calculations'
    Parallel Computing 37, 783-794 (2011).
    http://dx.doi.org/10.1016/j.parco.2011.05.002


  For the real-space grid partitioning and parallelization used in this calculation, please cite:

    Ville Havu, Volker Blum, Paula Havu, and Matthias Scheffler,
    'Efficient O(N) integration for all-electron electronic structure calculation'
    'using numerically tabulated basis functions'
    Journal of Computational Physics 228, 8367-8379 (2009).
    http://dx.doi.org/10.1016/j.jcp.2009.08.008

  Of course, there are many other important community references, e.g., those cited in the
  above references. Our list is limited to references that describe implementations in the
  FHI-aims code. The reason is purely practical (length of this list) - please credit others as well.

------------------------------------------------------------
          Leaving FHI-aims.
          Date     :  20170309, Time     :  184725.686

          Computational steps:
          | Number of self-consistency cycles          :           14

          Detailed time accounting                     :  max(cpu_time)    wall_clock(cpu1)
          | Total time                                 :       29.982 s          30.151 s
          | Preparation time                           :        0.232 s           0.232 s
          | Grid partitioning                          :        0.312 s           0.306 s
          | Preloading free-atom quantities on grid    :        0.028 s           0.027 s
          | Free-atom superposition energy             :        0.040 s           0.039 s
          | Total time for integrations                :       10.693 s          10.666 s
          | Total time for solution of K.-S. equations :        0.528 s           0.496 s
          | Total time for density & force components  :        9.525 s           9.501 s
          | Total time for mixing                      :        0.128 s           0.105 s
          | Total time for Hartree multipole update    :        0.080 s           0.060 s
          | Total time for Hartree multipole sum       :        6.360 s           6.345 s
          | Total time for total energy evaluation     :        0.040 s           0.021 s
          | Total time for vdW correction              :        0.124 s           0.122 s

          Have a nice day.
------------------------------------------------------------
