  MPI-parallelism will be employed.
------------------------------------------------------------
          Invoking FHI-aims ...
          Version 150427
          Git rev.: 9dd23e0 BL: Update Version stamp
          Compiled on 2015/11/03 at 22:05:20 on host eos03.

          When using FHI-aims, please cite the following reference:

          Volker Blum, Ralf Gehrke, Felix Hanke, Paula Havu,
          Ville Havu, Xinguo Ren, Karsten Reuter, and Matthias Scheffler,
          'Ab Initio Molecular Simulations with Numeric Atom-Centered Orbitals: FHI-aims',
          Computer Physics Communications 180, 2175-2196 (2009)

          For any questions about FHI-aims, please visit the aimsclub website
          with its forums and wiki. Contributions to both the forums and the
          wiki are warmly encouraged - they are for you, and everyone is welcome there.

------------------------------------------------------------

  Date     :  20170309, Time     :  190110.712
  Time zero on CPU 1             :   0.320019000000000E+00  s.
  Internal wall clock time zero  :           258318070.712  s.

  Using       32 parallel tasks.
  Task        0 on host eos221 reporting.
  Task        1 on host eos221 reporting.
  Task        2 on host eos221 reporting.
  Task        3 on host eos221 reporting.
  Task        4 on host eos221 reporting.
  Task        5 on host eos221 reporting.
  Task        6 on host eos221 reporting.
  Task        7 on host eos221 reporting.
  Task        8 on host eos221 reporting.
  Task        9 on host eos221 reporting.
  Task       10 on host eos221 reporting.
  Task       11 on host eos221 reporting.
  Task       12 on host eos221 reporting.
  Task       13 on host eos221 reporting.
  Task       14 on host eos221 reporting.
  Task       15 on host eos221 reporting.
  Task       16 on host eos221 reporting.
  Task       17 on host eos221 reporting.
  Task       18 on host eos221 reporting.
  Task       19 on host eos221 reporting.
  Task       20 on host eos221 reporting.
  Task       21 on host eos221 reporting.
  Task       22 on host eos221 reporting.
  Task       23 on host eos221 reporting.
  Task       24 on host eos221 reporting.
  Task       25 on host eos221 reporting.
  Task       26 on host eos221 reporting.
  Task       27 on host eos221 reporting.
  Task       28 on host eos221 reporting.
  Task       29 on host eos221 reporting.
  Task       30 on host eos221 reporting.
  Task       31 on host eos221 reporting.

  Performing system and environment tests:
  | Environment variable OMP_NUM_THREADS correctly set to 1.
  | Stacksize not measured: no C compiler
  | Checking for scalapack...
  | Testing pdtran()...
  | All pdtran() tests passed.

  Obtaining array dimensions for all initial allocations:
  
  -----------------------------------------------------------------------
  Parsing control.in (first pass over file, find array dimensions only).
  The contents of control.in will be repeated verbatim below
  unless switched off by setting 'verbatim_writeout .false.' .
  in the first line of control.in .
  -----------------------------------------------------------------------
  
  #########################################################################################
  #
  # Input for System
  #
  #########################################################################################
  #
  #
  #  Physical model
  #
    xc                 pbe
    vdw_correction_hirshfeld
    spin               none
    charge             0.
  #
  #  SCF convergence
  #
    occupation_type    gaussian 0.05
    mixer              pulay
      n_max_pulay        10
      charge_mix_param   0.5
    sc_accuracy_rho    1E-4
    sc_accuracy_eev    1E-2
    sc_accuracy_etot   1E-5
    sc_accuracy_forces 1E-4
    sc_iter_limit      1000
  #
  #  ESP charge
  #
    output esp
    esp equal_grid_n 80 80 80
  #
  #
  ################################################################################
  #
  #  FHI-aims code project
  # Volker Blum, Fritz Haber Institute Berlin, 2009
  #
  #  Suggested "tight" defaults for H atom (to be pasted into control.in file)
  #
  ################################################################################
    species        H
  #     global species definitions
      nucleus             1
      mass                1.00794
  #
      l_hartree           6
  #
      cut_pot             4.0  2.0  1.0
      basis_dep_cutoff    1e-4
  #
      radial_base         24 7.0
      radial_multiplier   2
      angular_grids       specified
        division   0.1930   50
        division   0.3175  110
        division   0.4293  194
        division   0.5066  302
        division   0.5626  434
  #      division   0.5922  590
  #      division   0.6227  974
  #      division   0.6868 1202
  #      outer_grid  770
        outer_grid  434
  ################################################################################
  #
  #  Definition of "minimal" basis
  #
  ################################################################################
  #     valence basis states
      valence      1  s   1.
  #     ion occupancy
      ion_occ      1  s   0.5
  ################################################################################
  #
  #  Suggested additional basis functions. For production calculations,
  #  uncomment them one after another (the most important basis functions are
  #  listed first).
  #
  #  Basis constructed for dimers: 0.5 A, 0.7 A, 1.0 A, 1.5 A, 2.5 A
  #
  ################################################################################
  #  "First tier" - improvements: -1014.90 meV to -62.69 meV
       hydro 2 s 2.1
       hydro 2 p 3.5
  #  "Second tier" - improvements: -12.89 meV to -1.83 meV
       hydro 1 s 0.85
       hydro 2 p 3.7
       hydro 2 s 1.2
       hydro 3 d 7
  #  "Third tier" - improvements: -0.25 meV to -0.12 meV
  #     hydro 4 f 11.2
  #     hydro 3 p 4.8
  #     hydro 4 d 9
  #     hydro 3 s 3.2
  ################################################################################
  #
  # For methods that use the localized form of the "resolution of identity" for
  # the two-electron Coulomb operator (RI_method LVL), particularly Hartree-Fock and
  # hybrid density functional calculations, the highest accuracy can be obtained by
  # uncommenting the line beginning with "for_aux"  below, thus adding an extra g radial
  # function to the construction of the product basis set for the expansion.
  # See Ref. New J. Phys. 17, 093020 (2015) for more information, particularly Figs. 1 and 6.
  #
  ################################################################################
  #
  # for_aux hydro 5 g 6.0
  ################################################################################
  #
  #  FHI-aims code project
  # Volker Blum, Fritz Haber Institute Berlin, 2009
  #
  #  Suggested "tight" defaults for C atom (to be pasted into control.in file)
  #
  ################################################################################
    species        C
  #     global species definitions
      nucleus             6
      mass                12.0107
  #
      l_hartree           6
  #
      cut_pot             4.0  2.0  1.0
      basis_dep_cutoff    1e-4
  #
      radial_base         34 7.0
      radial_multiplier   2
      angular_grids specified
        division   0.2187   50
        division   0.4416  110
        division   0.6335  194
        division   0.7727  302
        division   0.8772  434
  #      division   0.9334  590
  #      division   0.9924  770
  #      division   1.0230  974
  #      division   1.5020 1202
  #     outer_grid  974
        outer_grid  434
  ################################################################################
  #
  #  Definition of "minimal" basis
  #
  ################################################################################
  #     valence basis states
      valence      2  s   2.
      valence      2  p   2.
  #     ion occupancy
      ion_occ      2  s   1.
      ion_occ      2  p   1.
  ################################################################################
  #
  #  Suggested additional basis functions. For production calculations,
  #  uncomment them one after another (the most important basis functions are
  #  listed first).
  #
  #  Constructed for dimers: 1.0 A, 1.25 A, 1.5 A, 2.0 A, 3.0 A
  #
  ################################################################################
  #  "First tier" - improvements: -1214.57 meV to -155.61 meV
       hydro 2 p 1.7
       hydro 3 d 6
       hydro 2 s 4.9
  #  "Second tier" - improvements: -67.75 meV to -5.23 meV
       hydro 4 f 9.8
       hydro 3 p 5.2
       hydro 3 s 4.3
       hydro 5 g 14.4
       hydro 3 d 6.2
  #  "Third tier" - improvements: -2.43 meV to -0.60 meV
  #     hydro 2 p 5.6
  #     hydro 2 s 1.4
  #     hydro 3 d 4.9
  #     hydro 4 f 11.2
  #  "Fourth tier" - improvements: -0.39 meV to -0.18 meV
  #     hydro 2 p 2.1
  #     hydro 5 g 16.4
  #     hydro 4 d 13.2
  #     hydro 3 s 13.6
  #     hydro 4 f 17.6
  #  Further basis functions - improvements: -0.08 meV and below
  #     hydro 3 s 2
  #     hydro 3 p 6
  #     hydro 4 d 20
  ################################################################################
  #
  # For methods that use the localized form of the "resolution of identity" for
  # the two-electron Coulomb operator (RI_method LVL), particularly Hartree-Fock and
  # hybrid density functional calculations, the highest accuracy can be obtained by
  # uncommenting the line beginning with "for_aux"  below, thus adding an extra g radial
  # function to the construction of the product basis set for the expansion.
  # See Ref. New J. Phys. 17, 093020 (2015) for more information, particularly Figs. 1 and 6.
  #
  ################################################################################
  #
  # for_aux hydro 5 g 6.0
  ################################################################################
  #
  #  FHI-aims code project
  # Volker Blum, Fritz Haber Institute Berlin, 2009
  #
  #  Suggested "tight" defaults for N atom (to be pasted into control.in file)
  #
  ################################################################################
    species        N
  #     global species definitions
      nucleus             7
      mass                14.0067
  #
      l_hartree           6
  #
      cut_pot             4.0  2.0  1.0
      basis_dep_cutoff    1e-4
  #
      radial_base         35 7.0
      radial_multiplier   2
      angular_grids       specified
        division   0.1841   50
        division   0.3514  110
        division   0.5126  194
        division   0.6292  302
        division   0.6939  434
  #      division   0.7396  590
  #      division   0.7632  770
  #      division   0.8122  974
  #      division   1.1604 1202
  #      outer_grid  974
        outer_grid  434
  ################################################################################
  #
  #  Definition of "minimal" basis
  #
  ################################################################################
  #     valence basis states
      valence      2  s   2.
      valence      2  p   3.
  #     ion occupancy
      ion_occ      2  s   1.
      ion_occ      2  p   2.
  ################################################################################
  #
  #  Suggested additional basis functions. For production calculations,
  #  uncomment them one after another (the most important basis functions are
  #  listed first).
  #
  #  Constructed for dimers: 1.0 A, 1.1 A, 1.5 A, 2.0 A, 3.0 A
  #
  ################################################################################
  #  "First tier" - improvements: -1193.42 meV to -220.60 meV
       hydro 2 p 1.8
       hydro 3 d 6.8
       hydro 3 s 5.8
  #  "Second tier" - improvements: -80.21 meV to -6.86 meV
       hydro 4 f 10.8
       hydro 3 p 5.8
       hydro 1 s 0.8
       hydro 5 g 16
       hydro 3 d 4.9
  #  "Third tier" - improvements: -4.29 meV to -0.53 meV
  #     hydro 3 s 16
  #     ionic 2 p auto
  #     hydro 3 d 6.6
  #     hydro 4 f 11.6
  #  "Fourth tier" - improvements: -0.75 meV to -0.25 meV
  #     hydro 2 p 4.5
  #     hydro 2 s 2.4
  #     hydro 5 g 14.4
  #     hydro 4 d 14.4
  #     hydro 4 f 16.8
  # Further basis functions - -0.21 meV and below
  #     hydro 3 p 14.8
  #     hydro 3 s 4.4
  #     hydro 3 d 19.6
  #     hydro 5 g 12.8
  ################################################################################
  #
  # For methods that use the localized form of the "resolution of identity" for
  # the two-electron Coulomb operator (RI_method LVL), particularly Hartree-Fock and
  # hybrid density functional calculations, the highest accuracy can be obtained by
  # uncommenting the line beginning with "for_aux"  below, thus adding an extra g radial
  # function to the construction of the product basis set for the expansion.
  # See Ref. New J. Phys. 17, 093020 (2015) for more information, particularly Figs. 1 and 6.
  #
  ################################################################################
  #
  # for_aux hydro 5 g 6.0
  ################################################################################
  #
  #  FHI-aims code project
  # Volker Blum, Fritz Haber Institute Berlin, 2009
  #
  #  Suggested "tight" defaults for O atom (to be pasted into control.in file)
  #
  ################################################################################
    species        O
  #     global species definitions
      nucleus             8
      mass                15.9994
  #
      l_hartree           6
  #
      cut_pot             4.0  2.0  1.0
      basis_dep_cutoff    1e-4
  #
      radial_base         36 7.0
      radial_multiplier   2
       angular_grids specified
        division   0.1817   50
        division   0.3417  110
        division   0.4949  194
        division   0.6251  302
        division   0.8014  434
  #      division   0.8507  590
  #      division   0.8762  770
  #      division   0.9023  974
  #      division   1.2339 1202
  #      outer_grid 974
        outer_grid  434
  ################################################################################
  #
  #  Definition of "minimal" basis
  #
  ################################################################################
  #     valence basis states
      valence      2  s   2.
      valence      2  p   4.
  #     ion occupancy
      ion_occ      2  s   1.
      ion_occ      2  p   3.
  ################################################################################
  #
  #  Suggested additional basis functions. For production calculations,
  #  uncomment them one after another (the most important basis functions are
  #  listed first).
  #
  #  Constructed for dimers: 1.0 A, 1.208 A, 1.5 A, 2.0 A, 3.0 A
  #
  ################################################################################
  #  "First tier" - improvements: -699.05 meV to -159.38 meV
       hydro 2 p 1.8
       hydro 3 d 7.6
       hydro 3 s 6.4
  #  "Second tier" - improvements: -49.91 meV to -5.39 meV
       hydro 4 f 11.6
       hydro 3 p 6.2
       hydro 3 d 5.6
       hydro 5 g 17.6
       hydro 1 s 0.75
  #  "Third tier" - improvements: -2.83 meV to -0.50 meV
  #     ionic 2 p auto
  #     hydro 4 f 10.8
  #     hydro 4 d 4.7
  #     hydro 2 s 6.8
  #  "Fourth tier" - improvements: -0.40 meV to -0.12 meV
  #     hydro 3 p 5
  #     hydro 3 s 3.3
  #     hydro 5 g 15.6
  #     hydro 4 f 17.6
  #     hydro 4 d 14
  # Further basis functions - -0.08 meV and below
  #     hydro 3 s 2.1
  #     hydro 4 d 11.6
  #     hydro 3 p 16
  #     hydro 2 s 17.2
  ################################################################################
  #
  # For methods that use the localized form of the "resolution of identity" for
  # the two-electron Coulomb operator (RI_method LVL), particularly Hartree-Fock and
  # hybrid density functional calculations, the highest accuracy can be obtained by
  # uncommenting the line beginning with "for_aux"  below, thus adding an extra g radial
  # function to the construction of the product basis set for the expansion.
  # See Ref. New J. Phys. 17, 093020 (2015) for more information, particularly Figs. 1 and 6.
  #
  ################################################################################
  #
  # for_aux hydro 5 g 6.0
  
  -----------------------------------------------------------------------
  Completed first pass over input file control.in .
  -----------------------------------------------------------------------
  
  
  -----------------------------------------------------------------------
  Parsing geometry.in (first pass over file, find array dimensions only).
  The contents of geometry.in will be repeated verbatim below
  unless switched off by setting 'verbatim_writeout .false.' .
  in the first line of geometry.in .
  -----------------------------------------------------------------------
  
  #
  # This is the geometry file that corresponds to the current relaxation step.
  # If you do not want this file to be written, set the "write_restart_geometry" flag to .false.
  #
  atom       1.34511086     -0.45459461      0.04258622 C
  atom       1.05149425     -0.33785665      1.52540264 C
  atom       1.95218555     -0.44652157      2.36679310 O
  atom       0.48362060     -0.23987642     -0.60152333 H
  atom       1.69365222     -1.47509582     -0.16348905 H
  atom       2.16496803      0.22819579     -0.21015601 H
  atom      -0.25164041     -0.10894673      1.85116489 N
  atom      -0.84518657     -0.08102972      3.19876601 C
  atom      -0.46273014      1.14277297      4.06977534 C
  atom      -1.35269232      1.77954975      4.64157075 O
  atom      -0.89847313      0.01329122      1.08220686 H
  atom      -1.92047032      0.05646445      3.03291027 H
  atom      -0.63212050     -1.38723778      3.97763027 C
  atom      -1.04491695     -2.23543073      3.41593165 H
  atom      -1.15159117     -1.32044701      4.94173861 H
  atom       0.42980580     -1.57449197      4.16974071 H
  atom       0.85986662      1.39216754      4.18522462 N
  atom       1.41835370      2.41497668      5.07103230 C
  atom       1.10673452      2.04868728      6.55174721 C
  atom       1.66563705      1.05233359      7.01356286 O
  atom       1.49726377      0.73436927      3.71874581 H
  atom       2.50264343      2.24005853      5.03948461 H
  atom       1.16666806      3.83457971      4.55316947 C
  atom       1.67633433      3.95299445      3.58773494 H
  atom       1.58056712      4.58108472      5.24403625 H
  atom       0.10336360      4.04255954      4.40157636 H
  atom       0.31500879      2.82469611      7.34908445 N
  atom      -0.68944618      3.82889155      7.01614174 C
  atom       0.27325625      2.43674405      8.28722780 H
  atom      -1.27067586      3.52033996      6.13944556 H
  atom      -1.37273746      3.91191561      7.86897803 H
  atom      -0.24843354      4.82120526      6.84435808 H
  
  -----------------------------------------------------------------------
  Completed first pass over input file geometry.in .
  -----------------------------------------------------------------------
  

  Basic array size parameters:
  | Number of species                 :        4
  | Number of atoms                   :       32
  | Max. basis fn. angular momentum   :        4
  | Max. atomic/ionic basis occupied n:        2
  | Max. number of basis fn. types    :        2
  | Max. radial fns per species/type  :        8
  | Max. logarithmic grid size        :     1301
  | Max. radial integration grid size :       73
  | Max. angular integration grid size:      434
  | Max. angular grid division number :        8
  | Radial grid for Hartree potential :     1301
  | Number of spin channels           :        1

------------------------------------------------------------
          Reading file control.in.
------------------------------------------------------------
  XC: Using PBE gradient-corrected functionals.
  Spin treatment: No spin polarisation.
  Charge =   0.000000E+00: Neutral system requested explicitly.
  Occupation type: Gaussian broadening, width =   0.500000E-01 eV.
  Using pulay charge density mixing.
  Pulay mixing - number of memorized iterations:   10
  Charge density mixing - mixing parameter:     0.5000
  Convergence accuracy of self-consistent charge density:  0.1000E-03
  Convergence accuracy of sum of eigenvalues:  0.1000E-01
  Convergence accuracy of total energy:  0.1000E-04
  Convergence accuracy of forces:  0.1000E-03
  Maximum number of s.-c. iterations  :  1000
  Fitting ESP-charges to Potential. 
  | Esp charge output options: 
  | ESP Grid method: 3, cubic grid
  | Number of points in x, ,y, z:  0080 0080 0080
  |
 
  Reading configuration options for species H                   .
  | Found nuclear charge :   1.0000
  | Found atomic mass :    1.00794000000000      amu
  | Found l_max for Hartree potential  :   6
  | Found cutoff potl. onset [A], width [A], scale factor :    4.00000    2.00000    1.00000
  | Threshold for basis-dependent cutoff potential is   0.100000E-03
  | Found data for basic radial integration grid :    24 points, outermost radius =    7.000 A
  | Found multiplier for basic radial grid :   2
  | Found angular grid specification: user-specified.
  | Specified grid contains     6 separate shells.
  | Check grid settings after all constraints further below.
  | Found free-atom valence shell :  1 s   1.000
  | No ionic wave fns used. Skipping ion_occ.
  | Found hydrogenic basis function :  2 s   2.100
  | Found hydrogenic basis function :  2 p   3.500
  | Found hydrogenic basis function :  1 s   0.850
  | Found hydrogenic basis function :  2 p   3.700
  | Found hydrogenic basis function :  2 s   1.200
  | Found hydrogenic basis function :  3 d   7.000
  Species H                   : Missing cutoff potential type.
  Defaulting to exp(1/x)/(1-x)^2 type cutoff potential.
  Species H : No 'logarithmic' tag. Using default grid for free atom:
  | Default logarithmic grid data [bohr] : 0.1000E-03 0.1000E+03 0.1012E+01
  Species H : On-site basis accuracy parameter (for Gram-Schmidt orthonormalisation) not specified.
  Using default value basis_acc =  0.1000000E-03.
  Species H                   : Using default innermost maximum threshold i_radial=  2 for radial functions.
  Species H                   : Default cutoff onset for free atom density etc. : 0.40000000E+01 AA.
  Species H                   : Basic radial grid will be enhanced according to radial_multiplier =   2, to contain    49 grid points.
 
  Reading configuration options for species C                   .
  | Found nuclear charge :   6.0000
  | Found atomic mass :    12.0107000000000      amu
  | Found l_max for Hartree potential  :   6
  | Found cutoff potl. onset [A], width [A], scale factor :    4.00000    2.00000    1.00000
  | Threshold for basis-dependent cutoff potential is   0.100000E-03
  | Found data for basic radial integration grid :    34 points, outermost radius =    7.000 A
  | Found multiplier for basic radial grid :   2
  | Found angular grid specification: user-specified.
  | Specified grid contains     6 separate shells.
  | Check grid settings after all constraints further below.
  | Found free-atom valence shell :  2 s   2.000
  | Found free-atom valence shell :  2 p   2.000
  | No ionic wave fns used. Skipping ion_occ.
  | No ionic wave fns used. Skipping ion_occ.
  | Found hydrogenic basis function :  2 p   1.700
  | Found hydrogenic basis function :  3 d   6.000
  | Found hydrogenic basis function :  2 s   4.900
  | Found hydrogenic basis function :  4 f   9.800
  | Found hydrogenic basis function :  3 p   5.200
  | Found hydrogenic basis function :  3 s   4.300
  | Found hydrogenic basis function :  5 g  14.400
  | Found hydrogenic basis function :  3 d   6.200
  Species C                   : Missing cutoff potential type.
  Defaulting to exp(1/x)/(1-x)^2 type cutoff potential.
  Species C : No 'logarithmic' tag. Using default grid for free atom:
  | Default logarithmic grid data [bohr] : 0.1000E-03 0.1000E+03 0.1012E+01
  Species C : On-site basis accuracy parameter (for Gram-Schmidt orthonormalisation) not specified.
  Using default value basis_acc =  0.1000000E-03.
  Species C                   : Using default innermost maximum threshold i_radial=  2 for radial functions.
  Species C                   : Default cutoff onset for free atom density etc. : 0.40000000E+01 AA.
  Species C                   : Basic radial grid will be enhanced according to radial_multiplier =   2, to contain    69 grid points.
 
  Reading configuration options for species N                   .
  | Found nuclear charge :   7.0000
  | Found atomic mass :    14.0067000000000      amu
  | Found l_max for Hartree potential  :   6
  | Found cutoff potl. onset [A], width [A], scale factor :    4.00000    2.00000    1.00000
  | Threshold for basis-dependent cutoff potential is   0.100000E-03
  | Found data for basic radial integration grid :    35 points, outermost radius =    7.000 A
  | Found multiplier for basic radial grid :   2
  | Found angular grid specification: user-specified.
  | Specified grid contains     6 separate shells.
  | Check grid settings after all constraints further below.
  | Found free-atom valence shell :  2 s   2.000
  | Found free-atom valence shell :  2 p   3.000
  | No ionic wave fns used. Skipping ion_occ.
  | No ionic wave fns used. Skipping ion_occ.
  | Found hydrogenic basis function :  2 p   1.800
  | Found hydrogenic basis function :  3 d   6.800
  | Found hydrogenic basis function :  3 s   5.800
  | Found hydrogenic basis function :  4 f  10.800
  | Found hydrogenic basis function :  3 p   5.800
  | Found hydrogenic basis function :  1 s   0.800
  | Found hydrogenic basis function :  5 g  16.000
  | Found hydrogenic basis function :  3 d   4.900
  Species N                   : Missing cutoff potential type.
  Defaulting to exp(1/x)/(1-x)^2 type cutoff potential.
  Species N : No 'logarithmic' tag. Using default grid for free atom:
  | Default logarithmic grid data [bohr] : 0.1000E-03 0.1000E+03 0.1012E+01
  Species N : On-site basis accuracy parameter (for Gram-Schmidt orthonormalisation) not specified.
  Using default value basis_acc =  0.1000000E-03.
  Species N                   : Using default innermost maximum threshold i_radial=  2 for radial functions.
  Species N                   : Default cutoff onset for free atom density etc. : 0.40000000E+01 AA.
  Species N                   : Basic radial grid will be enhanced according to radial_multiplier =   2, to contain    71 grid points.
 
  Reading configuration options for species O                   .
  | Found nuclear charge :   8.0000
  | Found atomic mass :    15.9994000000000      amu
  | Found l_max for Hartree potential  :   6
  | Found cutoff potl. onset [A], width [A], scale factor :    4.00000    2.00000    1.00000
  | Threshold for basis-dependent cutoff potential is   0.100000E-03
  | Found data for basic radial integration grid :    36 points, outermost radius =    7.000 A
  | Found multiplier for basic radial grid :   2
  | Found angular grid specification: user-specified.
  | Specified grid contains     6 separate shells.
  | Check grid settings after all constraints further below.
  | Found free-atom valence shell :  2 s   2.000
  | Found free-atom valence shell :  2 p   4.000
  | No ionic wave fns used. Skipping ion_occ.
  | No ionic wave fns used. Skipping ion_occ.
  | Found hydrogenic basis function :  2 p   1.800
  | Found hydrogenic basis function :  3 d   7.600
  | Found hydrogenic basis function :  3 s   6.400
  | Found hydrogenic basis function :  4 f  11.600
  | Found hydrogenic basis function :  3 p   6.200
  | Found hydrogenic basis function :  3 d   5.600
  | Found hydrogenic basis function :  5 g  17.600
  | Found hydrogenic basis function :  1 s   0.750
  Species O                   : Missing cutoff potential type.
  Defaulting to exp(1/x)/(1-x)^2 type cutoff potential.
  Species O : No 'logarithmic' tag. Using default grid for free atom:
  | Default logarithmic grid data [bohr] : 0.1000E-03 0.1000E+03 0.1012E+01
  Species O : On-site basis accuracy parameter (for Gram-Schmidt orthonormalisation) not specified.
  Using default value basis_acc =  0.1000000E-03.
  Species O                   : Using default innermost maximum threshold i_radial=  2 for radial functions.
  Species O                   : Default cutoff onset for free atom density etc. : 0.40000000E+01 AA.
  Species O                   : Basic radial grid will be enhanced according to radial_multiplier =   2, to contain    73 grid points.
 
  Finished reading input file 'control.in'. Consistency checks are next.
 
  Target number of points in a grid batch is not set. Defaulting to  100
  Method for grid partitioning is not set. Defaulting to parallel hash+maxmin partitioning.
  Batch size limit is not set. Defaulting to    200
  By default, will store active basis functions for each batch.
  If in need of memory, prune_basis_once .false. can be used to disable this option.
  communication_type for Hartree potential was not specified.
  Defaulting to calc_hartree .
  Pulay mixer: Number of initial linear mixing iterations not set.
  Defaulting to    0 iterations.
  Work space size for distributed Hartree potential not set.
  Defaulting to   0.200000E+03 MB.
  Algorithm-dependent basis array size parameters:
  | n_max_pulay                         :       10
  Geometry relaxation not requested: no relaxation will be performed.
  Handling of forces: Unphysical translation and rotation will be removed from forces.
  No accuracy limit for integral partition fn. given. Defaulting to  0.1000E-14.
  No threshold value for u(r) in integrations given. Defaulting to  0.1000E-05.
  No accuracy for occupation numbers given. Defaulting to  0.1000E-07.
  No threshold value for occupation numbers given. Defaulting to  0.0000E+00.
  No accuracy for fermi level given. Defaulting to  0.1000E-19.
  Maximum # of iterations to find E_F not set. Defaulting to  200.
  Preferred method for the eigenvalue solver ('KS_method') not specified in 'control.in'.
  Calling blacs routine to test compilation state
  Since scalapack support is enabled, defaulting to 'elpa'.
  Preferred method for the MBD eigenvalue solver ('mbd_eigensolver') not specified in 'control.in'.
  Calling blacs routine to test compilation state
  Since scalapack support is enabled, defaulting to 'scaLAPACK'.
  Will not use alltoall communication since running on < 1024 CPUs.
  Threshold for basis singularities not set.
  Default threshold for basis singularities:  0.1000E-04
  partition_type (choice of integration weights) for integrals was not specified.
  | Using a version of the partition function of Stratmann and coworkers ('stratmann_smoother').
  | At each grid point, the set of atoms used to build the partition table is smoothly restricted to
  | only those atoms whose free-atom density would be non-zero at that grid point.
  Partitioning for Hartree potential was not defined. Using partition_type for integrals.
  | Adjusted default value of keyword multip_moments_threshold to:       0.10000000E-11
  | This value may affect high angular momentum components of the Hartree potential in periodic systems.
  No q(lm)/r^(l+1) cutoff set for long-range Hartree potential.
  | Using default value of  0.100000E-09 .
  | Verify using the multipole_threshold keyword.
  Defaulting to new monopole extrapolation.
  Density update method: automatic selection selected.
------------------------------------------------------------


------------------------------------------------------------
          Reading geometry description geometry.in.
------------------------------------------------------------
 * Warning! You did not set the 'relativistic' flag in input file 'control.in'.
 * Since you are not attempting to treat any elements beyond Ca(Z=20), FHI-aims
 * will default to 'relativistic none'.
 * You must ensure that this is really what you want!!
 * For example, DO NOT compute total-energy differences between results from
 * different settings of the 'relativistic' flag.
  Input structure read successfully.
  The structure contains       32 atoms,  and a total of        116.000 electrons.

  Input geometry:
  | No unit cell requested.
  | Atomic structure:
  |       Atom                x [A]            y [A]            z [A]
  |    1: Species C              1.345111        -0.454595         0.042586
  |    2: Species C              1.051494        -0.337857         1.525403
  |    3: Species O              1.952186        -0.446522         2.366793
  |    4: Species H              0.483621        -0.239876        -0.601523
  |    5: Species H              1.693652        -1.475096        -0.163489
  |    6: Species H              2.164968         0.228196        -0.210156
  |    7: Species N             -0.251640        -0.108947         1.851165
  |    8: Species C             -0.845187        -0.081030         3.198766
  |    9: Species C             -0.462730         1.142773         4.069775
  |   10: Species O             -1.352692         1.779550         4.641571
  |   11: Species H             -0.898473         0.013291         1.082207
  |   12: Species H             -1.920470         0.056464         3.032910
  |   13: Species C             -0.632120        -1.387238         3.977630
  |   14: Species H             -1.044917        -2.235431         3.415932
  |   15: Species H             -1.151591        -1.320447         4.941739
  |   16: Species H              0.429806        -1.574492         4.169741
  |   17: Species N              0.859867         1.392168         4.185225
  |   18: Species C              1.418354         2.414977         5.071032
  |   19: Species C              1.106735         2.048687         6.551747
  |   20: Species O              1.665637         1.052334         7.013563
  |   21: Species H              1.497264         0.734369         3.718746
  |   22: Species H              2.502643         2.240059         5.039485
  |   23: Species C              1.166668         3.834580         4.553169
  |   24: Species H              1.676334         3.952994         3.587735
  |   25: Species H              1.580567         4.581085         5.244036
  |   26: Species H              0.103364         4.042560         4.401576
  |   27: Species N              0.315009         2.824696         7.349084
  |   28: Species C             -0.689446         3.828892         7.016142
  |   29: Species H              0.273256         2.436744         8.287228
  |   30: Species H             -1.270676         3.520340         6.139446
  |   31: Species H             -1.372737         3.911916         7.868978
  |   32: Species H             -0.248434         4.821205         6.844358
  |

  | The smallest distance between any two atoms is         1.01224065 AA.
  |
  | The first atom of this pair is atom number                      7 .
  | The second atom of this pair is atom number                    11 .

  Number of empty states per atom not set in control.in - providing a guess from actual geometry.
  | Total number of empty states used during s.c.f. cycle:       71
  If you use a very high smearing, use empty_states (per atom!) in control.in to increase this value.

  Structure-dependent array size parameters: 
  | Maximum number of distinct radial functions  :       40
  | Maximum number of basis functions            :      840
  | Number of Kohn-Sham states (occupied + empty):      129
------------------------------------------------------------

------------------------------------------------------------
          Preparing all fixed parts of the calculation.
------------------------------------------------------------
  Determining machine precision:
    2.225073858507201E-308
  Setting up grids for atomic and cluster calculations.

  Creating wave function, potential, and density for free atoms.

  Species: H

  List of occupied orbitals and eigenvalues:
    n    l              occ      energy [Ha]    energy [eV]
    1    0           1.0000        -0.238382        -6.4867


  Species: C

  List of occupied orbitals and eigenvalues:
    n    l              occ      energy [Ha]    energy [eV]
    1    0           2.0000       -10.041232      -273.2358
    2    0           2.0000        -0.504327       -13.7234
    2    1           2.0000        -0.193750        -5.2722


  Species: N

  List of occupied orbitals and eigenvalues:
    n    l              occ      energy [Ha]    energy [eV]
    1    0           2.0000       -14.129007      -384.4699
    2    0           2.0000        -0.681802       -18.5528
    2    1           3.0000        -0.260543        -7.0897


  Species: O

  List of occupied orbitals and eigenvalues:
    n    l              occ      energy [Ha]    energy [eV]
    1    0           2.0000       -18.898576      -514.2564
    2    0           2.0000        -0.878795       -23.9132
    2    1           4.0000        -0.332075        -9.0362

  Creating fixed part of basis set: Ionic, confined, hydrogenic.
 
  H                    hydrogenic:
 
  List of hydrogenic basis orbitals: 
    n    l      effective z      eigenvalue [eV]  inner max. [A]     outer max. [A]     outer radius [A]   
    2    0         2.100000       -14.9965           0.193243           1.317208           5.373006
    2    1         3.500000       -41.6672           0.602369           0.602369           4.056063
    1    0         0.850000        -9.8292           0.624871           0.624871           5.373006
    2    1         3.700000       -46.5653           0.573622           0.573622           3.910002
    2    0         1.200000        -4.5995           0.334980           2.228188           5.505995
    3    2         7.000000       -74.0753           0.680699           0.680699           3.769201
 
 
  C                    hydrogenic:
 
  List of hydrogenic basis orbitals: 
    n    l      effective z      eigenvalue [eV]  inner max. [A]     outer max. [A]     outer radius [A]   
    2    1         1.700000        -9.8152           1.245706           1.245706           5.401630
    3    2         6.000000       -54.4226           0.792453           0.792453           4.178599
    2    0         4.900000       -81.6681           0.082559           0.562749           3.353238
    4    3         9.800000       -81.6681           0.863254           0.863254           4.028125
    3    1         5.200000       -40.8774           0.305389           1.215618           4.898362
    3    0         4.300000       -27.9508           0.091041           1.610311           5.401630
    5    4        14.400000      -112.8510           0.917666           0.917666           3.883070
    3    2         6.200000       -58.1113           0.763917           0.763917           4.077671
 
 
  N                    hydrogenic:
 
  List of hydrogenic basis orbitals: 
    n    l      effective z      eigenvalue [eV]  inner max. [A]     outer max. [A]     outer radius [A]   
    2    1         1.800000       -11.0118           1.177451           1.177451           5.427479
    3    2         6.800000       -69.9029           0.704619           0.704619           3.854246
    3    0         5.800000       -50.8549           0.067388           1.191934           4.629968
    4    3        10.800000       -99.1854           0.786571           0.786571           3.761152
    3    1         5.800000       -50.8549           0.274880           1.094176           4.518138
    1    0         0.800000        -8.7059           0.662839           0.662839           5.361532
    5    4        16.000000      -139.3222           0.825990           0.825990           3.625711
    3    2         4.900000       -36.2967           0.968267           0.968267           4.862000
 
 
  O                    hydrogenic:
 
  List of hydrogenic basis orbitals: 
    n    l      effective z      eigenvalue [eV]  inner max. [A]     outer max. [A]     outer radius [A]   
    2    1         1.800000       -11.0118           1.178562           1.178562           5.432602
    3    2         7.600000       -87.3182           0.624125           0.624125           3.541477
    3    0         6.400000       -61.9209           0.061167           1.081902           4.306578
    4    3        11.600000      -114.4238           0.731631           0.731631           3.585037
    3    1         6.200000       -58.1113           0.255680           1.030270           4.306578
    3    2         5.600000       -47.4081           0.847233           0.847233           4.413171
    5    4        17.600000      -168.5799           0.749740           0.749740           3.372465
    1    0         0.750000        -7.6499           0.705284           0.705284           5.366593
 

  Adding cutoff potential to free-atom effective potential.
  Creating atomic-like basis functions for current effective potential.

  Species H                   :

  List of atomic basis orbitals and eigenvalues:
    n    l      energy [Ha]    energy [eV]    outer radius [A]
    1    0        -0.238382        -6.4867       5.373006


  Species C                   :

  List of atomic basis orbitals and eigenvalues:
    n    l      energy [Ha]    energy [eV]    outer radius [A]
    1    0       -10.041232      -273.2358       1.934409
    2    0        -0.504327       -13.7234       5.271162
    2    1        -0.193750        -5.2722       5.401630


  Species N                   :

  List of atomic basis orbitals and eigenvalues:
    n    l      energy [Ha]    energy [eV]    outer radius [A]
    1    0       -14.129007      -384.4699       1.637919
    2    0        -0.681802       -18.5528       5.168461
    2    1        -0.260543        -7.0897       5.361532


  Species O                   :

  List of atomic basis orbitals and eigenvalues:
    n    l      energy [Ha]    energy [eV]    outer radius [A]
    1    0       -18.898576      -514.2564       1.415765
    2    0        -0.878795       -23.9132       5.048385
    2    1        -0.332075        -9.0362       5.301386

  Assembling full basis from fixed parts.
  | Species H :   atomic orbital   1 s accepted.
  | Species H :    hydro orbital   2 s accepted.
  | Species H :    hydro orbital   1 s accepted.
  | Species H :    hydro orbital   2 s accepted.
  | Species H :    hydro orbital   2 p accepted.
  | Species H :    hydro orbital   2 p accepted.
  | Species H :    hydro orbital   3 d accepted.
  | Species C :   atomic orbital   1 s accepted.
  | Species C :    hydro orbital   2 s accepted.
  | Species C :   atomic orbital   2 s accepted.
  | Species C :    hydro orbital   3 s accepted.
  | Species C :    hydro orbital   3 p accepted.
  | Species C :   atomic orbital   2 p accepted.
  | Species C :    hydro orbital   2 p accepted.
  | Species C :    hydro orbital   3 d accepted.
  | Species C :    hydro orbital   3 d accepted.
  | Species C :    hydro orbital   4 f accepted.
  | Species C :    hydro orbital   5 g accepted.
  | Species N :   atomic orbital   1 s accepted.
  | Species N :    hydro orbital   3 s accepted.
  | Species N :   atomic orbital   2 s accepted.
  | Species N :    hydro orbital   1 s accepted.
  | Species N :    hydro orbital   3 p accepted.
  | Species N :   atomic orbital   2 p accepted.
  | Species N :    hydro orbital   2 p accepted.
  | Species N :    hydro orbital   3 d accepted.
  | Species N :    hydro orbital   3 d accepted.
  | Species N :    hydro orbital   4 f accepted.
  | Species N :    hydro orbital   5 g accepted.
  | Species O :   atomic orbital   1 s accepted.
  | Species O :    hydro orbital   3 s accepted.
  | Species O :   atomic orbital   2 s accepted.
  | Species O :    hydro orbital   1 s accepted.
  | Species O :    hydro orbital   3 p accepted.
  | Species O :   atomic orbital   2 p accepted.
  | Species O :    hydro orbital   2 p accepted.
  | Species O :    hydro orbital   3 d accepted.
  | Species O :    hydro orbital   3 d accepted.
  | Species O :    hydro orbital   4 f accepted.
  | Species O :    hydro orbital   5 g accepted.
 
  Basis size parameters after reduction:
  | Total number of radial functions:       40
  | Total number of basis functions :      840
 
  Testing on-site integration grid accuracy.
  |  Species  Function  <phi|h_atom|phi> (log., in eV)  <phi|h_atom|phi> (rad., in eV)
           1        1                 -6.4869821809                 -6.4870742227
           1        2                 13.5044133542                 13.5041049177
           1        3                 32.7854418792                 32.7779770519
           1        4                 33.7995553101                 33.7152624900 ***
           1        5                 28.8558651799                 28.8558652046
           1        6                 59.6361831893                 59.6362535845
           1        7                 60.2733718049                 60.2733715484
           2        8               -273.2358277112               -273.2358261765
           2        9                -10.7624923123                -10.7625144012
           2       10                 17.4634079027                 17.4634252127
           2       11                 53.0363661832                 53.0366180446
           2       12                 15.0981351967                 15.0981317714
           2       13                  3.8522181899                  3.8522770949
           2       14                 12.1181835661                 12.1206868578
           2       15                 29.4320778347                 29.4320780959
           2       16                 54.8753777694                 54.8752901936
           2       17                 59.3533975461                 59.3533974833
           2       18                 93.4537491195                 93.4537492066
           3       19               -384.4698526889               -384.4698499465
           3       20                 12.5691022037                 12.5690910168
           3       21                -15.7489097511                -15.7489165588
           3       22                 27.0978334940                 27.0985589490
           3       23                 18.5949116966                 18.5949125562
           3       24                  1.2212828291                  1.2212855301
           3       25                 13.4428926797                 13.4434051125
           3       26                 35.9380614500                 35.9380613666
           3       27                 39.9231532098                 39.9231654735
           3       28                 72.9957335806                 72.9957336833
           3       29                116.4231321147                116.4231321431
           4       30               -514.2564144315               -514.2564099626
           4       31                 15.1726678541                 15.1726530877
           4       32                -21.5447785304                -21.5447874973
           4       33                 14.4944558459                 14.4944698284
           4       34                 20.8882174564                 20.8882178906
           4       35                 -2.4850315908                 -2.4850322289
           4       36                 13.8600193195                 13.8599826966
           4       37                 45.8243383616                 45.8243383675
           4       38                 52.1840606465                 52.1840622440
           4       39                 85.4074185510                 85.4074185819
           4       40                142.0983717302                142.0983717339
 * Note: Onsite integrals marked "***" above are less accurate than
 * onsite_accuracy_threshold =    0.03000 eV. Usually, this is harmless.
 * When in doubt, tighten the "radial" and/or "radial_multiplier" flags to check.

  Preparing densities etc. for the partition functions (integrals / Hartree potential).

  Preparations completed.
  max(cpu_time)          :      0.244 s.
  Wall clock time (cpu1) :      0.240 s.
------------------------------------------------------------

------------------------------------------------------------
          Begin self-consistency loop: Initialization.

          Date     :  20170309, Time     :  190111.807
------------------------------------------------------------

  Initializing index lists of integration centers etc. from given atomic structure:
  | Number of centers in hartree potential         :        32
  | Number of centers in hartree multipole         :        32
  | Number of centers in electron density summation:        32
  | Number of centers in basis integrals           :        32
  | Number of centers in integrals                 :        32
  | Number of centers in hamiltonian               :        32
  Using modified Scalapack Eigenvalue solver (ELPA)
  * Using 32 tasks for Scalapack Eigenvalue solver.
  Detailed listing of tasks and assigned k-points:
  (for non-periodic systems, the "k-point" denotes an internal label only)
   Task     0 k-point     1 on eos221
   Task     1 k-point     1 on eos221
   Task     2 k-point     1 on eos221
   Task     3 k-point     1 on eos221
   Task     4 k-point     1 on eos221
   Task     5 k-point     1 on eos221
   Task     6 k-point     1 on eos221
   Task     7 k-point     1 on eos221
   Task     8 k-point     1 on eos221
   Task     9 k-point     1 on eos221
   Task    10 k-point     1 on eos221
   Task    11 k-point     1 on eos221
   Task    12 k-point     1 on eos221
   Task    13 k-point     1 on eos221
   Task    14 k-point     1 on eos221
   Task    15 k-point     1 on eos221
   Task    16 k-point     1 on eos221
   Task    17 k-point     1 on eos221
   Task    18 k-point     1 on eos221
   Task    19 k-point     1 on eos221
   Task    20 k-point     1 on eos221
   Task    21 k-point     1 on eos221
   Task    22 k-point     1 on eos221
   Task    23 k-point     1 on eos221
   Task    24 k-point     1 on eos221
   Task    25 k-point     1 on eos221
   Task    26 k-point     1 on eos221
   Task    27 k-point     1 on eos221
   Task    28 k-point     1 on eos221
   Task    29 k-point     1 on eos221
   Task    30 k-point     1 on eos221
   Task    31 k-point     1 on eos221
  Tasks:    32 split into      8 X      4 BLACS grid
  Calculating blocksize based on n_basis =          840 max_nprow =            8 max_npcol =            4
  Scalapack blocksize set to:           16
  Required Scalapack workspace - INTEGER:            1 REAL:             1
  Partitioning the integration grid into batches with parallel hashing+maxmin method.
  | Number of batches:     4809
  | Maximal batch size:     200
  | Minimal batch size:      11
  | Average batch size:     109.738
  | Standard deviation of batch sizes:      36.296

  Integration load balanced across    32 MPI tasks.
  Work distribution over tasks is as follows:
  Task     0 has      16478 integration points.
  Task     1 has      16515 integration points.
  Task     2 has      16425 integration points.
  Task     3 has      16508 integration points.
  Task     4 has      16507 integration points.
  Task     5 has      16510 integration points.
  Task     6 has      16506 integration points.
  Task     7 has      16536 integration points.
  Task     8 has      16485 integration points.
  Task     9 has      16487 integration points.
  Task    10 has      16434 integration points.
  Task    11 has      16504 integration points.
  Task    12 has      16501 integration points.
  Task    13 has      16440 integration points.
  Task    14 has      16510 integration points.
  Task    15 has      16484 integration points.
  Task    16 has      16518 integration points.
  Task    17 has      16471 integration points.
  Task    18 has      16516 integration points.
  Task    19 has      16529 integration points.
  Task    20 has      16508 integration points.
  Task    21 has      16495 integration points.
  Task    22 has      16495 integration points.
  Task    23 has      16486 integration points.
  Task    24 has      16427 integration points.
  Task    25 has      16522 integration points.
  Task    26 has      16518 integration points.
  Task    27 has      16436 integration points.
  Task    28 has      16431 integration points.
  Task    29 has      16430 integration points.
  Task    30 has      16510 integration points.
  Task    31 has      16606 integration points.
  Initializing partition tables, free-atom densities, potentials, etc. across the integration grid (initialize_grid_storage).
  | initialize_grid_storage: Actual outermost partition radius vs. multipole_radius_free
  | (-- VB: in principle, multipole_radius_free should be larger, hence this output)
  | Species        1: Confinement radius =              6.000000000000000 AA, multipole_radius_free =              6.071692442739658 AA.
  | Species        1: outer_partition_radius set to              6.071692442739658 AA .
  | Species        2: Confinement radius =              6.000000000000000 AA, multipole_radius_free =              6.029870734432609 AA.
  | Species        2: outer_partition_radius set to              6.029870734432609 AA .
  | Species        3: Confinement radius =              6.000000000000000 AA, multipole_radius_free =              6.058726835495003 AA.
  | Species        3: outer_partition_radius set to              6.058726835495003 AA .
  | Species        4: Confinement radius =              6.000000000000000 AA, multipole_radius_free =              6.064445521808699 AA.
  | Species        4: outer_partition_radius set to              6.064445521808699 AA .
  | Original list of interatomic distances with          32 x         32 entries is created.
  | Net number of integration points:   527728
  | of which are non-zero points    :   415514
  Obtaining max. number of non-zero basis functions in each batch (get_n_compute_maxes).
  | Maximal number of non-zero basis functions:      734 in task     0
  | Maximal number of non-zero basis functions:      758 in task     1
  | Maximal number of non-zero basis functions:      762 in task     2
  | Maximal number of non-zero basis functions:      750 in task     3
  | Maximal number of non-zero basis functions:      747 in task     4
  | Maximal number of non-zero basis functions:      759 in task     5
  | Maximal number of non-zero basis functions:      746 in task     6
  | Maximal number of non-zero basis functions:      759 in task     7
  | Maximal number of non-zero basis functions:      748 in task     8
  | Maximal number of non-zero basis functions:      756 in task     9
  | Maximal number of non-zero basis functions:      752 in task    10
  | Maximal number of non-zero basis functions:      742 in task    11
  | Maximal number of non-zero basis functions:      752 in task    12
  | Maximal number of non-zero basis functions:      758 in task    13
  | Maximal number of non-zero basis functions:      745 in task    14
  | Maximal number of non-zero basis functions:      751 in task    15
  | Maximal number of non-zero basis functions:      748 in task    16
  | Maximal number of non-zero basis functions:      757 in task    17
  | Maximal number of non-zero basis functions:      746 in task    18
  | Maximal number of non-zero basis functions:      758 in task    19
  | Maximal number of non-zero basis functions:      754 in task    20
  | Maximal number of non-zero basis functions:      761 in task    21
  | Maximal number of non-zero basis functions:      761 in task    22
  | Maximal number of non-zero basis functions:      758 in task    23
  | Maximal number of non-zero basis functions:      756 in task    24
  | Maximal number of non-zero basis functions:      756 in task    25
  | Maximal number of non-zero basis functions:      762 in task    26
  | Maximal number of non-zero basis functions:      753 in task    27
  | Maximal number of non-zero basis functions:      739 in task    28
  | Maximal number of non-zero basis functions:      752 in task    29
  | Maximal number of non-zero basis functions:      752 in task    30
  | Maximal number of non-zero basis functions:      752 in task    31
  Selecting the method for density update.
  Loop over occupied states selected for charge density update.
  Integrating Hamiltonian matrix: batch-based integration.
  Time summed over all CPUs for integration: real work       20.948 s, elapsed       21.816 s
  Integrating overlap matrix.
  Time summed over all CPUs for integration: real work       12.574 s, elapsed       13.014 s
  Deallocating overlap matrix.

  Updating Kohn-Sham eigenvalues, eigenvectors, occupation numbers, and Fermi level.
  Solving generalized eigenproblem
  Solving real symmetric generalised eigenvalue problem by standard ScaLAPACK.
  Transforming overlap matrix with ScaLAPACK and checking for singularities.
  : Overlap matrix is nonsingular, using Cholesky decomposition
  | Lowest eigenvalue:  0.832386E-04
  Factoring overlap matrix with Cholesky decomposition
  Using Cholesky factor for transformation
  Using 1-stage real ELPA solver
  Determining occupation numbers for Kohn-Sham eigenstates.
  | Chemical potential (Fermi level) in eV                 : -.96693546E+01
  | Error in electron count due to remaining E_F inaccuracy: 0.00000000E+00
  | Maximum occupation number of highest empty state:  0.00E+00

  Writing Kohn-Sham eigenvalues.

  State    Occupation    Eigenvalue [Ha]    Eigenvalue [eV]
      1       2.00000         -18.974232         -516.31513
      2       2.00000         -18.973289         -516.28947
      3       2.00000         -18.973149         -516.28564
      4       2.00000         -14.254661         -387.88907
      5       2.00000         -14.254035         -387.87202
      6       2.00000         -14.253985         -387.87067
      7       2.00000         -10.171068         -276.76883
      8       2.00000         -10.171041         -276.76812
      9       2.00000         -10.170701         -276.75887
     10       2.00000         -10.166458         -276.64340
     11       2.00000         -10.147002         -276.11398
     12       2.00000         -10.146992         -276.11371
     13       2.00000         -10.136109         -275.81755
     14       2.00000         -10.134756         -275.78074
     15       2.00000         -10.132611         -275.72237
     16       2.00000          -1.132980          -30.82994
     17       2.00000          -1.129310          -30.73009
     18       2.00000          -1.125377          -30.62308
     19       2.00000          -1.018233          -27.70753
     20       2.00000          -1.009438          -27.46820
     21       2.00000          -1.007497          -27.41540
     22       2.00000          -0.891848          -24.26841
     23       2.00000          -0.872159          -23.73265
     24       2.00000          -0.841749          -22.90516
     25       2.00000          -0.817626          -22.24874
     26       2.00000          -0.782013          -21.27966
     27       2.00000          -0.759488          -20.66671
     28       2.00000          -0.707625          -19.25547
     29       2.00000          -0.682858          -18.58151
     30       2.00000          -0.665758          -18.11619
     31       2.00000          -0.641294          -17.45050
     32       2.00000          -0.632565          -17.21297
     33       2.00000          -0.613861          -16.70400
     34       2.00000          -0.600406          -16.33789
     35       2.00000          -0.593640          -16.15376
     36       2.00000          -0.576537          -15.68837
     37       2.00000          -0.568538          -15.47070
     38       2.00000          -0.561022          -15.26618
     39       2.00000          -0.557957          -15.18278
     40       2.00000          -0.549432          -14.95082
     41       2.00000          -0.548962          -14.93801
     42       2.00000          -0.546876          -14.88125
     43       2.00000          -0.531631          -14.46643
     44       2.00000          -0.530249          -14.42880
     45       2.00000          -0.522821          -14.22669
     46       2.00000          -0.519172          -14.12739
     47       2.00000          -0.512098          -13.93491
     48       2.00000          -0.499204          -13.58403
     49       2.00000          -0.487215          -13.25779
     50       2.00000          -0.483251          -13.14992
     51       2.00000          -0.480555          -13.07656
     52       2.00000          -0.469829          -12.78469
     53       2.00000          -0.413890          -11.26253
     54       2.00000          -0.409000          -11.12945
     55       2.00000          -0.403400          -10.97708
     56       2.00000          -0.387867          -10.55440
     57       2.00000          -0.381697          -10.38651
     58       2.00000          -0.380377          -10.35058
     59       0.00000          -0.170477           -4.63892
     60       0.00000          -0.162003           -4.40831
     61       0.00000          -0.153862           -4.18680
     62       0.00000          -0.077393           -2.10598
     63       0.00000          -0.071595           -1.94821
     64       0.00000          -0.053515           -1.45622
     65       0.00000          -0.052159           -1.41932
     66       0.00000          -0.046931           -1.27706
     67       0.00000          -0.039906           -1.08590
     68       0.00000          -0.037781           -1.02808
     69       0.00000          -0.030176           -0.82112
     70       0.00000          -0.027637           -0.75204
     71       0.00000          -0.016981           -0.46209
     72       0.00000          -0.015832           -0.43081
     73       0.00000          -0.012513           -0.34049
     74       0.00000          -0.006429           -0.17494
     75       0.00000          -0.003286           -0.08943
     76       0.00000           0.000568            0.01546
     77       0.00000           0.004914            0.13372
     78       0.00000           0.006303            0.17150
     79       0.00000           0.012619            0.34339
     80       0.00000           0.022299            0.60678
     81       0.00000           0.025934            0.70571
     82       0.00000           0.030538            0.83097
     83       0.00000           0.034483            0.93833
     84       0.00000           0.040902            1.11300
     85       0.00000           0.043800            1.19186
     86       0.00000           0.051097            1.39043
     87       0.00000           0.053692            1.46104
     88       0.00000           0.061211            1.66562
     89       0.00000           0.062819            1.70938
     90       0.00000           0.066192            1.80117
     91       0.00000           0.069327            1.88648
     92       0.00000           0.072832            1.98186
     93       0.00000           0.084690            2.30454
     94       0.00000           0.086880            2.36413
     95       0.00000           0.097825            2.66196
     96       0.00000           0.102130            2.77910
     97       0.00000           0.109352            2.97562
     98       0.00000           0.112869            3.07132
     99       0.00000           0.120739            3.28548
    100       0.00000           0.124853            3.39743
    101       0.00000           0.127793            3.47743
    102       0.00000           0.130979            3.56413
    103       0.00000           0.135697            3.69250
    104       0.00000           0.143733            3.91116
    105       0.00000           0.144437            3.93033
    106       0.00000           0.152001            4.13616
    107       0.00000           0.158820            4.32171
    108       0.00000           0.163373            4.44560
    109       0.00000           0.166025            4.51777
    110       0.00000           0.171756            4.67373
    111       0.00000           0.173388            4.71813
    112       0.00000           0.179694            4.88973
    113       0.00000           0.182656            4.97033
    114       0.00000           0.187159            5.09286
    115       0.00000           0.194936            5.30448
    116       0.00000           0.197076            5.36271
    117       0.00000           0.198732            5.40778
    118       0.00000           0.206140            5.60935
    119       0.00000           0.211262            5.74874
    120       0.00000           0.215112            5.85349
    121       0.00000           0.222646            6.05850
    122       0.00000           0.227867            6.20056
    123       0.00000           0.229796            6.25307
    124       0.00000           0.238624            6.49328
    125       0.00000           0.243179            6.61723
    126       0.00000           0.247544            6.73602
    127       0.00000           0.251236            6.83647
    128       0.00000           0.259871            7.07145
    129       0.00000           0.264989            7.21072

  Highest occupied state (VBM) at    -10.35057790 eV
  | Occupation number:      2.00000000

  Lowest unoccupied state (CBM) at    -4.63892295 eV
  | Occupation number:      0.00000000

  Overall HOMO-LUMO gap:      5.71165495 eV.
  Calculating total energy contributions from superposition of free atom densities.

  Total energy components:
  | Sum of eigenvalues            :        -437.81478997 Ha      -11913.54658964 eV
  | XC energy correction          :         -98.81239314 Ha       -2688.82202307 eV
  | XC potential correction       :         127.01097832 Ha        3456.14456683 eV
  | Free-atom electrostatic energy:        -333.66802283 Ha       -9079.56886466 eV
  | Hartree energy correction     :           0.00000000 Ha           0.00000000 eV
  | vdW energy correction         :           0.00000000 Ha           0.00000000 eV
  | Entropy correction            :          -0.00000000 Ha          -0.00000000 eV
  | ---------------------------
  | Total energy                  :        -743.28422762 Ha      -20225.79291054 eV
  | Total energy, T -> 0          :        -743.28422762 Ha      -20225.79291054 eV  <-- do not rely on this value for anything but (periodic) metals
  | Electronic free energy        :        -743.28422762 Ha      -20225.79291054 eV

  Derived energy quantities:
  | Kinetic energy                :         735.13751340 Ha       20004.10953759 eV
  | Electrostatic energy          :       -1379.60934788 Ha      -37541.08042506 eV
  | Energy correction for multipole
  | error in Hartree potential    :           0.00000000 Ha           0.00000000 eV
  | Sum of eigenvalues per atom                           :        -372.29833093 eV
  | Total energy (T->0) per atom                          :        -632.05602845 eV  <-- do not rely on this value for anything but (periodic) metals
  | Electronic free energy per atom                       :        -632.05602845 eV
  Initialize hartree_potential_storage
  Max. number of atoms included in rho_multipole:           32

  End scf initialization - timings             :  max(cpu_time)    wall_clock(cpu1)
  | Time for scf. initialization               :        1.824 s           1.821 s
  | Boundary condition initialization          :        0.004 s           0.001 s
  | Integration                                :        1.112 s           1.110 s
  | Solution of K.-S. eqns.                    :        0.076 s           0.074 s
  | Grid partitioning                          :        0.296 s           0.292 s
  | Preloading free-atom quantities on grid    :        0.028 s           0.028 s
  | Free-atom superposition energy             :        0.040 s           0.038 s
  | Total energy evaluation                    :        0.004 s           0.001 s
------------------------------------------------------------

------------------------------------------------------------
          Begin self-consistency iteration #    1

  Date     :  20170309, Time     :  190113.628
------------------------------------------------------------
  Evaluating new KS density.
  Integration grid: deviation in total charge (<rho> - N_e) =   2.842171E-14
  Pulay mixing of updated and previous charge densities.

  Evaluating partitioned Hartree potential by multipole expansion.
  | Analytical far-field extrapolation by fixed multipoles:
  | Hartree multipole sum: apparent total charge =  -0.588439E-04
  Summing up the Hartree potential.
  Time summed over all CPUs for potential: real work        9.530 s, elapsed        9.801 s
  | RMS charge density error from multipole expansion :   0.103720E-01

  Integrating Hamiltonian matrix: batch-based integration.
  Time summed over all CPUs for integration: real work       20.650 s, elapsed       21.410 s

  Updating Kohn-Sham eigenvalues, eigenvectors, occupation numbers, and Fermi level.
  Solving generalized eigenproblem
  Solving real symmetric generalised eigenvalue problem by standard ScaLAPACK.
  Using Cholesky factor for transformation
  Using 2-stage real ELPA solver
  K-Point:    1, Trafo times: 1-stage=     0.021 s, 2-stage=     0.019 s ==> Using 2-stage solver
  Determining occupation numbers for Kohn-Sham eigenstates.
  | Chemical potential (Fermi level) in eV                 : -.34269045E+01
  | Error in electron count due to remaining E_F inaccuracy: 0.00000000E+00
  | Maximum occupation number of highest empty state:  0.00E+00

  Writing Kohn-Sham eigenvalues.

  State    Occupation    Eigenvalue [Ha]    Eigenvalue [eV]
      1       2.00000         -18.631213         -506.98109
      2       2.00000         -18.619600         -506.66509
      3       2.00000         -18.595530         -506.01013
      4       2.00000         -14.004857         -381.09156
      5       2.00000         -13.970636         -380.16035
      6       2.00000         -13.967268         -380.06869
      7       2.00000         -10.061627         -273.79081
      8       2.00000         -10.043593         -273.30006
      9       2.00000         -10.038184         -273.15289
     10       2.00000          -9.963163         -271.11146
     11       2.00000          -9.946256         -270.65140
     12       2.00000          -9.876044         -268.74083
     13       2.00000          -9.855807         -268.19015
     14       2.00000          -9.826894         -267.40340
     15       2.00000          -9.825522         -267.36607
     16       2.00000          -0.968390          -26.35125
     17       2.00000          -0.953686          -25.95113
     18       2.00000          -0.941615          -25.62264
     19       2.00000          -0.874262          -23.78989
     20       2.00000          -0.851027          -23.15763
     21       2.00000          -0.837417          -22.78729
     22       2.00000          -0.743832          -20.24069
     23       2.00000          -0.710957          -19.34612
     24       2.00000          -0.689598          -18.76490
     25       2.00000          -0.657700          -17.89693
     26       2.00000          -0.625356          -17.01680
     27       2.00000          -0.612799          -16.67512
     28       2.00000          -0.574275          -15.62683
     29       2.00000          -0.552816          -15.04290
     30       2.00000          -0.519548          -14.13762
     31       2.00000          -0.512027          -13.93297
     32       2.00000          -0.490867          -13.35718
     33       2.00000          -0.452315          -12.30810
     34       2.00000          -0.451377          -12.28259
     35       2.00000          -0.439545          -11.96063
     36       2.00000          -0.433134          -11.78619
     37       2.00000          -0.425443          -11.57689
     38       2.00000          -0.414576          -11.28119
     39       2.00000          -0.406263          -11.05498
     40       2.00000          -0.399790          -10.87884
     41       2.00000          -0.394300          -10.72944
     42       2.00000          -0.382991          -10.42173
     43       2.00000          -0.377305          -10.26699
     44       2.00000          -0.374575          -10.19271
     45       2.00000          -0.367082           -9.98882
     46       2.00000          -0.356577           -9.70295
     47       2.00000          -0.353666           -9.62373
     48       2.00000          -0.346065           -9.41691
     49       2.00000          -0.342236           -9.31271
     50       2.00000          -0.339011           -9.22497
     51       2.00000          -0.326753           -8.89140
     52       2.00000          -0.324059           -8.81809
     53       2.00000          -0.250726           -6.82261
     54       2.00000          -0.228964           -6.23043
     55       2.00000          -0.223234           -6.07451
     56       2.00000          -0.212442           -5.78083
     57       2.00000          -0.205625           -5.59535
     58       2.00000          -0.193128           -5.25528
     59       0.00000          -0.054870           -1.49309
     60       0.00000          -0.042690           -1.16166
     61       0.00000          -0.039690           -1.08002
     62       0.00000          -0.031753           -0.86404
     63       0.00000          -0.016404           -0.44638
     64       0.00000          -0.009144           -0.24882
     65       0.00000          -0.000421           -0.01146
     66       0.00000           0.003542            0.09639
     67       0.00000           0.009004            0.24500
     68       0.00000           0.020196            0.54957
     69       0.00000           0.031030            0.84437
     70       0.00000           0.033216            0.90385
     71       0.00000           0.036456            0.99202
     72       0.00000           0.038120            1.03729
     73       0.00000           0.044386            1.20782
     74       0.00000           0.053860            1.46562
     75       0.00000           0.058797            1.59994
     76       0.00000           0.066885            1.82002
     77       0.00000           0.073116            1.98960
     78       0.00000           0.079027            2.15043
     79       0.00000           0.084958            2.31183
     80       0.00000           0.092371            2.51355
     81       0.00000           0.095574            2.60071
     82       0.00000           0.101106            2.75122
     83       0.00000           0.108498            2.95237
     84       0.00000           0.109781            2.98728
     85       0.00000           0.115580            3.14509
     86       0.00000           0.119264            3.24535
     87       0.00000           0.122663            3.33782
     88       0.00000           0.129179            3.51515
     89       0.00000           0.134090            3.64878
     90       0.00000           0.141177            3.84162
     91       0.00000           0.144011            3.91873
     92       0.00000           0.153669            4.18154
     93       0.00000           0.154875            4.21437
     94       0.00000           0.165621            4.50679
     95       0.00000           0.174425            4.74635
     96       0.00000           0.179409            4.88196
     97       0.00000           0.181227            4.93143
     98       0.00000           0.187658            5.10642
     99       0.00000           0.189940            5.16854
    100       0.00000           0.194188            5.28412
    101       0.00000           0.196842            5.35634
    102       0.00000           0.199911            5.43985
    103       0.00000           0.202841            5.51960
    104       0.00000           0.207791            5.65428
    105       0.00000           0.213397            5.80682
    106       0.00000           0.219265            5.96650
    107       0.00000           0.221780            6.03494
    108       0.00000           0.227218            6.18293
    109       0.00000           0.236050            6.42325
    110       0.00000           0.237553            6.46414
    111       0.00000           0.242775            6.60626
    112       0.00000           0.246044            6.69521
    113       0.00000           0.249164            6.78010
    114       0.00000           0.251781            6.85131
    115       0.00000           0.263153            7.16077
    116       0.00000           0.263795            7.17821
    117       0.00000           0.268787            7.31406
    118       0.00000           0.272209            7.40718
    119       0.00000           0.283893            7.72513
    120       0.00000           0.287407            7.82074
    121       0.00000           0.294492            8.01353
    122       0.00000           0.297165            8.08627
    123       0.00000           0.308058            8.38269
    124       0.00000           0.316724            8.61849
    125       0.00000           0.323582            8.80512
    126       0.00000           0.329391            8.96318
    127       0.00000           0.330448            8.99194
    128       0.00000           0.335463            9.12841
    129       0.00000           0.343524            9.34777

  Highest occupied state (VBM) at     -5.25527657 eV
  | Occupation number:      2.00000000

  Lowest unoccupied state (CBM) at    -1.49308656 eV
  | Occupation number:      0.00000000

  Overall HOMO-LUMO gap:      3.76219001 eV.

  Total energy components:
  | Sum of eigenvalues            :        -416.72710204 Ha      -11339.72140509 eV
  | XC energy correction          :        -100.74355359 Ha       -2741.37157269 eV
  | XC potential correction       :         129.51562262 Ha        3524.29940594 eV
  | Free-atom electrostatic energy:        -333.66802283 Ha       -9079.56886466 eV
  | Hartree energy correction     :         -21.08885951 Ha        -573.85706491 eV
  | vdW energy correction         :           0.00000000 Ha           0.00000000 eV
  | Entropy correction            :           0.00000000 Ha           0.00000000 eV
  | ---------------------------
  | Total energy                  :        -742.71191535 Ha      -20210.21950141 eV
  | Total energy, T -> 0          :        -742.71191535 Ha      -20210.21950141 eV  <-- do not rely on this value for anything but (periodic) metals
  | Electronic free energy        :        -742.71191535 Ha      -20210.21950141 eV

  Derived energy quantities:
  | Kinetic energy                :         743.98943884 Ha       20244.98268408 eV
  | Electrostatic energy          :       -1385.95780060 Ha      -37713.83061280 eV
  | Energy correction for multipole
  | error in Hartree potential    :          -0.04166545 Ha          -1.13377461 eV
  | Sum of eigenvalues per atom                           :        -354.36629391 eV
  | Total energy (T->0) per atom                          :        -631.56935942 eV  <-- do not rely on this value for anything but (periodic) metals
  | Electronic free energy per atom                       :        -631.56935942 eV

  Self-consistency convergence accuracy:
  | Change of charge density      :  0.9016E+00
  | Change of sum of eigenvalues  :  0.5738E+03 eV
  | Change of total energy        :  0.1557E+02 eV

  End self-consistency iteration #     1       :  max(cpu_time)    wall_clock(cpu1)
  | Time for this iteration                    :        1.508 s           1.508 s
  | Charge density update                      :        0.480 s           0.478 s
[...]
   ----------------------------------------------------------------
   Total forces(  20)            : -0.367965E-02  0.160898E-02 -0.173345E-02
  atom #   21
   Hellmann-Feynman              : -0.385822E-01 -0.121360E-03  0.195199E-01
   Ionic forces                  :  0.000000E+00  0.000000E+00  0.000000E+00
   Multipole                     :  0.658890E-02  0.314767E-01  0.209351E-01
   Pulay + GGA                   :  0.233945E-01 -0.439004E-01 -0.418093E-01
   Van der Waals                 :  0.624257E-02  0.136695E-01  0.239826E-02
   ----------------------------------------------------------------
   Total forces(  21)            : -0.235623E-02  0.112443E-02  0.104393E-02
  atom #   22
   Hellmann-Feynman              : -0.540096E-01 -0.148990E-01  0.234675E-02
   Ionic forces                  :  0.000000E+00  0.000000E+00  0.000000E+00
   Multipole                     : -0.573648E-02  0.173599E-01  0.139480E-01
   Pulay + GGA                   :  0.663962E-01  0.431318E-02 -0.169536E-01
   Van der Waals                 : -0.790021E-02 -0.663612E-02  0.720825E-03
   ----------------------------------------------------------------
   Total forces(  22)            : -0.125012E-02  0.138015E-03  0.619867E-04
  atom #   23
   Hellmann-Feynman              : -0.310274E+00  0.895889E+00 -0.506026E+00
   Ionic forces                  :  0.000000E+00  0.000000E+00  0.000000E+00
   Multipole                     :  0.107055E+00 -0.357023E+00  0.184338E+00
   Pulay + GGA                   :  0.175200E+00 -0.547537E+00  0.348689E+00
   Van der Waals                 :  0.276303E-01  0.768317E-02 -0.272402E-01
   ----------------------------------------------------------------
   Total forces(  23)            : -0.388941E-03 -0.987836E-03 -0.239272E-03
  atom #   24
   Hellmann-Feynman              : -0.784414E-02 -0.450586E-01  0.510917E-01
   Ionic forces                  :  0.000000E+00  0.000000E+00  0.000000E+00
   Multipole                     : -0.168166E-01  0.316508E-01 -0.735110E-03
   Pulay + GGA                   :  0.309363E-01  0.147474E-01 -0.522863E-01
   Van der Waals                 : -0.607706E-02 -0.162323E-02  0.223880E-02
   ----------------------------------------------------------------
   Total forces(  24)            :  0.198475E-03 -0.283637E-03  0.309020E-03
  atom #   25
   Hellmann-Feynman              :  0.204326E-02 -0.536547E-01 -0.536167E-02
   Ionic forces                  :  0.000000E+00  0.000000E+00  0.000000E+00
   Multipole                     : -0.207983E-01  0.674541E-02 -0.231544E-01
   Pulay + GGA                   :  0.173053E-01  0.430410E-01  0.357639E-01
   Van der Waals                 :  0.116260E-02  0.380796E-02 -0.826339E-02
   ----------------------------------------------------------------
   Total forces(  25)            : -0.287138E-03 -0.603600E-04 -0.101560E-02
  atom #   26
   Hellmann-Feynman              :  0.164440E-01 -0.486018E-01  0.101055E-01
   Ionic forces                  :  0.000000E+00  0.000000E+00  0.000000E+00
   Multipole                     :  0.224350E-01  0.901072E-02  0.456162E-02
   Pulay + GGA                   : -0.449785E-01  0.266342E-01 -0.430744E-02
   Van der Waals                 :  0.743073E-02  0.130748E-01 -0.104260E-01
   ----------------------------------------------------------------
   Total forces(  26)            :  0.133130E-02  0.117865E-03 -0.663489E-04
  atom #   27
   Hellmann-Feynman              :  0.211824E+01  0.305643E+00  0.527154E+00
   Ionic forces                  :  0.000000E+00  0.000000E+00  0.000000E+00
   Multipole                     :  0.133540E+00 -0.148621E+00  0.187670E-02
   Pulay + GGA                   : -0.224610E+01 -0.142626E+00 -0.517312E+00
   Van der Waals                 : -0.250287E-02 -0.112429E-01 -0.942229E-02
   ----------------------------------------------------------------
   Total forces(  27)            :  0.318262E-02  0.315379E-02  0.229618E-02
  atom #   28
   Hellmann-Feynman              : -0.188985E+01  0.143942E+01 -0.714742E+00
   Ionic forces                  :  0.000000E+00  0.000000E+00  0.000000E+00
   Multipole                     :  0.121117E+00 -0.133960E+00  0.287319E-01
   Pulay + GGA                   :  0.178035E+01 -0.130117E+01  0.664940E+00
   Van der Waals                 : -0.131724E-01 -0.387759E-02  0.197760E-01
   ----------------------------------------------------------------
   Total forces(  28)            : -0.155213E-02  0.408234E-03 -0.129377E-02
  atom #   29
   Hellmann-Feynman              :  0.293525E-01 -0.292859E-01 -0.710000E-01
   Ionic forces                  :  0.000000E+00  0.000000E+00  0.000000E+00
   Multipole                     : -0.233932E-01  0.391684E-01  0.128630E-01
   Pulay + GGA                   : -0.924296E-02 -0.114367E-01  0.665864E-01
   Van der Waals                 :  0.235112E-02  0.407896E-03 -0.984353E-02
   ----------------------------------------------------------------
   Total forces(  29)            : -0.932581E-03 -0.114633E-02 -0.139416E-02
  atom #   30
   Hellmann-Feynman              :  0.311352E-01 -0.499731E-01  0.276370E-01
   Ionic forces                  :  0.000000E+00  0.000000E+00  0.000000E+00
   Multipole                     :  0.990513E-02  0.328690E-01  0.107928E-01
   Pulay + GGA                   : -0.311052E-01  0.186572E-01 -0.389275E-01
   Van der Waals                 : -0.870335E-02 -0.615457E-03  0.147490E-02
   ----------------------------------------------------------------
   Total forces(  30)            :  0.123185E-02  0.937638E-03  0.977178E-03
  atom #   31
   Hellmann-Feynman              :  0.478018E-01 -0.288931E-01 -0.226830E-01
   Ionic forces                  :  0.000000E+00  0.000000E+00  0.000000E+00
   Multipole                     : -0.143472E-01  0.255877E-01 -0.270177E-01
   Pulay + GGA                   : -0.361850E-01  0.609515E-02  0.560477E-01
   Van der Waals                 :  0.341966E-02 -0.253458E-02 -0.683154E-02
   ----------------------------------------------------------------
   Total forces(  31)            :  0.689305E-03  0.255223E-03 -0.484515E-03
  atom #   32
   Hellmann-Feynman              :  0.129770E-01 -0.497465E-01  0.118520E-01
   Ionic forces                  :  0.000000E+00  0.000000E+00  0.000000E+00
   Multipole                     : -0.211445E-01 -0.166361E-01 -0.767056E-02
   Pulay + GGA                   :  0.132014E-01  0.660457E-01 -0.129365E-01
   Van der Waals                 : -0.543075E-02 -0.900886E-03  0.952042E-02
   ----------------------------------------------------------------
   Total forces(  32)            : -0.396795E-03 -0.123780E-02  0.765341E-03

  Timings for VdW correction (Tkatchenko-Scheffler 2009 or later):
  | CPU time:        0.124 s, Wall clock time:        0.121 s.
  Removing unitary transformations (pure translations, rotations) from forces on atoms.
  Atomic forces before filtering:
  | Net force on center of mass :   0.366479E-03 -0.171501E-03 -0.493434E-03 eV/A
  | Net torque on center of mass:   0.182943E-02  0.183974E-02 -0.255497E-02 eV
  Atomic forces after filtering:
  | Net force on center of mass :   0.348449E-18  0.000000E+00 -0.139380E-17 eV/A
  | Net torque on center of mass:   0.663809E-17 -0.118011E-16 -0.553175E-18 eV

  Energy and forces in a compact form:
  | Total energy uncorrected      :         -0.202085905078542E+05 eV
  | Total energy corrected        :         -0.202085905078542E+05 eV  <-- do not rely on this value for anything but (periodic) metals
  | Electronic free energy        :         -0.202085905078542E+05 eV
  Total atomic forces (unitary forces cleaned) [eV/Ang]:
  |   1         -0.208328853097161E-03          0.592331186328160E-03          0.219411552705932E-03
  |   2         -0.112059060298177E-02          0.921647082110010E-03          0.341029211459420E-02
  |   3         -0.294115629347364E-02          0.304710739786901E-03         -0.204476453288392E-02
  |   4          0.478974687790682E-03         -0.544375453891106E-03         -0.501576104883018E-03
  |   5          0.386551340557639E-03          0.805147626574838E-03          0.256764426470358E-03
  |   6         -0.665761593474255E-03          0.176282562513725E-03          0.986965437474371E-04
  |   7          0.267917068114769E-02         -0.147433316471696E-02         -0.381369036403330E-02
  |   8         -0.820314372465510E-03         -0.168964487567303E-02         -0.279274882670896E-03
  |   9          0.189796838446550E-02          0.705219049642229E-03          0.364353414615496E-02
  |  10          0.168912804661735E-02         -0.815341572476158E-03         -0.205812616137373E-02
  |  11          0.219924117772485E-03         -0.276551033738235E-03          0.199042855293536E-02
  |  12          0.133036210010770E-02         -0.342039315128770E-03          0.437918520497925E-03
  |  13          0.102786243143328E-02          0.138883224045223E-02         -0.511499116705582E-03
  |  14          0.831441990082500E-04          0.369922024557987E-03         -0.344267173403049E-03
  |  15          0.146026740602866E-03         -0.150674580742610E-02         -0.471878509619760E-03
  |  16         -0.809719449351769E-03         -0.770989673160737E-03         -0.273309521315200E-03
  |  17         -0.143532931761298E-02         -0.122918936899125E-02          0.216377708362189E-04
  |  18          0.791670407460838E-03          0.147879634619640E-02          0.824079184107599E-03
  |  19          0.203193845737869E-02         -0.239215342976959E-02          0.132054245309274E-03
  |  20         -0.369454377182087E-02          0.165254965547765E-02         -0.171343861899500E-02
  |  21         -0.235921028377080E-02          0.114335986896059E-02          0.106570961804151E-02
  |  22         -0.127700313138196E-02          0.179837780200358E-03          0.758668927872001E-04
  |  23         -0.436844402670968E-03         -0.967844107184959E-03         -0.239224952822214E-03
  |  24          0.151127351061159E-03         -0.263105539668145E-03          0.309425748880252E-03
  |  25         -0.346974728518093E-03         -0.299490117069672E-04         -0.101966256595537E-02
  |  26          0.128085495075707E-02          0.122074770447490E-03         -0.701317930374881E-04
  |  27          0.314236721879406E-02          0.318088196109658E-02          0.230111679197926E-02
  |  28         -0.160556466645656E-02          0.419134790267698E-03         -0.129791234485742E-02
  |  29         -0.969592277966422E-03         -0.111347222460846E-02         -0.138669053999679E-02
  |  30          0.118469764134456E-02          0.934539936963251E-03          0.973799457701108E-03
  |  31          0.632774853895910E-03          0.262413012572921E-03         -0.490776275361722E-03
  |  32         -0.463609865152976E-03         -0.122194605600854E-02          0.755487891165876E-03

  ------------------------------------ 
  Start decomposition of the XC Energy 
  ------------------------------------ 
  Hartree-Fock part   :          0.000000000 Ha              0.000000000 eV
  ------------------------------------ 
  X Energy            :        -96.984987258 Ha          -2639.095779010 eV
  C Energy GGA        :         -3.869155428 Ha           -105.285076046 eV
  Total XC Energy     :       -100.854142686 Ha          -2744.380855056 eV
  LDA X and C from self-consistent density 
  X Energy LDA        :        -88.002753081 Ha          -2394.676751138 eV
  C Energy LDA        :         -7.532329819 Ha           -204.965122887 eV
  ------------------------------------ 
  End decomposition of the XC Energy 
  ------------------------------------ 
   
  ESP charge fitting starts.
  | Calculation :  00000001  of  00000001
  | Full density
  Computing multipole expansion for total density.
  Generating points for esp charges.
  Partitioning the integration grid into batches with parallel hashing+maxmin method.
  | Number of batches:     3911
  | Maximal batch size:     188
  | Minimal batch size:      52
  | Average batch size:     124.386
  | Standard deviation of batch sizes:      15.046

  Integration load balanced across    32 MPI tasks.
  Work distribution over tasks is as follows:
  Initializing partition tables, free-atom densities, potentials, etc. across the integration grid (initialize_grid_storage).
  | Original list of interatomic distances with          32 x         32 entries is created.
  | Net number of integration points:   486475
  | of which are non-zero points    :   486475
  Summing up potential from multipole expanded  density.
  Summing up the Hartree potential.
  Time summed over all CPUs for potential: real work        6.361 s, elapsed        6.622 s
  Fitting esp charges to potential.
  |
  | ESP charges fitted to the electrostatic potential :
  |
  | Atom         1: C, ESP charge:      0.75816290
  |
  | Atom         2: C, ESP charge:     -0.78122302
  |
  | Atom         3: O, ESP charge:      0.53100507
  |
  | Atom         4: H, ESP charge:     -0.19077429
  |
  | Atom         5: H, ESP charge:     -0.22636416
  |
  | Atom         6: H, ESP charge:     -0.21410473
  |
  | Atom         7: N, ESP charge:      0.83535728
  |
  | Atom         8: C, ESP charge:     -0.79487011
  |
  | Atom         9: C, ESP charge:      0.15325167
  |
  | Atom        10: O, ESP charge:      0.43281719
  |
  | Atom        11: H, ESP charge:     -0.37308389
  |
  | Atom        12: H, ESP charge:      0.01424497
  |
  | Atom        13: C, ESP charge:      0.94915317
  |
  | Atom        14: H, ESP charge:     -0.22025024
  |
  | Atom        15: H, ESP charge:     -0.25392044
  |
  | Atom        16: H, ESP charge:     -0.28908782
  |
  | Atom        17: N, ESP charge:     -0.53226819
  |
  | Atom        18: C, ESP charge:      0.12247591
  |
  | Atom        19: C, ESP charge:     -0.44760836
  |
  | Atom        20: O, ESP charge:      0.57086249
  |
  | Atom        21: H, ESP charge:      0.09355642
  |
  | Atom        22: H, ESP charge:     -0.18690514
  |
  | Atom        23: C, ESP charge:      0.80901997
  |
  | Atom        24: H, ESP charge:     -0.17792310
  |
  | Atom        25: H, ESP charge:     -0.26520591
  |
  | Atom        26: H, ESP charge:     -0.25334201
  |
  | Atom        27: N, ESP charge:      0.34835050
  |
  | Atom        28: C, ESP charge:      0.23035738
  |
  | Atom        29: H, ESP charge:     -0.30949537
  |
  | Atom        30: H, ESP charge:     -0.12925604
  |
  | Atom        31: H, ESP charge:     -0.13110156
  |
  | Atom        32: H, ESP charge:     -0.07183052

  RRMS:       0.00527802

  Done.

------------------------------------------------------------------------------
  Final output of selected total energy values:

  The following output summarizes some interesting total energy values
  at the end of a run (AFTER all relaxation, molecular dynamics, etc.).

  | Total energy of the DFT / Hartree-Fock s.c.f. calculation      :         -20208.590507854 eV
  | Final zero-broadening corrected energy (caution - metals only) :         -20208.590507854 eV
  | For reference only, the value of 1 Hartree used in FHI-aims is :             27.211384500 eV

  Before relying on these values, please be sure to understand exactly which
  total energy value is referred to by a given number. Different objects may
  all carry the same name 'total energy'. Definitions:

  Total energy of the DFT / Hartree-Fock s.c.f. calculation:
  | Note that this energy does not include ANY quantities calculated after the
  | s.c.f. cycle, in particular not ANY RPA, MP2, etc. many-body perturbation terms.

  Final zero-broadening corrected energy:
  | For metallic systems only, a broadening of the occupation numbers at the Fermi
  | level can be extrapolated back to zero broadening by an electron-gas inspired
  | formula. For all systems that are not real metals, this value can be
  | meaningless and should be avoided.

------------------------------------------------------------------------------
  Methods described in the following list of references were used in this FHI-aims run.
  If you publish the results, please make sure to cite these reference if they apply.
  FHI-aims is an academic code, and for our developers (often, Ph.D. students
  and postdocs), scientific credit in the community is essential.
  Thank you for helping us!

  For any use of FHI-aims, please cite:

    Volker Blum, Ralf Gehrke, Felix Hanke, Paula Havu, Ville Havu,
    Xinguo Ren, Karsten Reuter, and Matthias Scheffler
    'Ab initio molecular simulations with numeric atom-centered orbitals'
    Computer Physics Communications 180, 2175-2196 (2009)
    http://dx.doi.org/10.1016/j.cpc.2009.06.022


  The scalable eigensolver library ELPA was used in your run.
  ELPA is essential especially for large systems on hundreds or thousands of CPUs.
  For ELPA, please cite:

    Andreas Marek, Volker Blum, Rainer Johanni, Ville Havu, Bruno Lang,
    Thomas Auckenthaler, Alexander Heinecke, Hans-Joachim Bungartz, and Hermann Lederer,
    'The ELPA Library - Scalable Parallel Eigenvalue Solutions
    for Electronic Structure Theory and Computational Science'
    The Journal of Physics: Condensed Matter 26, 213201 (2014).
    http://dx.doi.org/10.1088/0953-8984/26/21/213201


  For ELPA's efficient two-stage tridiagonalization used in your run, please cite:

    T. Auckenthaler, V. Blum, H.-J. Bungartz, T. Huckle, R. Johanni, L. Kraemer,
    B. Lang, H. Lederer, and P. R. Willems,
    'Parallel solution of partial symmetric eigenvalue problems'
    'from  electronic structure calculations'
    Parallel Computing 37, 783-794 (2011).
    http://dx.doi.org/10.1016/j.parco.2011.05.002


  For the real-space grid partitioning and parallelization used in this calculation, please cite:

    Ville Havu, Volker Blum, Paula Havu, and Matthias Scheffler,
    'Efficient O(N) integration for all-electron electronic structure calculation'
    'using numerically tabulated basis functions'
    Journal of Computational Physics 228, 8367-8379 (2009).
    http://dx.doi.org/10.1016/j.jcp.2009.08.008

  Of course, there are many other important community references, e.g., those cited in the
  above references. Our list is limited to references that describe implementations in the
  FHI-aims code. The reason is purely practical (length of this list) - please credit others as well.

------------------------------------------------------------
          Leaving FHI-aims.
          Date     :  20170309, Time     :  190141.006

          Computational steps:
          | Number of self-consistency cycles          :           14

          Detailed time accounting                     :  max(cpu_time)    wall_clock(cpu1)
          | Total time                                 :       30.122 s          30.294 s
          | Preparation time                           :        0.244 s           0.240 s
          | Grid partitioning                          :        0.296 s           0.292 s
          | Preloading free-atom quantities on grid    :        0.028 s           0.028 s
          | Free-atom superposition energy             :        0.040 s           0.038 s
          | Total time for integrations                :       10.653 s          10.642 s
          | Total time for solution of K.-S. equations :        0.536 s           0.497 s
          | Total time for density & force components  :        9.557 s           9.533 s
          | Total time for mixing                      :        0.124 s           0.105 s
          | Total time for Hartree multipole update    :        0.056 s           0.057 s
          | Total time for Hartree multipole sum       :        6.464 s           6.453 s
          | Total time for total energy evaluation     :        0.028 s           0.017 s
          | Total time for vdW correction              :        0.124 s           0.121 s

          Have a nice day.
------------------------------------------------------------
