  MPI-parallelism will be employed.
------------------------------------------------------------
          Invoking FHI-aims ...
          Version 150427
          Git rev.: 9dd23e0 BL: Update Version stamp
          Compiled on 2015/11/03 at 22:05:20 on host eos03.

          When using FHI-aims, please cite the following reference:

          Volker Blum, Ralf Gehrke, Felix Hanke, Paula Havu,
          Ville Havu, Xinguo Ren, Karsten Reuter, and Matthias Scheffler,
          'Ab Initio Molecular Simulations with Numeric Atom-Centered Orbitals: FHI-aims',
          Computer Physics Communications 180, 2175-2196 (2009)

          For any questions about FHI-aims, please visit the aimsclub website
          with its forums and wiki. Contributions to both the forums and the
          wiki are warmly encouraged - they are for you, and everyone is welcome there.

------------------------------------------------------------

  Date     :  20170309, Time     :  181655.596
  Time zero on CPU 1             :   0.388024000000000E+00  s.
  Internal wall clock time zero  :           258315415.596  s.

  Using       32 parallel tasks.
  Task        0 on host eos026 reporting.
  Task        1 on host eos026 reporting.
  Task        2 on host eos026 reporting.
  Task        3 on host eos026 reporting.
  Task        4 on host eos026 reporting.
  Task        5 on host eos026 reporting.
  Task        6 on host eos026 reporting.
  Task        7 on host eos026 reporting.
  Task        8 on host eos026 reporting.
  Task        9 on host eos026 reporting.
  Task       10 on host eos026 reporting.
  Task       11 on host eos026 reporting.
  Task       12 on host eos026 reporting.
  Task       13 on host eos026 reporting.
  Task       14 on host eos026 reporting.
  Task       15 on host eos026 reporting.
  Task       16 on host eos026 reporting.
  Task       17 on host eos026 reporting.
  Task       18 on host eos026 reporting.
  Task       19 on host eos026 reporting.
  Task       20 on host eos026 reporting.
  Task       21 on host eos026 reporting.
  Task       22 on host eos026 reporting.
  Task       23 on host eos026 reporting.
  Task       24 on host eos026 reporting.
  Task       25 on host eos026 reporting.
  Task       26 on host eos026 reporting.
  Task       27 on host eos026 reporting.
  Task       28 on host eos026 reporting.
  Task       29 on host eos026 reporting.
  Task       30 on host eos026 reporting.
  Task       31 on host eos026 reporting.

  Performing system and environment tests:
  | Environment variable OMP_NUM_THREADS correctly set to 1.
  | Stacksize not measured: no C compiler
  | Checking for scalapack...
  | Testing pdtran()...
  | All pdtran() tests passed.

  Obtaining array dimensions for all initial allocations:
  
  -----------------------------------------------------------------------
  Parsing control.in (first pass over file, find array dimensions only).
  The contents of control.in will be repeated verbatim below
  unless switched off by setting 'verbatim_writeout .false.' .
  in the first line of control.in .
  -----------------------------------------------------------------------
  
  #########################################################################################
  #
  # Input for System
  #
  #########################################################################################
  #
  #
  #  Physical model
  #
    xc                 pbe
    vdw_correction_hirshfeld
    spin               none
    charge             0.
  #
  #  SCF convergence
  #
    occupation_type    gaussian 0.05
    mixer              pulay
      n_max_pulay        10
      charge_mix_param   0.5
    sc_accuracy_rho    1E-4
    sc_accuracy_eev    1E-2
    sc_accuracy_etot   1E-5
    sc_accuracy_forces 1E-4
    sc_iter_limit      1000
  #
  #  ESP charge
  #
    output esp
    esp equal_grid_n 80 80 80
  #
  #
  ################################################################################
  #
  #  FHI-aims code project
  # Volker Blum, Fritz Haber Institute Berlin, 2009
  #
  #  Suggested "tight" defaults for H atom (to be pasted into control.in file)
  #
  ################################################################################
    species        H
  #     global species definitions
      nucleus             1
      mass                1.00794
  #
      l_hartree           6
  #
      cut_pot             4.0  2.0  1.0
      basis_dep_cutoff    1e-4
  #
      radial_base         24 7.0
      radial_multiplier   2
      angular_grids       specified
        division   0.1930   50
        division   0.3175  110
        division   0.4293  194
        division   0.5066  302
        division   0.5626  434
  #      division   0.5922  590
  #      division   0.6227  974
  #      division   0.6868 1202
  #      outer_grid  770
        outer_grid  434
  ################################################################################
  #
  #  Definition of "minimal" basis
  #
  ################################################################################
  #     valence basis states
      valence      1  s   1.
  #     ion occupancy
      ion_occ      1  s   0.5
  ################################################################################
  #
  #  Suggested additional basis functions. For production calculations,
  #  uncomment them one after another (the most important basis functions are
  #  listed first).
  #
  #  Basis constructed for dimers: 0.5 A, 0.7 A, 1.0 A, 1.5 A, 2.5 A
  #
  ################################################################################
  #  "First tier" - improvements: -1014.90 meV to -62.69 meV
       hydro 2 s 2.1
       hydro 2 p 3.5
  #  "Second tier" - improvements: -12.89 meV to -1.83 meV
       hydro 1 s 0.85
       hydro 2 p 3.7
       hydro 2 s 1.2
       hydro 3 d 7
  #  "Third tier" - improvements: -0.25 meV to -0.12 meV
  #     hydro 4 f 11.2
  #     hydro 3 p 4.8
  #     hydro 4 d 9
  #     hydro 3 s 3.2
  ################################################################################
  #
  # For methods that use the localized form of the "resolution of identity" for
  # the two-electron Coulomb operator (RI_method LVL), particularly Hartree-Fock and
  # hybrid density functional calculations, the highest accuracy can be obtained by
  # uncommenting the line beginning with "for_aux"  below, thus adding an extra g radial
  # function to the construction of the product basis set for the expansion.
  # See Ref. New J. Phys. 17, 093020 (2015) for more information, particularly Figs. 1 and 6.
  #
  ################################################################################
  #
  # for_aux hydro 5 g 6.0
  ################################################################################
  #
  #  FHI-aims code project
  # Volker Blum, Fritz Haber Institute Berlin, 2009
  #
  #  Suggested "tight" defaults for C atom (to be pasted into control.in file)
  #
  ################################################################################
    species        C
  #     global species definitions
      nucleus             6
      mass                12.0107
  #
      l_hartree           6
  #
      cut_pot             4.0  2.0  1.0
      basis_dep_cutoff    1e-4
  #
      radial_base         34 7.0
      radial_multiplier   2
      angular_grids specified
        division   0.2187   50
        division   0.4416  110
        division   0.6335  194
        division   0.7727  302
        division   0.8772  434
  #      division   0.9334  590
  #      division   0.9924  770
  #      division   1.0230  974
  #      division   1.5020 1202
  #     outer_grid  974
        outer_grid  434
  ################################################################################
  #
  #  Definition of "minimal" basis
  #
  ################################################################################
  #     valence basis states
      valence      2  s   2.
      valence      2  p   2.
  #     ion occupancy
      ion_occ      2  s   1.
      ion_occ      2  p   1.
  ################################################################################
  #
  #  Suggested additional basis functions. For production calculations,
  #  uncomment them one after another (the most important basis functions are
  #  listed first).
  #
  #  Constructed for dimers: 1.0 A, 1.25 A, 1.5 A, 2.0 A, 3.0 A
  #
  ################################################################################
  #  "First tier" - improvements: -1214.57 meV to -155.61 meV
       hydro 2 p 1.7
       hydro 3 d 6
       hydro 2 s 4.9
  #  "Second tier" - improvements: -67.75 meV to -5.23 meV
       hydro 4 f 9.8
       hydro 3 p 5.2
       hydro 3 s 4.3
       hydro 5 g 14.4
       hydro 3 d 6.2
  #  "Third tier" - improvements: -2.43 meV to -0.60 meV
  #     hydro 2 p 5.6
  #     hydro 2 s 1.4
  #     hydro 3 d 4.9
  #     hydro 4 f 11.2
  #  "Fourth tier" - improvements: -0.39 meV to -0.18 meV
  #     hydro 2 p 2.1
  #     hydro 5 g 16.4
  #     hydro 4 d 13.2
  #     hydro 3 s 13.6
  #     hydro 4 f 17.6
  #  Further basis functions - improvements: -0.08 meV and below
  #     hydro 3 s 2
  #     hydro 3 p 6
  #     hydro 4 d 20
  ################################################################################
  #
  # For methods that use the localized form of the "resolution of identity" for
  # the two-electron Coulomb operator (RI_method LVL), particularly Hartree-Fock and
  # hybrid density functional calculations, the highest accuracy can be obtained by
  # uncommenting the line beginning with "for_aux"  below, thus adding an extra g radial
  # function to the construction of the product basis set for the expansion.
  # See Ref. New J. Phys. 17, 093020 (2015) for more information, particularly Figs. 1 and 6.
  #
  ################################################################################
  #
  # for_aux hydro 5 g 6.0
  ################################################################################
  #
  #  FHI-aims code project
  # Volker Blum, Fritz Haber Institute Berlin, 2009
  #
  #  Suggested "tight" defaults for N atom (to be pasted into control.in file)
  #
  ################################################################################
    species        N
  #     global species definitions
      nucleus             7
      mass                14.0067
  #
      l_hartree           6
  #
      cut_pot             4.0  2.0  1.0
      basis_dep_cutoff    1e-4
  #
      radial_base         35 7.0
      radial_multiplier   2
      angular_grids       specified
        division   0.1841   50
        division   0.3514  110
        division   0.5126  194
        division   0.6292  302
        division   0.6939  434
  #      division   0.7396  590
  #      division   0.7632  770
  #      division   0.8122  974
  #      division   1.1604 1202
  #      outer_grid  974
        outer_grid  434
  ################################################################################
  #
  #  Definition of "minimal" basis
  #
  ################################################################################
  #     valence basis states
      valence      2  s   2.
      valence      2  p   3.
  #     ion occupancy
      ion_occ      2  s   1.
      ion_occ      2  p   2.
  ################################################################################
  #
  #  Suggested additional basis functions. For production calculations,
  #  uncomment them one after another (the most important basis functions are
  #  listed first).
  #
  #  Constructed for dimers: 1.0 A, 1.1 A, 1.5 A, 2.0 A, 3.0 A
  #
  ################################################################################
  #  "First tier" - improvements: -1193.42 meV to -220.60 meV
       hydro 2 p 1.8
       hydro 3 d 6.8
       hydro 3 s 5.8
  #  "Second tier" - improvements: -80.21 meV to -6.86 meV
       hydro 4 f 10.8
       hydro 3 p 5.8
       hydro 1 s 0.8
       hydro 5 g 16
       hydro 3 d 4.9
  #  "Third tier" - improvements: -4.29 meV to -0.53 meV
  #     hydro 3 s 16
  #     ionic 2 p auto
  #     hydro 3 d 6.6
  #     hydro 4 f 11.6
  #  "Fourth tier" - improvements: -0.75 meV to -0.25 meV
  #     hydro 2 p 4.5
  #     hydro 2 s 2.4
  #     hydro 5 g 14.4
  #     hydro 4 d 14.4
  #     hydro 4 f 16.8
  # Further basis functions - -0.21 meV and below
  #     hydro 3 p 14.8
  #     hydro 3 s 4.4
  #     hydro 3 d 19.6
  #     hydro 5 g 12.8
  ################################################################################
  #
  # For methods that use the localized form of the "resolution of identity" for
  # the two-electron Coulomb operator (RI_method LVL), particularly Hartree-Fock and
  # hybrid density functional calculations, the highest accuracy can be obtained by
  # uncommenting the line beginning with "for_aux"  below, thus adding an extra g radial
  # function to the construction of the product basis set for the expansion.
  # See Ref. New J. Phys. 17, 093020 (2015) for more information, particularly Figs. 1 and 6.
  #
  ################################################################################
  #
  # for_aux hydro 5 g 6.0
  ################################################################################
  #
  #  FHI-aims code project
  # Volker Blum, Fritz Haber Institute Berlin, 2009
  #
  #  Suggested "tight" defaults for O atom (to be pasted into control.in file)
  #
  ################################################################################
    species        O
  #     global species definitions
      nucleus             8
      mass                15.9994
  #
      l_hartree           6
  #
      cut_pot             4.0  2.0  1.0
      basis_dep_cutoff    1e-4
  #
      radial_base         36 7.0
      radial_multiplier   2
       angular_grids specified
        division   0.1817   50
        division   0.3417  110
        division   0.4949  194
        division   0.6251  302
        division   0.8014  434
  #      division   0.8507  590
  #      division   0.8762  770
  #      division   0.9023  974
  #      division   1.2339 1202
  #      outer_grid 974
        outer_grid  434
  ################################################################################
  #
  #  Definition of "minimal" basis
  #
  ################################################################################
  #     valence basis states
      valence      2  s   2.
      valence      2  p   4.
  #     ion occupancy
      ion_occ      2  s   1.
      ion_occ      2  p   3.
  ################################################################################
  #
  #  Suggested additional basis functions. For production calculations,
  #  uncomment them one after another (the most important basis functions are
  #  listed first).
  #
  #  Constructed for dimers: 1.0 A, 1.208 A, 1.5 A, 2.0 A, 3.0 A
  #
  ################################################################################
  #  "First tier" - improvements: -699.05 meV to -159.38 meV
       hydro 2 p 1.8
       hydro 3 d 7.6
       hydro 3 s 6.4
  #  "Second tier" - improvements: -49.91 meV to -5.39 meV
       hydro 4 f 11.6
       hydro 3 p 6.2
       hydro 3 d 5.6
       hydro 5 g 17.6
       hydro 1 s 0.75
  #  "Third tier" - improvements: -2.83 meV to -0.50 meV
  #     ionic 2 p auto
  #     hydro 4 f 10.8
  #     hydro 4 d 4.7
  #     hydro 2 s 6.8
  #  "Fourth tier" - improvements: -0.40 meV to -0.12 meV
  #     hydro 3 p 5
  #     hydro 3 s 3.3
  #     hydro 5 g 15.6
  #     hydro 4 f 17.6
  #     hydro 4 d 14
  # Further basis functions - -0.08 meV and below
  #     hydro 3 s 2.1
  #     hydro 4 d 11.6
  #     hydro 3 p 16
  #     hydro 2 s 17.2
  ################################################################################
  #
  # For methods that use the localized form of the "resolution of identity" for
  # the two-electron Coulomb operator (RI_method LVL), particularly Hartree-Fock and
  # hybrid density functional calculations, the highest accuracy can be obtained by
  # uncommenting the line beginning with "for_aux"  below, thus adding an extra g radial
  # function to the construction of the product basis set for the expansion.
  # See Ref. New J. Phys. 17, 093020 (2015) for more information, particularly Figs. 1 and 6.
  #
  ################################################################################
  #
  # for_aux hydro 5 g 6.0
  
  -----------------------------------------------------------------------
  Completed first pass over input file control.in .
  -----------------------------------------------------------------------
  
  
  -----------------------------------------------------------------------
  Parsing geometry.in (first pass over file, find array dimensions only).
  The contents of geometry.in will be repeated verbatim below
  unless switched off by setting 'verbatim_writeout .false.' .
  in the first line of geometry.in .
  -----------------------------------------------------------------------
  
  #
  # This is the geometry file that corresponds to the current relaxation step.
  # If you do not want this file to be written, set the "write_restart_geometry" flag to .false.
  #
  atom      -1.65180062     -0.35967910     -0.35696516 C
  atom      -0.91318218      0.01896344      0.91620003 C
  atom       0.25503807      0.41342803      0.87995760 O
  atom      -1.06401740     -1.11776997     -0.88861790 H
  atom      -1.70751260      0.52481598     -1.00487973 H
  atom      -2.66598065     -0.74472963     -0.19358781 H
  atom      -1.65450684     -0.08952800      2.05891882 N
  atom      -1.27326522      0.10302052      3.46594015 C
  atom      -1.82352933      1.39552198      4.13387214 C
  atom      -2.40241836      1.28070906      5.21395834 O
  atom      -2.61330665     -0.39085205      1.92948594 H
  atom      -1.82263031     -0.67342028      4.01547649 H
  atom       0.21342932     -0.09553708      3.78480970 C
  atom       0.32086403     -0.10087236      4.87681035 H
  atom       0.85450510      0.68793183      3.37138531 H
  atom       0.56631781     -1.05796292      3.39446116 H
  atom      -1.64822025      2.61028953      3.54417550 N
  atom      -0.85613438      2.97178266      2.38304332 C
  atom       0.02371846      4.17099650      2.78223088 C
  atom      -0.34834655      4.95736349      3.65477675 O
  atom      -1.91903898      3.40391258      4.12783268 H
  atom      -0.22697845      2.12312158      2.09568161 H
  atom      -1.73698623      3.36649824      1.18331664 C
  atom      -1.12637122      3.59784737      0.30042995 H
  atom      -2.34370784      4.24828466      1.42788110 H
  atom      -2.41340020      2.54123451      0.92929210 H
  atom       1.19852861      4.34158769      2.11501710 N
  atom       1.75788454      3.55572907      1.02555541 C
  atom       1.68191652      5.19604319      2.37881072 H
  atom       2.84914728      3.51370811      1.13161914 H
  atom       1.52304554      3.99022938      0.04078473 H
  atom       1.38276195      2.52680898      1.04347996 H
  
  -----------------------------------------------------------------------
  Completed first pass over input file geometry.in .
  -----------------------------------------------------------------------
  

  Basic array size parameters:
  | Number of species                 :        4
  | Number of atoms                   :       32
  | Max. basis fn. angular momentum   :        4
  | Max. atomic/ionic basis occupied n:        2
  | Max. number of basis fn. types    :        2
  | Max. radial fns per species/type  :        8
  | Max. logarithmic grid size        :     1301
  | Max. radial integration grid size :       73
  | Max. angular integration grid size:      434
  | Max. angular grid division number :        8
  | Radial grid for Hartree potential :     1301
  | Number of spin channels           :        1

------------------------------------------------------------
          Reading file control.in.
------------------------------------------------------------
  XC: Using PBE gradient-corrected functionals.
  Spin treatment: No spin polarisation.
  Charge =   0.000000E+00: Neutral system requested explicitly.
  Occupation type: Gaussian broadening, width =   0.500000E-01 eV.
  Using pulay charge density mixing.
  Pulay mixing - number of memorized iterations:   10
  Charge density mixing - mixing parameter:     0.5000
  Convergence accuracy of self-consistent charge density:  0.1000E-03
  Convergence accuracy of sum of eigenvalues:  0.1000E-01
  Convergence accuracy of total energy:  0.1000E-04
  Convergence accuracy of forces:  0.1000E-03
  Maximum number of s.-c. iterations  :  1000
  Fitting ESP-charges to Potential. 
  | Esp charge output options: 
  | ESP Grid method: 3, cubic grid
  | Number of points in x, ,y, z:  0080 0080 0080
  |
 
  Reading configuration options for species H                   .
  | Found nuclear charge :   1.0000
  | Found atomic mass :    1.00794000000000      amu
  | Found l_max for Hartree potential  :   6
  | Found cutoff potl. onset [A], width [A], scale factor :    4.00000    2.00000    1.00000
  | Threshold for basis-dependent cutoff potential is   0.100000E-03
  | Found data for basic radial integration grid :    24 points, outermost radius =    7.000 A
  | Found multiplier for basic radial grid :   2
  | Found angular grid specification: user-specified.
  | Specified grid contains     6 separate shells.
  | Check grid settings after all constraints further below.
  | Found free-atom valence shell :  1 s   1.000
  | No ionic wave fns used. Skipping ion_occ.
  | Found hydrogenic basis function :  2 s   2.100
  | Found hydrogenic basis function :  2 p   3.500
  | Found hydrogenic basis function :  1 s   0.850
  | Found hydrogenic basis function :  2 p   3.700
  | Found hydrogenic basis function :  2 s   1.200
  | Found hydrogenic basis function :  3 d   7.000
  Species H                   : Missing cutoff potential type.
  Defaulting to exp(1/x)/(1-x)^2 type cutoff potential.
  Species H : No 'logarithmic' tag. Using default grid for free atom:
  | Default logarithmic grid data [bohr] : 0.1000E-03 0.1000E+03 0.1012E+01
  Species H : On-site basis accuracy parameter (for Gram-Schmidt orthonormalisation) not specified.
  Using default value basis_acc =  0.1000000E-03.
  Species H                   : Using default innermost maximum threshold i_radial=  2 for radial functions.
  Species H                   : Default cutoff onset for free atom density etc. : 0.40000000E+01 AA.
  Species H                   : Basic radial grid will be enhanced according to radial_multiplier =   2, to contain    49 grid points.
 
  Reading configuration options for species C                   .
  | Found nuclear charge :   6.0000
  | Found atomic mass :    12.0107000000000      amu
  | Found l_max for Hartree potential  :   6
  | Found cutoff potl. onset [A], width [A], scale factor :    4.00000    2.00000    1.00000
  | Threshold for basis-dependent cutoff potential is   0.100000E-03
  | Found data for basic radial integration grid :    34 points, outermost radius =    7.000 A
  | Found multiplier for basic radial grid :   2
  | Found angular grid specification: user-specified.
  | Specified grid contains     6 separate shells.
  | Check grid settings after all constraints further below.
  | Found free-atom valence shell :  2 s   2.000
  | Found free-atom valence shell :  2 p   2.000
  | No ionic wave fns used. Skipping ion_occ.
  | No ionic wave fns used. Skipping ion_occ.
  | Found hydrogenic basis function :  2 p   1.700
  | Found hydrogenic basis function :  3 d   6.000
  | Found hydrogenic basis function :  2 s   4.900
  | Found hydrogenic basis function :  4 f   9.800
  | Found hydrogenic basis function :  3 p   5.200
  | Found hydrogenic basis function :  3 s   4.300
  | Found hydrogenic basis function :  5 g  14.400
  | Found hydrogenic basis function :  3 d   6.200
  Species C                   : Missing cutoff potential type.
  Defaulting to exp(1/x)/(1-x)^2 type cutoff potential.
  Species C : No 'logarithmic' tag. Using default grid for free atom:
  | Default logarithmic grid data [bohr] : 0.1000E-03 0.1000E+03 0.1012E+01
  Species C : On-site basis accuracy parameter (for Gram-Schmidt orthonormalisation) not specified.
  Using default value basis_acc =  0.1000000E-03.
  Species C                   : Using default innermost maximum threshold i_radial=  2 for radial functions.
  Species C                   : Default cutoff onset for free atom density etc. : 0.40000000E+01 AA.
  Species C                   : Basic radial grid will be enhanced according to radial_multiplier =   2, to contain    69 grid points.
 
  Reading configuration options for species N                   .
  | Found nuclear charge :   7.0000
  | Found atomic mass :    14.0067000000000      amu
  | Found l_max for Hartree potential  :   6
  | Found cutoff potl. onset [A], width [A], scale factor :    4.00000    2.00000    1.00000
  | Threshold for basis-dependent cutoff potential is   0.100000E-03
  | Found data for basic radial integration grid :    35 points, outermost radius =    7.000 A
  | Found multiplier for basic radial grid :   2
  | Found angular grid specification: user-specified.
  | Specified grid contains     6 separate shells.
  | Check grid settings after all constraints further below.
  | Found free-atom valence shell :  2 s   2.000
  | Found free-atom valence shell :  2 p   3.000
  | No ionic wave fns used. Skipping ion_occ.
  | No ionic wave fns used. Skipping ion_occ.
  | Found hydrogenic basis function :  2 p   1.800
  | Found hydrogenic basis function :  3 d   6.800
  | Found hydrogenic basis function :  3 s   5.800
  | Found hydrogenic basis function :  4 f  10.800
  | Found hydrogenic basis function :  3 p   5.800
  | Found hydrogenic basis function :  1 s   0.800
  | Found hydrogenic basis function :  5 g  16.000
  | Found hydrogenic basis function :  3 d   4.900
  Species N                   : Missing cutoff potential type.
  Defaulting to exp(1/x)/(1-x)^2 type cutoff potential.
  Species N : No 'logarithmic' tag. Using default grid for free atom:
  | Default logarithmic grid data [bohr] : 0.1000E-03 0.1000E+03 0.1012E+01
  Species N : On-site basis accuracy parameter (for Gram-Schmidt orthonormalisation) not specified.
  Using default value basis_acc =  0.1000000E-03.
  Species N                   : Using default innermost maximum threshold i_radial=  2 for radial functions.
  Species N                   : Default cutoff onset for free atom density etc. : 0.40000000E+01 AA.
  Species N                   : Basic radial grid will be enhanced according to radial_multiplier =   2, to contain    71 grid points.
 
  Reading configuration options for species O                   .
  | Found nuclear charge :   8.0000
  | Found atomic mass :    15.9994000000000      amu
  | Found l_max for Hartree potential  :   6
  | Found cutoff potl. onset [A], width [A], scale factor :    4.00000    2.00000    1.00000
  | Threshold for basis-dependent cutoff potential is   0.100000E-03
  | Found data for basic radial integration grid :    36 points, outermost radius =    7.000 A
  | Found multiplier for basic radial grid :   2
  | Found angular grid specification: user-specified.
  | Specified grid contains     6 separate shells.
  | Check grid settings after all constraints further below.
  | Found free-atom valence shell :  2 s   2.000
  | Found free-atom valence shell :  2 p   4.000
  | No ionic wave fns used. Skipping ion_occ.
  | No ionic wave fns used. Skipping ion_occ.
  | Found hydrogenic basis function :  2 p   1.800
  | Found hydrogenic basis function :  3 d   7.600
  | Found hydrogenic basis function :  3 s   6.400
  | Found hydrogenic basis function :  4 f  11.600
  | Found hydrogenic basis function :  3 p   6.200
  | Found hydrogenic basis function :  3 d   5.600
  | Found hydrogenic basis function :  5 g  17.600
  | Found hydrogenic basis function :  1 s   0.750
  Species O                   : Missing cutoff potential type.
  Defaulting to exp(1/x)/(1-x)^2 type cutoff potential.
  Species O : No 'logarithmic' tag. Using default grid for free atom:
  | Default logarithmic grid data [bohr] : 0.1000E-03 0.1000E+03 0.1012E+01
  Species O : On-site basis accuracy parameter (for Gram-Schmidt orthonormalisation) not specified.
  Using default value basis_acc =  0.1000000E-03.
  Species O                   : Using default innermost maximum threshold i_radial=  2 for radial functions.
  Species O                   : Default cutoff onset for free atom density etc. : 0.40000000E+01 AA.
  Species O                   : Basic radial grid will be enhanced according to radial_multiplier =   2, to contain    73 grid points.
 
  Finished reading input file 'control.in'. Consistency checks are next.
 
  Target number of points in a grid batch is not set. Defaulting to  100
  Method for grid partitioning is not set. Defaulting to parallel hash+maxmin partitioning.
  Batch size limit is not set. Defaulting to    200
  By default, will store active basis functions for each batch.
  If in need of memory, prune_basis_once .false. can be used to disable this option.
  communication_type for Hartree potential was not specified.
  Defaulting to calc_hartree .
  Pulay mixer: Number of initial linear mixing iterations not set.
  Defaulting to    0 iterations.
  Work space size for distributed Hartree potential not set.
  Defaulting to   0.200000E+03 MB.
  Algorithm-dependent basis array size parameters:
  | n_max_pulay                         :       10
  Geometry relaxation not requested: no relaxation will be performed.
  Handling of forces: Unphysical translation and rotation will be removed from forces.
  No accuracy limit for integral partition fn. given. Defaulting to  0.1000E-14.
  No threshold value for u(r) in integrations given. Defaulting to  0.1000E-05.
  No accuracy for occupation numbers given. Defaulting to  0.1000E-07.
  No threshold value for occupation numbers given. Defaulting to  0.0000E+00.
  No accuracy for fermi level given. Defaulting to  0.1000E-19.
  Maximum # of iterations to find E_F not set. Defaulting to  200.
  Preferred method for the eigenvalue solver ('KS_method') not specified in 'control.in'.
  Calling blacs routine to test compilation state
  Since scalapack support is enabled, defaulting to 'elpa'.
  Preferred method for the MBD eigenvalue solver ('mbd_eigensolver') not specified in 'control.in'.
  Calling blacs routine to test compilation state
  Since scalapack support is enabled, defaulting to 'scaLAPACK'.
  Will not use alltoall communication since running on < 1024 CPUs.
  Threshold for basis singularities not set.
  Default threshold for basis singularities:  0.1000E-04
  partition_type (choice of integration weights) for integrals was not specified.
  | Using a version of the partition function of Stratmann and coworkers ('stratmann_smoother').
  | At each grid point, the set of atoms used to build the partition table is smoothly restricted to
  | only those atoms whose free-atom density would be non-zero at that grid point.
  Partitioning for Hartree potential was not defined. Using partition_type for integrals.
  | Adjusted default value of keyword multip_moments_threshold to:       0.10000000E-11
  | This value may affect high angular momentum components of the Hartree potential in periodic systems.
  No q(lm)/r^(l+1) cutoff set for long-range Hartree potential.
  | Using default value of  0.100000E-09 .
  | Verify using the multipole_threshold keyword.
  Defaulting to new monopole extrapolation.
  Density update method: automatic selection selected.
------------------------------------------------------------


------------------------------------------------------------
          Reading geometry description geometry.in.
------------------------------------------------------------
 * Warning! You did not set the 'relativistic' flag in input file 'control.in'.
 * Since you are not attempting to treat any elements beyond Ca(Z=20), FHI-aims
 * will default to 'relativistic none'.
 * You must ensure that this is really what you want!!
 * For example, DO NOT compute total-energy differences between results from
 * different settings of the 'relativistic' flag.
  Input structure read successfully.
  The structure contains       32 atoms,  and a total of        116.000 electrons.

  Input geometry:
  | No unit cell requested.
  | Atomic structure:
  |       Atom                x [A]            y [A]            z [A]
  |    1: Species C             -1.651801        -0.359679        -0.356965
  |    2: Species C             -0.913182         0.018963         0.916200
  |    3: Species O              0.255038         0.413428         0.879958
  |    4: Species H             -1.064017        -1.117770        -0.888618
  |    5: Species H             -1.707513         0.524816        -1.004880
  |    6: Species H             -2.665981        -0.744730        -0.193588
  |    7: Species N             -1.654507        -0.089528         2.058919
  |    8: Species C             -1.273265         0.103021         3.465940
  |    9: Species C             -1.823529         1.395522         4.133872
  |   10: Species O             -2.402418         1.280709         5.213958
  |   11: Species H             -2.613307        -0.390852         1.929486
  |   12: Species H             -1.822630        -0.673420         4.015476
  |   13: Species C              0.213429        -0.095537         3.784810
  |   14: Species H              0.320864        -0.100872         4.876810
  |   15: Species H              0.854505         0.687932         3.371385
  |   16: Species H              0.566318        -1.057963         3.394461
  |   17: Species N             -1.648220         2.610290         3.544176
  |   18: Species C             -0.856134         2.971783         2.383043
  |   19: Species C              0.023718         4.170997         2.782231
  |   20: Species O             -0.348347         4.957363         3.654777
  |   21: Species H             -1.919039         3.403913         4.127833
  |   22: Species H             -0.226978         2.123122         2.095682
  |   23: Species C             -1.736986         3.366498         1.183317
  |   24: Species H             -1.126371         3.597847         0.300430
  |   25: Species H             -2.343708         4.248285         1.427881
  |   26: Species H             -2.413400         2.541235         0.929292
  |   27: Species N              1.198529         4.341588         2.115017
  |   28: Species C              1.757885         3.555729         1.025555
  |   29: Species H              1.681917         5.196043         2.378811
  |   30: Species H              2.849147         3.513708         1.131619
  |   31: Species H              1.523046         3.990229         0.040785
  |   32: Species H              1.382762         2.526809         1.043480
  |

  | The smallest distance between any two atoms is         1.01333416 AA.
  |
  | The first atom of this pair is atom number                      7 .
  | The second atom of this pair is atom number                    11 .

  Number of empty states per atom not set in control.in - providing a guess from actual geometry.
  | Total number of empty states used during s.c.f. cycle:       71
  If you use a very high smearing, use empty_states (per atom!) in control.in to increase this value.

  Structure-dependent array size parameters: 
  | Maximum number of distinct radial functions  :       40
  | Maximum number of basis functions            :      840
  | Number of Kohn-Sham states (occupied + empty):      129
------------------------------------------------------------

------------------------------------------------------------
          Preparing all fixed parts of the calculation.
------------------------------------------------------------
  Determining machine precision:
    2.225073858507201E-308
  Setting up grids for atomic and cluster calculations.

  Creating wave function, potential, and density for free atoms.

  Species: H

  List of occupied orbitals and eigenvalues:
    n    l              occ      energy [Ha]    energy [eV]
    1    0           1.0000        -0.238382        -6.4867


  Species: C

  List of occupied orbitals and eigenvalues:
    n    l              occ      energy [Ha]    energy [eV]
    1    0           2.0000       -10.041232      -273.2358
    2    0           2.0000        -0.504327       -13.7234
    2    1           2.0000        -0.193750        -5.2722


  Species: N

  List of occupied orbitals and eigenvalues:
    n    l              occ      energy [Ha]    energy [eV]
    1    0           2.0000       -14.129007      -384.4699
    2    0           2.0000        -0.681802       -18.5528
    2    1           3.0000        -0.260543        -7.0897


  Species: O

  List of occupied orbitals and eigenvalues:
    n    l              occ      energy [Ha]    energy [eV]
    1    0           2.0000       -18.898576      -514.2564
    2    0           2.0000        -0.878795       -23.9132
    2    1           4.0000        -0.332075        -9.0362

  Creating fixed part of basis set: Ionic, confined, hydrogenic.
 
  H                    hydrogenic:
 
  List of hydrogenic basis orbitals: 
    n    l      effective z      eigenvalue [eV]  inner max. [A]     outer max. [A]     outer radius [A]   
    2    0         2.100000       -14.9965           0.193243           1.317208           5.373006
    2    1         3.500000       -41.6672           0.602369           0.602369           4.056063
    1    0         0.850000        -9.8292           0.624871           0.624871           5.373006
    2    1         3.700000       -46.5653           0.573622           0.573622           3.910002
    2    0         1.200000        -4.5995           0.334980           2.228188           5.505995
    3    2         7.000000       -74.0753           0.680699           0.680699           3.769201
 
 
  C                    hydrogenic:
 
  List of hydrogenic basis orbitals: 
    n    l      effective z      eigenvalue [eV]  inner max. [A]     outer max. [A]     outer radius [A]   
    2    1         1.700000        -9.8152           1.245706           1.245706           5.401630
    3    2         6.000000       -54.4226           0.792453           0.792453           4.178599
    2    0         4.900000       -81.6681           0.082559           0.562749           3.353238
    4    3         9.800000       -81.6681           0.863254           0.863254           4.028125
    3    1         5.200000       -40.8774           0.305389           1.215618           4.898362
    3    0         4.300000       -27.9508           0.091041           1.610311           5.401630
    5    4        14.400000      -112.8510           0.917666           0.917666           3.883070
    3    2         6.200000       -58.1113           0.763917           0.763917           4.077671
 
 
  N                    hydrogenic:
 
  List of hydrogenic basis orbitals: 
    n    l      effective z      eigenvalue [eV]  inner max. [A]     outer max. [A]     outer radius [A]   
    2    1         1.800000       -11.0118           1.177451           1.177451           5.427479
    3    2         6.800000       -69.9029           0.704619           0.704619           3.854246
    3    0         5.800000       -50.8549           0.067388           1.191934           4.629968
    4    3        10.800000       -99.1854           0.786571           0.786571           3.761152
    3    1         5.800000       -50.8549           0.274880           1.094176           4.518138
    1    0         0.800000        -8.7059           0.662839           0.662839           5.361532
    5    4        16.000000      -139.3222           0.825990           0.825990           3.625711
    3    2         4.900000       -36.2967           0.968267           0.968267           4.862000
 
 
  O                    hydrogenic:
 
  List of hydrogenic basis orbitals: 
    n    l      effective z      eigenvalue [eV]  inner max. [A]     outer max. [A]     outer radius [A]   
    2    1         1.800000       -11.0118           1.178562           1.178562           5.432602
    3    2         7.600000       -87.3182           0.624125           0.624125           3.541477
    3    0         6.400000       -61.9209           0.061167           1.081902           4.306578
    4    3        11.600000      -114.4238           0.731631           0.731631           3.585037
    3    1         6.200000       -58.1113           0.255680           1.030270           4.306578
    3    2         5.600000       -47.4081           0.847233           0.847233           4.413171
    5    4        17.600000      -168.5799           0.749740           0.749740           3.372465
    1    0         0.750000        -7.6499           0.705284           0.705284           5.366593
 

  Adding cutoff potential to free-atom effective potential.
  Creating atomic-like basis functions for current effective potential.

  Species H                   :

  List of atomic basis orbitals and eigenvalues:
    n    l      energy [Ha]    energy [eV]    outer radius [A]
    1    0        -0.238382        -6.4867       5.373006


  Species C                   :

  List of atomic basis orbitals and eigenvalues:
    n    l      energy [Ha]    energy [eV]    outer radius [A]
    1    0       -10.041232      -273.2358       1.934409
    2    0        -0.504327       -13.7234       5.271162
    2    1        -0.193750        -5.2722       5.401630


  Species N                   :

  List of atomic basis orbitals and eigenvalues:
    n    l      energy [Ha]    energy [eV]    outer radius [A]
    1    0       -14.129007      -384.4699       1.637919
    2    0        -0.681802       -18.5528       5.168461
    2    1        -0.260543        -7.0897       5.361532


  Species O                   :

  List of atomic basis orbitals and eigenvalues:
    n    l      energy [Ha]    energy [eV]    outer radius [A]
    1    0       -18.898576      -514.2564       1.415765
    2    0        -0.878795       -23.9132       5.048385
    2    1        -0.332075        -9.0362       5.301386

  Assembling full basis from fixed parts.
  | Species H :   atomic orbital   1 s accepted.
  | Species H :    hydro orbital   2 s accepted.
  | Species H :    hydro orbital   1 s accepted.
  | Species H :    hydro orbital   2 s accepted.
  | Species H :    hydro orbital   2 p accepted.
  | Species H :    hydro orbital   2 p accepted.
  | Species H :    hydro orbital   3 d accepted.
  | Species C :   atomic orbital   1 s accepted.
  | Species C :    hydro orbital   2 s accepted.
  | Species C :   atomic orbital   2 s accepted.
  | Species C :    hydro orbital   3 s accepted.
  | Species C :    hydro orbital   3 p accepted.
  | Species C :   atomic orbital   2 p accepted.
  | Species C :    hydro orbital   2 p accepted.
  | Species C :    hydro orbital   3 d accepted.
  | Species C :    hydro orbital   3 d accepted.
  | Species C :    hydro orbital   4 f accepted.
  | Species C :    hydro orbital   5 g accepted.
  | Species N :   atomic orbital   1 s accepted.
  | Species N :    hydro orbital   3 s accepted.
  | Species N :   atomic orbital   2 s accepted.
  | Species N :    hydro orbital   1 s accepted.
  | Species N :    hydro orbital   3 p accepted.
  | Species N :   atomic orbital   2 p accepted.
  | Species N :    hydro orbital   2 p accepted.
  | Species N :    hydro orbital   3 d accepted.
  | Species N :    hydro orbital   3 d accepted.
  | Species N :    hydro orbital   4 f accepted.
  | Species N :    hydro orbital   5 g accepted.
  | Species O :   atomic orbital   1 s accepted.
  | Species O :    hydro orbital   3 s accepted.
  | Species O :   atomic orbital   2 s accepted.
  | Species O :    hydro orbital   1 s accepted.
  | Species O :    hydro orbital   3 p accepted.
  | Species O :   atomic orbital   2 p accepted.
  | Species O :    hydro orbital   2 p accepted.
  | Species O :    hydro orbital   3 d accepted.
  | Species O :    hydro orbital   3 d accepted.
  | Species O :    hydro orbital   4 f accepted.
  | Species O :    hydro orbital   5 g accepted.
 
  Basis size parameters after reduction:
  | Total number of radial functions:       40
  | Total number of basis functions :      840
 
  Testing on-site integration grid accuracy.
  |  Species  Function  <phi|h_atom|phi> (log., in eV)  <phi|h_atom|phi> (rad., in eV)
           1        1                 -6.4869821809                 -6.4870742227
           1        2                 13.5044133542                 13.5041049177
           1        3                 32.7854418792                 32.7779770519
           1        4                 33.7995553101                 33.7152624900 ***
           1        5                 28.8558651799                 28.8558652046
           1        6                 59.6361831893                 59.6362535845
           1        7                 60.2733718049                 60.2733715484
           2        8               -273.2358277112               -273.2358261765
           2        9                -10.7624923123                -10.7625144012
           2       10                 17.4634079027                 17.4634252127
           2       11                 53.0363661832                 53.0366180446
           2       12                 15.0981351967                 15.0981317714
           2       13                  3.8522181899                  3.8522770949
           2       14                 12.1181835661                 12.1206868578
           2       15                 29.4320778347                 29.4320780959
           2       16                 54.8753777694                 54.8752901936
           2       17                 59.3533975461                 59.3533974833
           2       18                 93.4537491195                 93.4537492066
           3       19               -384.4698526889               -384.4698499465
           3       20                 12.5691022037                 12.5690910168
           3       21                -15.7489097511                -15.7489165588
           3       22                 27.0978334940                 27.0985589490
           3       23                 18.5949116966                 18.5949125562
           3       24                  1.2212828291                  1.2212855301
           3       25                 13.4428926797                 13.4434051125
           3       26                 35.9380614500                 35.9380613666
           3       27                 39.9231532098                 39.9231654735
           3       28                 72.9957335806                 72.9957336833
           3       29                116.4231321147                116.4231321431
           4       30               -514.2564144315               -514.2564099626
           4       31                 15.1726678541                 15.1726530877
           4       32                -21.5447785304                -21.5447874973
           4       33                 14.4944558459                 14.4944698284
           4       34                 20.8882174564                 20.8882178906
           4       35                 -2.4850315908                 -2.4850322289
           4       36                 13.8600193195                 13.8599826966
           4       37                 45.8243383616                 45.8243383675
           4       38                 52.1840606465                 52.1840622440
           4       39                 85.4074185510                 85.4074185819
           4       40                142.0983717302                142.0983717339
 * Note: Onsite integrals marked "***" above are less accurate than
 * onsite_accuracy_threshold =    0.03000 eV. Usually, this is harmless.
 * When in doubt, tighten the "radial" and/or "radial_multiplier" flags to check.

  Preparing densities etc. for the partition functions (integrals / Hartree potential).

  Preparations completed.
  max(cpu_time)          :      0.240 s.
  Wall clock time (cpu1) :      0.236 s.
------------------------------------------------------------

------------------------------------------------------------
          Begin self-consistency loop: Initialization.

          Date     :  20170309, Time     :  181656.642
------------------------------------------------------------

  Initializing index lists of integration centers etc. from given atomic structure:
  | Number of centers in hartree potential         :        32
  | Number of centers in hartree multipole         :        32
  | Number of centers in electron density summation:        32
  | Number of centers in basis integrals           :        32
  | Number of centers in integrals                 :        32
  | Number of centers in hamiltonian               :        32
  Using modified Scalapack Eigenvalue solver (ELPA)
  * Using 32 tasks for Scalapack Eigenvalue solver.
  Detailed listing of tasks and assigned k-points:
  (for non-periodic systems, the "k-point" denotes an internal label only)
   Task     0 k-point     1 on eos026
   Task     1 k-point     1 on eos026
   Task     2 k-point     1 on eos026
   Task     3 k-point     1 on eos026
   Task     4 k-point     1 on eos026
   Task     5 k-point     1 on eos026
   Task     6 k-point     1 on eos026
   Task     7 k-point     1 on eos026
   Task     8 k-point     1 on eos026
   Task     9 k-point     1 on eos026
   Task    10 k-point     1 on eos026
   Task    11 k-point     1 on eos026
   Task    12 k-point     1 on eos026
   Task    13 k-point     1 on eos026
   Task    14 k-point     1 on eos026
   Task    15 k-point     1 on eos026
   Task    16 k-point     1 on eos026
   Task    17 k-point     1 on eos026
   Task    18 k-point     1 on eos026
   Task    19 k-point     1 on eos026
   Task    20 k-point     1 on eos026
   Task    21 k-point     1 on eos026
   Task    22 k-point     1 on eos026
   Task    23 k-point     1 on eos026
   Task    24 k-point     1 on eos026
   Task    25 k-point     1 on eos026
   Task    26 k-point     1 on eos026
   Task    27 k-point     1 on eos026
   Task    28 k-point     1 on eos026
   Task    29 k-point     1 on eos026
   Task    30 k-point     1 on eos026
   Task    31 k-point     1 on eos026
  Tasks:    32 split into      8 X      4 BLACS grid
  Calculating blocksize based on n_basis =          840 max_nprow =            8 max_npcol =            4
  Scalapack blocksize set to:           16
  Required Scalapack workspace - INTEGER:            1 REAL:             1
  Partitioning the integration grid into batches with parallel hashing+maxmin method.
  | Number of batches:     4939
  | Maximal batch size:     198
  | Minimal batch size:      53
  | Average batch size:     106.849
  | Standard deviation of batch sizes:      33.643

  Integration load balanced across    32 MPI tasks.
  Work distribution over tasks is as follows:
  Task     0 has      16548 integration points.
  Task     1 has      16459 integration points.
  Task     2 has      16486 integration points.
  Task     3 has      16480 integration points.
  Task     4 has      16452 integration points.
  Task     5 has      16544 integration points.
  Task     6 has      16492 integration points.
  Task     7 has      16493 integration points.
  Task     8 has      16466 integration points.
  Task     9 has      16490 integration points.
  Task    10 has      16546 integration points.
  Task    11 has      16546 integration points.
  Task    12 has      16459 integration points.
  Task    13 has      16541 integration points.
  Task    14 has      16458 integration points.
  Task    15 has      16550 integration points.
  Task    16 has      16468 integration points.
  Task    17 has      16418 integration points.
  Task    18 has      16488 integration points.
  Task    19 has      16475 integration points.
  Task    20 has      16453 integration points.
  Task    21 has      16489 integration points.
  Task    22 has      16478 integration points.
  Task    23 has      16489 integration points.
  Task    24 has      16486 integration points.
  Task    25 has      16470 integration points.
  Task    26 has      16485 integration points.
  Task    27 has      16543 integration points.
  Task    28 has      16482 integration points.
  Task    29 has      16471 integration points.
  Task    30 has      16544 integration points.
  Task    31 has      16479 integration points.
  Initializing partition tables, free-atom densities, potentials, etc. across the integration grid (initialize_grid_storage).
  | initialize_grid_storage: Actual outermost partition radius vs. multipole_radius_free
  | (-- VB: in principle, multipole_radius_free should be larger, hence this output)
  | Species        1: Confinement radius =              6.000000000000000 AA, multipole_radius_free =              6.071692442739658 AA.
  | Species        1: outer_partition_radius set to              6.071692442739658 AA .
  | Species        2: Confinement radius =              6.000000000000000 AA, multipole_radius_free =              6.029870734432609 AA.
  | Species        2: outer_partition_radius set to              6.029870734432609 AA .
  | Species        3: Confinement radius =              6.000000000000000 AA, multipole_radius_free =              6.058726835495003 AA.
  | Species        3: outer_partition_radius set to              6.058726835495003 AA .
  | Species        4: Confinement radius =              6.000000000000000 AA, multipole_radius_free =              6.064445521808699 AA.
  | Species        4: outer_partition_radius set to              6.064445521808699 AA .
  | Original list of interatomic distances with          32 x         32 entries is created.
  | Net number of integration points:   527728
  | of which are non-zero points    :   412360
  Obtaining max. number of non-zero basis functions in each batch (get_n_compute_maxes).
  | Maximal number of non-zero basis functions:      807 in task     0
  | Maximal number of non-zero basis functions:      803 in task     1
  | Maximal number of non-zero basis functions:      785 in task     2
  | Maximal number of non-zero basis functions:      810 in task     3
  | Maximal number of non-zero basis functions:      806 in task     4
  | Maximal number of non-zero basis functions:      819 in task     5
  | Maximal number of non-zero basis functions:      801 in task     6
  | Maximal number of non-zero basis functions:      804 in task     7
  | Maximal number of non-zero basis functions:      816 in task     8
  | Maximal number of non-zero basis functions:      817 in task     9
  | Maximal number of non-zero basis functions:      826 in task    10
  | Maximal number of non-zero basis functions:      802 in task    11
  | Maximal number of non-zero basis functions:      809 in task    12
  | Maximal number of non-zero basis functions:      827 in task    13
  | Maximal number of non-zero basis functions:      803 in task    14
  | Maximal number of non-zero basis functions:      815 in task    15
  | Maximal number of non-zero basis functions:      800 in task    16
  | Maximal number of non-zero basis functions:      808 in task    17
  | Maximal number of non-zero basis functions:      818 in task    18
  | Maximal number of non-zero basis functions:      810 in task    19
  | Maximal number of non-zero basis functions:      811 in task    20
  | Maximal number of non-zero basis functions:      802 in task    21
  | Maximal number of non-zero basis functions:      815 in task    22
  | Maximal number of non-zero basis functions:      814 in task    23
  | Maximal number of non-zero basis functions:      819 in task    24
  | Maximal number of non-zero basis functions:      817 in task    25
  | Maximal number of non-zero basis functions:      805 in task    26
  | Maximal number of non-zero basis functions:      822 in task    27
  | Maximal number of non-zero basis functions:      822 in task    28
  | Maximal number of non-zero basis functions:      825 in task    29
  | Maximal number of non-zero basis functions:      806 in task    30
  | Maximal number of non-zero basis functions:      797 in task    31
  Selecting the method for density update.
  Loop over occupied states selected for charge density update.
  Integrating Hamiltonian matrix: batch-based integration.
  Time summed over all CPUs for integration: real work       23.966 s, elapsed       25.065 s
  Integrating overlap matrix.
  Time summed over all CPUs for integration: real work       14.767 s, elapsed       15.337 s
  Deallocating overlap matrix.

  Updating Kohn-Sham eigenvalues, eigenvectors, occupation numbers, and Fermi level.
  Solving generalized eigenproblem
  Solving real symmetric generalised eigenvalue problem by standard ScaLAPACK.
  Transforming overlap matrix with ScaLAPACK and checking for singularities.
  : Overlap matrix is nonsingular, using Cholesky decomposition
  | Lowest eigenvalue:  0.936250E-04
  Factoring overlap matrix with Cholesky decomposition
  Using Cholesky factor for transformation
  Using 1-stage real ELPA solver
  Determining occupation numbers for Kohn-Sham eigenstates.
  | Chemical potential (Fermi level) in eV                 : -.94514644E+01
  | Error in electron count due to remaining E_F inaccuracy: 0.00000000E+00
  | Maximum occupation number of highest empty state:  0.00E+00

  Writing Kohn-Sham eigenvalues.

  State    Occupation    Eigenvalue [Ha]    Eigenvalue [eV]
      1       2.00000         -18.974175         -516.31358
      2       2.00000         -18.973597         -516.29784
      3       2.00000         -18.973578         -516.29734
      4       2.00000         -14.255154         -387.90249
      5       2.00000         -14.254954         -387.89704
      6       2.00000         -14.253557         -387.85903
      7       2.00000         -10.171329         -276.77594
      8       2.00000         -10.170749         -276.76015
      9       2.00000         -10.170130         -276.74332
     10       2.00000         -10.166472         -276.64378
     11       2.00000         -10.149763         -276.18909
     12       2.00000         -10.146647         -276.10431
     13       2.00000         -10.135933         -275.81278
     14       2.00000         -10.134810         -275.78222
     15       2.00000         -10.133422         -275.74443
     16       2.00000          -1.133404          -30.84150
     17       2.00000          -1.129419          -30.73305
     18       2.00000          -1.127891          -30.69147
     19       2.00000          -1.018126          -27.70462
     20       2.00000          -1.011854          -27.53396
     21       2.00000          -1.007955          -27.42785
     22       2.00000          -0.888176          -24.16850
     23       2.00000          -0.876851          -23.86034
     24       2.00000          -0.841235          -22.89117
     25       2.00000          -0.817014          -22.23207
     26       2.00000          -0.777364          -21.15314
     27       2.00000          -0.766845          -20.86690
     28       2.00000          -0.707326          -19.24731
     29       2.00000          -0.689892          -18.77291
     30       2.00000          -0.666779          -18.14397
     31       2.00000          -0.643234          -17.50329
     32       2.00000          -0.626277          -17.04187
     33       2.00000          -0.604962          -16.46184
     34       2.00000          -0.602271          -16.38862
     35       2.00000          -0.594736          -16.18358
     36       2.00000          -0.576509          -15.68759
     37       2.00000          -0.572606          -15.58139
     38       2.00000          -0.563910          -15.34477
     39       2.00000          -0.557724          -15.17644
     40       2.00000          -0.551932          -15.01884
     41       2.00000          -0.548630          -14.92898
     42       2.00000          -0.544978          -14.82960
     43       2.00000          -0.536473          -14.59816
     44       2.00000          -0.530903          -14.44660
     45       2.00000          -0.520392          -14.16059
     46       2.00000          -0.515643          -14.03137
     47       2.00000          -0.510450          -13.89004
     48       2.00000          -0.499908          -13.60319
     49       2.00000          -0.493268          -13.42252
     50       2.00000          -0.489159          -13.31068
     51       2.00000          -0.485605          -13.21398
     52       2.00000          -0.467899          -12.73217
     53       2.00000          -0.414039          -11.26656
     54       2.00000          -0.406214          -11.05366
     55       2.00000          -0.399640          -10.87477
     56       2.00000          -0.388567          -10.57344
     57       2.00000          -0.382807          -10.41672
     58       2.00000          -0.377814          -10.28084
     59       0.00000          -0.169443           -4.61077
     60       0.00000          -0.158786           -4.32079
     61       0.00000          -0.152057           -4.13769
     62       0.00000          -0.083397           -2.26935
     63       0.00000          -0.066988           -1.82283
     64       0.00000          -0.056744           -1.54410
     65       0.00000          -0.050610           -1.37717
     66       0.00000          -0.046994           -1.27876
     67       0.00000          -0.039444           -1.07333
     68       0.00000          -0.033306           -0.90630
     69       0.00000          -0.029853           -0.81235
     70       0.00000          -0.025500           -0.69390
     71       0.00000          -0.022048           -0.59995
     72       0.00000          -0.014935           -0.40639
     73       0.00000          -0.012677           -0.34495
     74       0.00000          -0.007941           -0.21609
     75       0.00000          -0.004678           -0.12729
     76       0.00000           0.002008            0.05464
     77       0.00000           0.002701            0.07350
     78       0.00000           0.004585            0.12475
     79       0.00000           0.011683            0.31792
     80       0.00000           0.013261            0.36084
     81       0.00000           0.019900            0.54150
     82       0.00000           0.023820            0.64817
     83       0.00000           0.028157            0.76620
     84       0.00000           0.035293            0.96038
     85       0.00000           0.044960            1.22343
     86       0.00000           0.056255            1.53077
     87       0.00000           0.058303            1.58651
     88       0.00000           0.062037            1.68811
     89       0.00000           0.070544            1.91959
     90       0.00000           0.073039            1.98750
     91       0.00000           0.078935            2.14792
     92       0.00000           0.084388            2.29632
     93       0.00000           0.086915            2.36509
     94       0.00000           0.095822            2.60745
     95       0.00000           0.102614            2.79226
     96       0.00000           0.105387            2.86772
     97       0.00000           0.107889            2.93581
     98       0.00000           0.120292            3.27331
     99       0.00000           0.127848            3.47892
    100       0.00000           0.130370            3.54755
    101       0.00000           0.132623            3.60884
    102       0.00000           0.136912            3.72556
    103       0.00000           0.139565            3.79776
    104       0.00000           0.143959            3.91733
    105       0.00000           0.150893            4.10599
    106       0.00000           0.154215            4.19641
    107       0.00000           0.158218            4.30533
    108       0.00000           0.164716            4.48215
    109       0.00000           0.168376            4.58173
    110       0.00000           0.169973            4.62521
    111       0.00000           0.180416            4.90936
    112       0.00000           0.183430            4.99139
    113       0.00000           0.187073            5.09052
    114       0.00000           0.187590            5.10459
    115       0.00000           0.197751            5.38108
    116       0.00000           0.205482            5.59144
    117       0.00000           0.207809            5.65478
    118       0.00000           0.217789            5.92634
    119       0.00000           0.218789            5.95356
    120       0.00000           0.226012            6.15009
    121       0.00000           0.228098            6.20686
    122       0.00000           0.236167            6.42644
    123       0.00000           0.239766            6.52436
    124       0.00000           0.245303            6.67503
    125       0.00000           0.249893            6.79994
    126       0.00000           0.256988            6.99299
    127       0.00000           0.261282            7.10985
    128       0.00000           0.262530            7.14382
    129       0.00000           0.266003            7.23830

  Highest occupied state (VBM) at    -10.28084413 eV
  | Occupation number:      2.00000000

  Lowest unoccupied state (CBM) at    -4.61077424 eV
  | Occupation number:      0.00000000

  Overall HOMO-LUMO gap:      5.67006988 eV.
  Calculating total energy contributions from superposition of free atom densities.

  Total energy components:
  | Sum of eigenvalues            :        -437.86189661 Ha      -11914.82842655 eV
  | XC energy correction          :         -98.83053014 Ha       -2689.31555591 eV
  | XC potential correction       :         127.03651106 Ha        3456.83934796 eV
  | Free-atom electrostatic energy:        -333.61986102 Ha       -9078.25831505 eV
  | Hartree energy correction     :           0.00000000 Ha           0.00000000 eV
  | vdW energy correction         :           0.00000000 Ha           0.00000000 eV
  | Entropy correction            :          -0.00000000 Ha          -0.00000000 eV
  | ---------------------------
  | Total energy                  :        -743.27577671 Ha      -20225.56294955 eV
  | Total energy, T -> 0          :        -743.27577671 Ha      -20225.56294955 eV  <-- do not rely on this value for anything but (periodic) metals
  | Electronic free energy        :        -743.27577671 Ha      -20225.56294955 eV

  Derived energy quantities:
  | Kinetic energy                :         735.18237744 Ha       20005.33035003 eV
  | Electrostatic energy          :       -1379.62762401 Ha      -37541.57774367 eV
  | Energy correction for multipole
  | error in Hartree potential    :           0.00000000 Ha           0.00000000 eV
  | Sum of eigenvalues per atom                           :        -372.33838833 eV
  | Total energy (T->0) per atom                          :        -632.04884217 eV  <-- do not rely on this value for anything but (periodic) metals
  | Electronic free energy per atom                       :        -632.04884217 eV
  Initialize hartree_potential_storage
  Max. number of atoms included in rho_multipole:           32

  End scf initialization - timings             :  max(cpu_time)    wall_clock(cpu1)
  | Time for scf. initialization               :        2.052 s           2.048 s
  | Boundary condition initialization          :        0.000 s           0.000 s
  | Integration                                :        1.292 s           1.284 s
  | Solution of K.-S. eqns.                    :        0.076 s           0.075 s
  | Grid partitioning                          :        0.296 s           0.294 s
  | Preloading free-atom quantities on grid    :        0.028 s           0.028 s
  | Free-atom superposition energy             :        0.044 s           0.041 s
  | Total energy evaluation                    :        0.004 s           0.001 s
------------------------------------------------------------

------------------------------------------------------------
          Begin self-consistency iteration #    1

  Date     :  20170309, Time     :  181658.691
------------------------------------------------------------
  Evaluating new KS density.
  Integration grid: deviation in total charge (<rho> - N_e) =  -1.421085E-14
  Pulay mixing of updated and previous charge densities.

  Evaluating partitioned Hartree potential by multipole expansion.
  | Analytical far-field extrapolation by fixed multipoles:
  | Hartree multipole sum: apparent total charge =  -0.960275E-05
  Summing up the Hartree potential.
  Time summed over all CPUs for potential: real work        9.669 s, elapsed        9.922 s
  | RMS charge density error from multipole expansion :   0.107707E-01

  Integrating Hamiltonian matrix: batch-based integration.
  Time summed over all CPUs for integration: real work       23.843 s, elapsed       24.744 s

  Updating Kohn-Sham eigenvalues, eigenvectors, occupation numbers, and Fermi level.
  Solving generalized eigenproblem
  Solving real symmetric generalised eigenvalue problem by standard ScaLAPACK.
  Using Cholesky factor for transformation
  Using 2-stage real ELPA solver
  K-Point:    1, Trafo times: 1-stage=     0.021 s, 2-stage=     0.023 s ==> Using 1-stage solver
  Determining occupation numbers for Kohn-Sham eigenstates.
  | Chemical potential (Fermi level) in eV                 : -.37766661E+01
  | Error in electron count due to remaining E_F inaccuracy: 0.00000000E+00
  | Maximum occupation number of highest empty state:  0.00E+00

  Writing Kohn-Sham eigenvalues.

  State    Occupation    Eigenvalue [Ha]    Eigenvalue [eV]
      1       2.00000         -18.625721         -506.83166
      2       2.00000         -18.616113         -506.57021
      3       2.00000         -18.609817         -506.39889
      4       2.00000         -14.007632         -381.16707
      5       2.00000         -13.986022         -380.57901
      6       2.00000         -13.977969         -380.35989
      7       2.00000         -10.060557         -273.76168
      8       2.00000         -10.052097         -273.53148
      9       2.00000         -10.049249         -273.45399
     10       2.00000          -9.966597         -271.20490
     11       2.00000          -9.954719         -270.88170
     12       2.00000          -9.890891         -269.14483
     13       2.00000          -9.856947         -268.22117
     14       2.00000          -9.834731         -267.61665
     15       2.00000          -9.832217         -267.54823
     16       2.00000          -0.966104          -26.28903
     17       2.00000          -0.961062          -26.15184
     18       2.00000          -0.952375          -25.91543
     19       2.00000          -0.875522          -23.82416
     20       2.00000          -0.858278          -23.35493
     21       2.00000          -0.854895          -23.26289
     22       2.00000          -0.742378          -20.20112
     23       2.00000          -0.721487          -19.63267
     24       2.00000          -0.691683          -18.82165
     25       2.00000          -0.670064          -18.23336
     26       2.00000          -0.631204          -17.17594
     27       2.00000          -0.622420          -16.93692
     28       2.00000          -0.579136          -15.75909
     29       2.00000          -0.558434          -15.19577
     30       2.00000          -0.537591          -14.62859
     31       2.00000          -0.515782          -14.03515
     32       2.00000          -0.477111          -12.98286
     33       2.00000          -0.462455          -12.58404
     34       2.00000          -0.458354          -12.47244
     35       2.00000          -0.451696          -12.29128
     36       2.00000          -0.442466          -12.04013
     37       2.00000          -0.434523          -11.82397
     38       2.00000          -0.423217          -11.51631
     39       2.00000          -0.416349          -11.32943
     40       2.00000          -0.401092          -10.91427
     41       2.00000          -0.396368          -10.78572
     42       2.00000          -0.390211          -10.61817
     43       2.00000          -0.382054          -10.39621
     44       2.00000          -0.375912          -10.22907
     45       2.00000          -0.372949          -10.14846
     46       2.00000          -0.365771           -9.95314
     47       2.00000          -0.360022           -9.79669
     48       2.00000          -0.355449           -9.67225
     49       2.00000          -0.349959           -9.52286
     50       2.00000          -0.344933           -9.38611
     51       2.00000          -0.333561           -9.07667
     52       2.00000          -0.326352           -8.88050
     53       2.00000          -0.251744           -6.85030
     54       2.00000          -0.230636           -6.27593
     55       2.00000          -0.223295           -6.07616
     56       2.00000          -0.218262           -5.93921
     57       2.00000          -0.213226           -5.80219
     58       2.00000          -0.203746           -5.54421
     59       0.00000          -0.053784           -1.46353
     60       0.00000          -0.045854           -1.24775
     61       0.00000          -0.040203           -1.09398
     62       0.00000          -0.036353           -0.98922
     63       0.00000          -0.022891           -0.62291
     64       0.00000          -0.010630           -0.28926
     65       0.00000          -0.000161           -0.00437
     66       0.00000           0.003792            0.10319
     67       0.00000           0.008741            0.23786
     68       0.00000           0.016705            0.45458
     69       0.00000           0.029401            0.80003
     70       0.00000           0.030446            0.82849
     71       0.00000           0.034803            0.94705
     72       0.00000           0.041803            1.13751
     73       0.00000           0.047764            1.29973
     74       0.00000           0.050001            1.36059
     75       0.00000           0.053591            1.45830
     76       0.00000           0.064632            1.75873
     77       0.00000           0.071106            1.93491
     78       0.00000           0.077596            2.11149
     79       0.00000           0.081034            2.20504
     80       0.00000           0.085788            2.33440
     81       0.00000           0.088738            2.41468
     82       0.00000           0.098138            2.67046
     83       0.00000           0.101755            2.76889
     84       0.00000           0.107564            2.92695
     85       0.00000           0.113876            3.09874
     86       0.00000           0.123779            3.36821
     87       0.00000           0.128437            3.49496
     88       0.00000           0.130389            3.54807
     89       0.00000           0.135265            3.68076
     90       0.00000           0.140870            3.83327
     91       0.00000           0.147156            4.00432
     92       0.00000           0.151808            4.13092
     93       0.00000           0.160923            4.37894
     94       0.00000           0.163862            4.45892
     95       0.00000           0.169471            4.61155
     96       0.00000           0.173802            4.72939
     97       0.00000           0.175760            4.78267
     98       0.00000           0.185521            5.04827
     99       0.00000           0.186625            5.07834
    100       0.00000           0.191710            5.21669
    101       0.00000           0.193829            5.27437
    102       0.00000           0.201000            5.46948
    103       0.00000           0.205310            5.58678
    104       0.00000           0.206527            5.61988
    105       0.00000           0.211925            5.76676
    106       0.00000           0.215270            5.85781
    107       0.00000           0.224823            6.11774
    108       0.00000           0.226113            6.15285
    109       0.00000           0.231500            6.29943
    110       0.00000           0.234519            6.38159
    111       0.00000           0.239218            6.50946
    112       0.00000           0.243984            6.63915
    113       0.00000           0.246871            6.71769
    114       0.00000           0.251621            6.84695
    115       0.00000           0.257012            6.99364
    116       0.00000           0.268647            7.31026
    117       0.00000           0.277996            7.56465
    118       0.00000           0.281449            7.65862
    119       0.00000           0.284919            7.75305
    120       0.00000           0.296609            8.07114
    121       0.00000           0.302514            8.23182
    122       0.00000           0.306549            8.34161
    123       0.00000           0.310129            8.43903
    124       0.00000           0.316470            8.61158
    125       0.00000           0.322924            8.78722
    126       0.00000           0.330420            8.99118
    127       0.00000           0.333988            9.08829
    128       0.00000           0.338904            9.22206
    129       0.00000           0.344416            9.37202

  Highest occupied state (VBM) at     -5.54421443 eV
  | Occupation number:      2.00000000

  Lowest unoccupied state (CBM) at    -1.46353324 eV
  | Occupation number:      0.00000000

  Overall HOMO-LUMO gap:      4.08068119 eV.

  Total energy components:
  | Sum of eigenvalues            :        -417.44281338 Ha      -11359.19690156 eV
  | XC energy correction          :        -100.75184913 Ha       -2741.59730586 eV
  | XC potential correction       :         129.52754837 Ha        3524.62392200 eV
  | Free-atom electrostatic energy:        -333.61986102 Ha       -9078.25831505 eV
  | Hartree energy correction     :         -20.42353987 Ha        -555.75279620 eV
  | vdW energy correction         :           0.00000000 Ha           0.00000000 eV
  | Entropy correction            :           0.00000000 Ha           0.00000000 eV
  | ---------------------------
  | Total energy                  :        -742.71051503 Ha      -20210.18139667 eV
  | Total energy, T -> 0          :        -742.71051503 Ha      -20210.18139667 eV  <-- do not rely on this value for anything but (periodic) metals
  | Electronic free energy        :        -742.71051503 Ha      -20210.18139667 eV

  Derived energy quantities:
  | Kinetic energy                :         744.00245259 Ha       20245.33680647 eV
  | Electrostatic energy          :       -1385.96111849 Ha      -37713.92089727 eV
  | Energy correction for multipole
  | error in Hartree potential    :          -0.04106881 Ha          -1.11753906 eV
  | Sum of eigenvalues per atom                           :        -354.97490317 eV
  | Total energy (T->0) per atom                          :        -631.56816865 eV  <-- do not rely on this value for anything but (periodic) metals
  | Electronic free energy per atom                       :        -631.56816865 eV

  Self-consistency convergence accuracy:
  | Change of charge density      :  0.9019E+00
  | Change of sum of eigenvalues  :  0.5556E+03 eV
  | Change of total energy        :  0.1538E+02 eV

  End self-consistency iteration #     1       :  max(cpu_time)    wall_clock(cpu1)
  | Time for this iteration                    :        1.668 s           1.666 s
  | Charge density update                      :        0.524 s           0.522 s
[...]
   ----------------------------------------------------------------
   Total forces(  20)            :  0.990245E-03  0.103113E-02 -0.484308E-03
  atom #   21
   Hellmann-Feynman              :  0.266670E-01 -0.443722E-01 -0.465899E-02
   Ionic forces                  :  0.000000E+00  0.000000E+00  0.000000E+00
   Multipole                     : -0.708660E-02  0.244923E-02 -0.198696E-01
   Pulay + GGA                   : -0.210689E-01  0.500918E-01  0.239389E-01
   Van der Waals                 :  0.260521E-02 -0.819384E-02 -0.252052E-03
   ----------------------------------------------------------------
   Total forces(  21)            :  0.111675E-02 -0.249743E-04 -0.841717E-03
  atom #   22
   Hellmann-Feynman              : -0.379815E-01  0.385931E-01  0.121480E-01
   Ionic forces                  :  0.000000E+00  0.000000E+00  0.000000E+00
   Multipole                     :  0.455885E-02  0.107659E-02 -0.358279E-02
   Pulay + GGA                   :  0.311727E-01 -0.444298E-01 -0.577233E-02
   Van der Waals                 :  0.192989E-02  0.495410E-02 -0.275395E-02
   ----------------------------------------------------------------
   Total forces(  22)            : -0.320032E-03  0.193975E-03  0.389250E-04
  atom #   23
   Hellmann-Feynman              : -0.654116E+00  0.362507E+00 -0.561380E+00
   Ionic forces                  :  0.000000E+00  0.000000E+00  0.000000E+00
   Multipole                     :  0.200983E+00 -0.167837E+00  0.190528E+00
   Pulay + GGA                   :  0.448257E+00 -0.161817E+00  0.384276E+00
   Van der Waals                 :  0.619256E-02 -0.335315E-01 -0.118395E-01
   ----------------------------------------------------------------
   Total forces(  23)            :  0.131660E-02 -0.678568E-03  0.158561E-02
  atom #   24
   Hellmann-Feynman              :  0.111848E-01 -0.743551E-02  0.433637E-01
   Ionic forces                  :  0.000000E+00  0.000000E+00  0.000000E+00
   Multipole                     : -0.352710E-01  0.302310E-02  0.750670E-02
   Pulay + GGA                   :  0.319325E-01  0.144196E-01 -0.490440E-01
   Van der Waals                 : -0.862245E-02 -0.114222E-01 -0.164371E-02
   ----------------------------------------------------------------
   Total forces(  24)            : -0.776140E-03 -0.141495E-02  0.182747E-03
  atom #   25
   Hellmann-Feynman              :  0.383078E-01 -0.212082E-01  0.350246E-01
   Ionic forces                  :  0.000000E+00  0.000000E+00  0.000000E+00
   Multipole                     : -0.521524E-03 -0.229506E-01 -0.313134E-01
   Pulay + GGA                   : -0.389583E-01  0.456242E-01  0.702472E-03
   Van der Waals                 :  0.154077E-02 -0.229549E-02 -0.434632E-02
   ----------------------------------------------------------------
   Total forces(  25)            :  0.368702E-03 -0.830041E-03  0.673362E-04
  atom #   26
   Hellmann-Feynman              :  0.257930E-01  0.166421E-01  0.484880E-01
   Ionic forces                  :  0.000000E+00  0.000000E+00  0.000000E+00
   Multipole                     :  0.676655E-02  0.327349E-01 -0.199567E-01
   Pulay + GGA                   : -0.359549E-01 -0.464125E-01 -0.280311E-01
   Van der Waals                 :  0.308890E-02 -0.320596E-02  0.589767E-03
   ----------------------------------------------------------------
   Total forces(  26)            : -0.306410E-03 -0.241449E-03  0.109002E-02
  atom #   27
   Hellmann-Feynman              : -0.773449E-01  0.208165E+00  0.171282E+01
   Ionic forces                  :  0.000000E+00  0.000000E+00  0.000000E+00
   Multipole                     : -0.127525E+00  0.435012E-01  0.112114E+00
   Pulay + GGA                   :  0.209759E+00 -0.250177E+00 -0.183014E+01
   Van der Waals                 : -0.432658E-02 -0.522879E-02  0.641584E-02
   ----------------------------------------------------------------
   Total forces(  27)            :  0.561820E-03 -0.373943E-02  0.120935E-02
  atom #   28
   Hellmann-Feynman              :  0.926473E+00 -0.138325E+01 -0.165998E+01
   Ionic forces                  :  0.000000E+00  0.000000E+00  0.000000E+00
   Multipole                     : -0.497222E-01  0.146916E+00  0.154993E+00
   Pulay + GGA                   : -0.875904E+00  0.124672E+01  0.150326E+01
   Van der Waals                 : -0.132901E-02 -0.855108E-02  0.243115E-02
   ----------------------------------------------------------------
   Total forces(  28)            : -0.482156E-03  0.183639E-02  0.705397E-03
  atom #   29
   Hellmann-Feynman              : -0.593009E-01 -0.267160E-01  0.214180E-01
   Ionic forces                  :  0.000000E+00  0.000000E+00  0.000000E+00
   Multipole                     :  0.231217E-01 -0.244108E-01 -0.326005E-01
   Pulay + GGA                   :  0.419761E-01  0.535931E-01  0.794538E-02
   Van der Waals                 : -0.768870E-02 -0.349761E-02  0.216790E-02
   ----------------------------------------------------------------
   Total forces(  29)            : -0.189186E-02 -0.103130E-02 -0.106918E-02
  atom #   30
   Hellmann-Feynman              : -0.463169E-01  0.142376E-01  0.240055E-01
   Ionic forces                  :  0.000000E+00  0.000000E+00  0.000000E+00
   Multipole                     : -0.136766E-01 -0.953761E-02 -0.272759E-01
   Pulay + GGA                   :  0.665149E-01  0.164389E-02  0.126300E-02
   Van der Waals                 : -0.693631E-02 -0.552709E-02  0.132282E-02
   ----------------------------------------------------------------
   Total forces(  30)            : -0.414904E-03  0.816832E-03 -0.684631E-03
  atom #   31
   Hellmann-Feynman              :  0.964129E-02  0.117656E-01  0.438505E-01
   Ionic forces                  :  0.000000E+00  0.000000E+00  0.000000E+00
   Multipole                     :  0.916170E-02 -0.223603E-01  0.176572E-01
   Pulay + GGA                   : -0.964831E-02  0.177063E-01 -0.653308E-01
   Van der Waals                 : -0.932322E-02 -0.683942E-02  0.404631E-02
   ----------------------------------------------------------------
   Total forces(  31)            : -0.168543E-03  0.272157E-03  0.223226E-03
  atom #   32
   Hellmann-Feynman              :  0.519910E-02  0.254986E-01  0.127864E-01
   Ionic forces                  :  0.000000E+00  0.000000E+00  0.000000E+00
   Multipole                     :  0.202857E-01  0.195839E-01 -0.251919E-01
   Pulay + GGA                   : -0.195138E-01 -0.364402E-01  0.932164E-02
   Van der Waals                 : -0.544794E-02 -0.827092E-02  0.227607E-02
   ----------------------------------------------------------------
   Total forces(  32)            :  0.523031E-03  0.371367E-03 -0.807825E-03

  Timings for VdW correction (Tkatchenko-Scheffler 2009 or later):
  | CPU time:        0.136 s, Wall clock time:        0.135 s.
  Removing unitary transformations (pure translations, rotations) from forces on atoms.
  Atomic forces before filtering:
  | Net force on center of mass :   0.453648E-04 -0.157190E-03 -0.896025E-03 eV/A
  | Net torque on center of mass:  -0.903450E-03 -0.330158E-04  0.150517E-02 eV
  Atomic forces after filtering:
  | Net force on center of mass :  -0.958236E-18 -0.148091E-17 -0.130669E-17 eV/A
  | Net torque on center of mass:   0.165952E-17  0.295026E-17 -0.428710E-17 eV

  Energy and forces in a compact form:
  | Total energy uncorrected      :         -0.202086108762100E+05 eV
  | Total energy corrected        :         -0.202086108762100E+05 eV  <-- do not rely on this value for anything but (periodic) metals
  | Electronic free energy        :         -0.202086108762100E+05 eV
  Total atomic forces (unitary forces cleaned) [eV/Ang]:
  |   1          0.376503375956311E-03          0.236463028063679E-03          0.203285510703748E-04
  |   2         -0.295824416180335E-02          0.220824516763393E-02          0.321134419064473E-02
  |   3         -0.267748622323121E-03          0.441225142219037E-03          0.749822892793051E-03
  |   4          0.363954990140520E-03          0.304001043029232E-03          0.591549773746727E-03
  |   5          0.155793758360730E-02         -0.239546823253976E-03          0.346217578121410E-03
  |   6          0.368177663712943E-03          0.110534345567309E-02         -0.158910372400914E-02
  |   7          0.192943358124323E-02         -0.977562383400687E-03         -0.399127734521746E-02
  |   8         -0.170465709730938E-03          0.179034629520674E-03         -0.563704414954705E-03
  |   9         -0.886876471925730E-03          0.350863158776456E-03         -0.464549996960720E-03
  |  10          0.256058735106544E-02          0.310777159334360E-03         -0.120342716841903E-02
  |  11          0.783328511992788E-03         -0.106241242217965E-02          0.193483168964327E-02
  |  12         -0.606475388472791E-03          0.175077618889419E-02         -0.107966752065683E-02
  |  13         -0.126345652720114E-02          0.394122688904667E-04         -0.255430677860594E-03
  |  14         -0.393087308936633E-03          0.563737266066804E-03         -0.359632782064318E-03
  |  15         -0.123707426270563E-02         -0.455918499622672E-03          0.187443094482180E-04
  |  16         -0.279574343313013E-03          0.410288091614508E-03          0.826910617708949E-03
  |  17          0.180648545206260E-03         -0.696095359834352E-03          0.179539282270693E-02
  |  18          0.148385414213247E-02          0.259972257236114E-02          0.821553305289074E-03
  |  19         -0.222465039943157E-02         -0.365252753628341E-02         -0.248960825319165E-02
  |  20          0.101549590808478E-02          0.102673797019865E-02         -0.442215899840824E-03
  |  21          0.113032093367738E-02         -0.191802673925304E-04         -0.804956090351448E-03
  |  22         -0.318701439257227E-03          0.195682037123759E-03          0.680693849036894E-04
  |  23          0.132670708296010E-02         -0.660886823601888E-03          0.162200247961096E-02
  |  24         -0.765174142594210E-03         -0.139806593882882E-02          0.219530163361776E-03
  |  25          0.385987736926679E-03         -0.808704639967850E-03          0.108373907021666E-03
  |  26         -0.303056116490955E-03         -0.217311015824633E-03          0.112341269837920E-02
  |  27          0.580578661240656E-03         -0.374900039890734E-02          0.124698812504364E-02
  |  28         -0.470738400322429E-03          0.182736712093171E-02          0.738879803969043E-03
  |  29         -0.186610917279163E-02         -0.104585432800924E-02         -0.102819946101755E-02
  |  30         -0.403701242024600E-03          0.798762670174657E-03         -0.652515125165619E-03
  |  31         -0.154777526573120E-03          0.269425589824162E-03          0.258926809068552E-03
  |  32          0.526395167951229E-03          0.365201876776546E-03         -0.778590642821382E-03

  ------------------------------------ 
  Start decomposition of the XC Energy 
  ------------------------------------ 
  Hartree-Fock part   :          0.000000000 Ha              0.000000000 eV
  ------------------------------------ 
  X Energy            :        -96.989024606 Ha          -2639.205640826 eV
  C Energy GGA        :         -3.871505534 Ha           -105.349025677 eV
  Total XC Energy     :       -100.860530140 Ha          -2744.554666504 eV
  LDA X and C from self-consistent density 
  X Energy LDA        :        -88.010023396 Ha          -2394.874586489 eV
  C Energy LDA        :         -7.533035544 Ha           -204.984326632 eV
  ------------------------------------ 
  End decomposition of the XC Energy 
  ------------------------------------ 
   
  ESP charge fitting starts.
  | Calculation :  00000001  of  00000001
  | Full density
  Computing multipole expansion for total density.
  Generating points for esp charges.
  Partitioning the integration grid into batches with parallel hashing+maxmin method.
  | Number of batches:     3882
  | Maximal batch size:     199
  | Minimal batch size:      93
  | Average batch size:     125.268
  | Standard deviation of batch sizes:      18.580

  Integration load balanced across    32 MPI tasks.
  Work distribution over tasks is as follows:
  Initializing partition tables, free-atom densities, potentials, etc. across the integration grid (initialize_grid_storage).
  | Original list of interatomic distances with          32 x         32 entries is created.
  | Net number of integration points:   486292
  | of which are non-zero points    :   486292
  Summing up potential from multipole expanded  density.
  Summing up the Hartree potential.
  Time summed over all CPUs for potential: real work        6.452 s, elapsed        6.899 s
  Fitting esp charges to potential.
  |
  | ESP charges fitted to the electrostatic potential :
  |
  | Atom         1: C, ESP charge:      0.77425651
  |
  | Atom         2: C, ESP charge:     -0.52967771
  |
  | Atom         3: O, ESP charge:      0.44664150
  |
  | Atom         4: H, ESP charge:     -0.23222943
  |
  | Atom         5: H, ESP charge:     -0.22417734
  |
  | Atom         6: H, ESP charge:     -0.20381445
  |
  | Atom         7: N, ESP charge:      0.40781612
  |
  | Atom         8: C, ESP charge:     -0.47681324
  |
  | Atom         9: C, ESP charge:     -0.52837437
  |
  | Atom        10: O, ESP charge:      0.55294784
  |
  | Atom        11: H, ESP charge:     -0.24968513
  |
  | Atom        12: H, ESP charge:      0.06221671
  |
  | Atom        13: C, ESP charge:      0.38646547
  |
  | Atom        14: H, ESP charge:     -0.09023644
  |
  | Atom        15: H, ESP charge:     -0.13472943
  |
  | Atom        16: H, ESP charge:     -0.10010398
  |
  | Atom        17: N, ESP charge:      0.77722327
  |
  | Atom        18: C, ESP charge:     -0.75395043
  |
  | Atom        19: C, ESP charge:     -0.28771216
  |
  | Atom        20: O, ESP charge:      0.51132795
  |
  | Atom        21: H, ESP charge:     -0.38844917
  |
  | Atom        22: H, ESP charge:      0.15305135
  |
  | Atom        23: C, ESP charge:      0.77039895
  |
  | Atom        24: H, ESP charge:     -0.21430522
  |
  | Atom        25: H, ESP charge:     -0.19971024
  |
  | Atom        26: H, ESP charge:     -0.17746327
  |
  | Atom        27: N, ESP charge:      0.36385621
  |
  | Atom        28: C, ESP charge:      0.10916515
  |
  | Atom        29: H, ESP charge:     -0.30893544
  |
  | Atom        30: H, ESP charge:     -0.10918358
  |
  | Atom        31: H, ESP charge:     -0.06925884
  |
  | Atom        32: H, ESP charge:     -0.03655716

  RRMS:       0.00313448

  Done.

------------------------------------------------------------------------------
  Final output of selected total energy values:

  The following output summarizes some interesting total energy values
  at the end of a run (AFTER all relaxation, molecular dynamics, etc.).

  | Total energy of the DFT / Hartree-Fock s.c.f. calculation      :         -20208.610876210 eV
  | Final zero-broadening corrected energy (caution - metals only) :         -20208.610876210 eV
  | For reference only, the value of 1 Hartree used in FHI-aims is :             27.211384500 eV

  Before relying on these values, please be sure to understand exactly which
  total energy value is referred to by a given number. Different objects may
  all carry the same name 'total energy'. Definitions:

  Total energy of the DFT / Hartree-Fock s.c.f. calculation:
  | Note that this energy does not include ANY quantities calculated after the
  | s.c.f. cycle, in particular not ANY RPA, MP2, etc. many-body perturbation terms.

  Final zero-broadening corrected energy:
  | For metallic systems only, a broadening of the occupation numbers at the Fermi
  | level can be extrapolated back to zero broadening by an electron-gas inspired
  | formula. For all systems that are not real metals, this value can be
  | meaningless and should be avoided.

------------------------------------------------------------------------------
  Methods described in the following list of references were used in this FHI-aims run.
  If you publish the results, please make sure to cite these reference if they apply.
  FHI-aims is an academic code, and for our developers (often, Ph.D. students
  and postdocs), scientific credit in the community is essential.
  Thank you for helping us!

  For any use of FHI-aims, please cite:

    Volker Blum, Ralf Gehrke, Felix Hanke, Paula Havu, Ville Havu,
    Xinguo Ren, Karsten Reuter, and Matthias Scheffler
    'Ab initio molecular simulations with numeric atom-centered orbitals'
    Computer Physics Communications 180, 2175-2196 (2009)
    http://dx.doi.org/10.1016/j.cpc.2009.06.022


  The scalable eigensolver library ELPA was used in your run.
  ELPA is essential especially for large systems on hundreds or thousands of CPUs.
  For ELPA, please cite:

    Andreas Marek, Volker Blum, Rainer Johanni, Ville Havu, Bruno Lang,
    Thomas Auckenthaler, Alexander Heinecke, Hans-Joachim Bungartz, and Hermann Lederer,
    'The ELPA Library - Scalable Parallel Eigenvalue Solutions
    for Electronic Structure Theory and Computational Science'
    The Journal of Physics: Condensed Matter 26, 213201 (2014).
    http://dx.doi.org/10.1088/0953-8984/26/21/213201


  For ELPA's efficient two-stage tridiagonalization used in your run, please cite:

    T. Auckenthaler, V. Blum, H.-J. Bungartz, T. Huckle, R. Johanni, L. Kraemer,
    B. Lang, H. Lederer, and P. R. Willems,
    'Parallel solution of partial symmetric eigenvalue problems'
    'from  electronic structure calculations'
    Parallel Computing 37, 783-794 (2011).
    http://dx.doi.org/10.1016/j.parco.2011.05.002


  For the real-space grid partitioning and parallelization used in this calculation, please cite:

    Ville Havu, Volker Blum, Paula Havu, and Matthias Scheffler,
    'Efficient O(N) integration for all-electron electronic structure calculation'
    'using numerically tabulated basis functions'
    Journal of Computational Physics 228, 8367-8379 (2009).
    http://dx.doi.org/10.1016/j.jcp.2009.08.008

  Of course, there are many other important community references, e.g., those cited in the
  above references. Our list is limited to references that describe implementations in the
  FHI-aims code. The reason is purely practical (length of this list) - please credit others as well.

------------------------------------------------------------
          Leaving FHI-aims.
          Date     :  20170309, Time     :  181728.354

          Computational steps:
          | Number of self-consistency cycles          :           14

          Detailed time accounting                     :  max(cpu_time)    wall_clock(cpu1)
          | Total time                                 :       32.574 s          32.758 s
          | Preparation time                           :        0.240 s           0.236 s
          | Grid partitioning                          :        0.296 s           0.294 s
          | Preloading free-atom quantities on grid    :        0.028 s           0.028 s
          | Free-atom superposition energy             :        0.044 s           0.041 s
          | Total time for integrations                :       12.321 s          12.301 s
          | Total time for solution of K.-S. equations :        0.584 s           0.546 s
          | Total time for density & force components  :       10.433 s          10.425 s
          | Total time for mixing                      :        0.132 s           0.105 s
          | Total time for Hartree multipole update    :        0.064 s           0.059 s
          | Total time for Hartree multipole sum       :        6.292 s           6.276 s
          | Total time for total energy evaluation     :        0.040 s           0.021 s
          | Total time for vdW correction              :        0.136 s           0.135 s

          Have a nice day.
------------------------------------------------------------
