  MPI-parallelism will be employed.
------------------------------------------------------------
          Invoking FHI-aims ...
          Version 150427
          Git rev.: 9dd23e0 BL: Update Version stamp
          Compiled on 2015/11/03 at 22:05:20 on host eos03.

          When using FHI-aims, please cite the following reference:

          Volker Blum, Ralf Gehrke, Felix Hanke, Paula Havu,
          Ville Havu, Xinguo Ren, Karsten Reuter, and Matthias Scheffler,
          'Ab Initio Molecular Simulations with Numeric Atom-Centered Orbitals: FHI-aims',
          Computer Physics Communications 180, 2175-2196 (2009)

          For any questions about FHI-aims, please visit the aimsclub website
          with its forums and wiki. Contributions to both the forums and the
          wiki are warmly encouraged - they are for you, and everyone is welcome there.

------------------------------------------------------------

  Date     :  20170309, Time     :  183325.468
  Time zero on CPU 1             :   0.384023000000000E+00  s.
  Internal wall clock time zero  :           258316405.468  s.

  Using       32 parallel tasks.
  Task        0 on host eos366 reporting.
  Task        1 on host eos366 reporting.
  Task        2 on host eos366 reporting.
  Task        3 on host eos366 reporting.
  Task        4 on host eos366 reporting.
  Task        5 on host eos366 reporting.
  Task        6 on host eos366 reporting.
  Task        7 on host eos366 reporting.
  Task        8 on host eos366 reporting.
  Task        9 on host eos366 reporting.
  Task       10 on host eos366 reporting.
  Task       11 on host eos366 reporting.
  Task       12 on host eos366 reporting.
  Task       13 on host eos366 reporting.
  Task       14 on host eos366 reporting.
  Task       15 on host eos366 reporting.
  Task       16 on host eos366 reporting.
  Task       17 on host eos366 reporting.
  Task       18 on host eos366 reporting.
  Task       19 on host eos366 reporting.
  Task       20 on host eos366 reporting.
  Task       21 on host eos366 reporting.
  Task       22 on host eos366 reporting.
  Task       23 on host eos366 reporting.
  Task       24 on host eos366 reporting.
  Task       25 on host eos366 reporting.
  Task       26 on host eos366 reporting.
  Task       27 on host eos366 reporting.
  Task       28 on host eos366 reporting.
  Task       29 on host eos366 reporting.
  Task       30 on host eos366 reporting.
  Task       31 on host eos366 reporting.

  Performing system and environment tests:
  | Environment variable OMP_NUM_THREADS correctly set to 1.
  | Stacksize not measured: no C compiler
  | Checking for scalapack...
  | Testing pdtran()...
  | All pdtran() tests passed.

  Obtaining array dimensions for all initial allocations:
  
  -----------------------------------------------------------------------
  Parsing control.in (first pass over file, find array dimensions only).
  The contents of control.in will be repeated verbatim below
  unless switched off by setting 'verbatim_writeout .false.' .
  in the first line of control.in .
  -----------------------------------------------------------------------
  
  #########################################################################################
  #
  # Input for System
  #
  #########################################################################################
  #
  #
  #  Physical model
  #
    xc                 pbe
    vdw_correction_hirshfeld
    spin               none
    charge             0.
  #
  #  SCF convergence
  #
    occupation_type    gaussian 0.05
    mixer              pulay
      n_max_pulay        10
      charge_mix_param   0.5
    sc_accuracy_rho    1E-4
    sc_accuracy_eev    1E-2
    sc_accuracy_etot   1E-5
    sc_accuracy_forces 1E-4
    sc_iter_limit      1000
  #
  #  ESP charge
  #
    output esp
    esp equal_grid_n 80 80 80
  #
  #
  ################################################################################
  #
  #  FHI-aims code project
  # Volker Blum, Fritz Haber Institute Berlin, 2009
  #
  #  Suggested "tight" defaults for H atom (to be pasted into control.in file)
  #
  ################################################################################
    species        H
  #     global species definitions
      nucleus             1
      mass                1.00794
  #
      l_hartree           6
  #
      cut_pot             4.0  2.0  1.0
      basis_dep_cutoff    1e-4
  #
      radial_base         24 7.0
      radial_multiplier   2
      angular_grids       specified
        division   0.1930   50
        division   0.3175  110
        division   0.4293  194
        division   0.5066  302
        division   0.5626  434
  #      division   0.5922  590
  #      division   0.6227  974
  #      division   0.6868 1202
  #      outer_grid  770
        outer_grid  434
  ################################################################################
  #
  #  Definition of "minimal" basis
  #
  ################################################################################
  #     valence basis states
      valence      1  s   1.
  #     ion occupancy
      ion_occ      1  s   0.5
  ################################################################################
  #
  #  Suggested additional basis functions. For production calculations,
  #  uncomment them one after another (the most important basis functions are
  #  listed first).
  #
  #  Basis constructed for dimers: 0.5 A, 0.7 A, 1.0 A, 1.5 A, 2.5 A
  #
  ################################################################################
  #  "First tier" - improvements: -1014.90 meV to -62.69 meV
       hydro 2 s 2.1
       hydro 2 p 3.5
  #  "Second tier" - improvements: -12.89 meV to -1.83 meV
       hydro 1 s 0.85
       hydro 2 p 3.7
       hydro 2 s 1.2
       hydro 3 d 7
  #  "Third tier" - improvements: -0.25 meV to -0.12 meV
  #     hydro 4 f 11.2
  #     hydro 3 p 4.8
  #     hydro 4 d 9
  #     hydro 3 s 3.2
  ################################################################################
  #
  # For methods that use the localized form of the "resolution of identity" for
  # the two-electron Coulomb operator (RI_method LVL), particularly Hartree-Fock and
  # hybrid density functional calculations, the highest accuracy can be obtained by
  # uncommenting the line beginning with "for_aux"  below, thus adding an extra g radial
  # function to the construction of the product basis set for the expansion.
  # See Ref. New J. Phys. 17, 093020 (2015) for more information, particularly Figs. 1 and 6.
  #
  ################################################################################
  #
  # for_aux hydro 5 g 6.0
  ################################################################################
  #
  #  FHI-aims code project
  # Volker Blum, Fritz Haber Institute Berlin, 2009
  #
  #  Suggested "tight" defaults for C atom (to be pasted into control.in file)
  #
  ################################################################################
    species        C
  #     global species definitions
      nucleus             6
      mass                12.0107
  #
      l_hartree           6
  #
      cut_pot             4.0  2.0  1.0
      basis_dep_cutoff    1e-4
  #
      radial_base         34 7.0
      radial_multiplier   2
      angular_grids specified
        division   0.2187   50
        division   0.4416  110
        division   0.6335  194
        division   0.7727  302
        division   0.8772  434
  #      division   0.9334  590
  #      division   0.9924  770
  #      division   1.0230  974
  #      division   1.5020 1202
  #     outer_grid  974
        outer_grid  434
  ################################################################################
  #
  #  Definition of "minimal" basis
  #
  ################################################################################
  #     valence basis states
      valence      2  s   2.
      valence      2  p   2.
  #     ion occupancy
      ion_occ      2  s   1.
      ion_occ      2  p   1.
  ################################################################################
  #
  #  Suggested additional basis functions. For production calculations,
  #  uncomment them one after another (the most important basis functions are
  #  listed first).
  #
  #  Constructed for dimers: 1.0 A, 1.25 A, 1.5 A, 2.0 A, 3.0 A
  #
  ################################################################################
  #  "First tier" - improvements: -1214.57 meV to -155.61 meV
       hydro 2 p 1.7
       hydro 3 d 6
       hydro 2 s 4.9
  #  "Second tier" - improvements: -67.75 meV to -5.23 meV
       hydro 4 f 9.8
       hydro 3 p 5.2
       hydro 3 s 4.3
       hydro 5 g 14.4
       hydro 3 d 6.2
  #  "Third tier" - improvements: -2.43 meV to -0.60 meV
  #     hydro 2 p 5.6
  #     hydro 2 s 1.4
  #     hydro 3 d 4.9
  #     hydro 4 f 11.2
  #  "Fourth tier" - improvements: -0.39 meV to -0.18 meV
  #     hydro 2 p 2.1
  #     hydro 5 g 16.4
  #     hydro 4 d 13.2
  #     hydro 3 s 13.6
  #     hydro 4 f 17.6
  #  Further basis functions - improvements: -0.08 meV and below
  #     hydro 3 s 2
  #     hydro 3 p 6
  #     hydro 4 d 20
  ################################################################################
  #
  # For methods that use the localized form of the "resolution of identity" for
  # the two-electron Coulomb operator (RI_method LVL), particularly Hartree-Fock and
  # hybrid density functional calculations, the highest accuracy can be obtained by
  # uncommenting the line beginning with "for_aux"  below, thus adding an extra g radial
  # function to the construction of the product basis set for the expansion.
  # See Ref. New J. Phys. 17, 093020 (2015) for more information, particularly Figs. 1 and 6.
  #
  ################################################################################
  #
  # for_aux hydro 5 g 6.0
  ################################################################################
  #
  #  FHI-aims code project
  # Volker Blum, Fritz Haber Institute Berlin, 2009
  #
  #  Suggested "tight" defaults for N atom (to be pasted into control.in file)
  #
  ################################################################################
    species        N
  #     global species definitions
      nucleus             7
      mass                14.0067
  #
      l_hartree           6
  #
      cut_pot             4.0  2.0  1.0
      basis_dep_cutoff    1e-4
  #
      radial_base         35 7.0
      radial_multiplier   2
      angular_grids       specified
        division   0.1841   50
        division   0.3514  110
        division   0.5126  194
        division   0.6292  302
        division   0.6939  434
  #      division   0.7396  590
  #      division   0.7632  770
  #      division   0.8122  974
  #      division   1.1604 1202
  #      outer_grid  974
        outer_grid  434
  ################################################################################
  #
  #  Definition of "minimal" basis
  #
  ################################################################################
  #     valence basis states
      valence      2  s   2.
      valence      2  p   3.
  #     ion occupancy
      ion_occ      2  s   1.
      ion_occ      2  p   2.
  ################################################################################
  #
  #  Suggested additional basis functions. For production calculations,
  #  uncomment them one after another (the most important basis functions are
  #  listed first).
  #
  #  Constructed for dimers: 1.0 A, 1.1 A, 1.5 A, 2.0 A, 3.0 A
  #
  ################################################################################
  #  "First tier" - improvements: -1193.42 meV to -220.60 meV
       hydro 2 p 1.8
       hydro 3 d 6.8
       hydro 3 s 5.8
  #  "Second tier" - improvements: -80.21 meV to -6.86 meV
       hydro 4 f 10.8
       hydro 3 p 5.8
       hydro 1 s 0.8
       hydro 5 g 16
       hydro 3 d 4.9
  #  "Third tier" - improvements: -4.29 meV to -0.53 meV
  #     hydro 3 s 16
  #     ionic 2 p auto
  #     hydro 3 d 6.6
  #     hydro 4 f 11.6
  #  "Fourth tier" - improvements: -0.75 meV to -0.25 meV
  #     hydro 2 p 4.5
  #     hydro 2 s 2.4
  #     hydro 5 g 14.4
  #     hydro 4 d 14.4
  #     hydro 4 f 16.8
  # Further basis functions - -0.21 meV and below
  #     hydro 3 p 14.8
  #     hydro 3 s 4.4
  #     hydro 3 d 19.6
  #     hydro 5 g 12.8
  ################################################################################
  #
  # For methods that use the localized form of the "resolution of identity" for
  # the two-electron Coulomb operator (RI_method LVL), particularly Hartree-Fock and
  # hybrid density functional calculations, the highest accuracy can be obtained by
  # uncommenting the line beginning with "for_aux"  below, thus adding an extra g radial
  # function to the construction of the product basis set for the expansion.
  # See Ref. New J. Phys. 17, 093020 (2015) for more information, particularly Figs. 1 and 6.
  #
  ################################################################################
  #
  # for_aux hydro 5 g 6.0
  ################################################################################
  #
  #  FHI-aims code project
  # Volker Blum, Fritz Haber Institute Berlin, 2009
  #
  #  Suggested "tight" defaults for O atom (to be pasted into control.in file)
  #
  ################################################################################
    species        O
  #     global species definitions
      nucleus             8
      mass                15.9994
  #
      l_hartree           6
  #
      cut_pot             4.0  2.0  1.0
      basis_dep_cutoff    1e-4
  #
      radial_base         36 7.0
      radial_multiplier   2
       angular_grids specified
        division   0.1817   50
        division   0.3417  110
        division   0.4949  194
        division   0.6251  302
        division   0.8014  434
  #      division   0.8507  590
  #      division   0.8762  770
  #      division   0.9023  974
  #      division   1.2339 1202
  #      outer_grid 974
        outer_grid  434
  ################################################################################
  #
  #  Definition of "minimal" basis
  #
  ################################################################################
  #     valence basis states
      valence      2  s   2.
      valence      2  p   4.
  #     ion occupancy
      ion_occ      2  s   1.
      ion_occ      2  p   3.
  ################################################################################
  #
  #  Suggested additional basis functions. For production calculations,
  #  uncomment them one after another (the most important basis functions are
  #  listed first).
  #
  #  Constructed for dimers: 1.0 A, 1.208 A, 1.5 A, 2.0 A, 3.0 A
  #
  ################################################################################
  #  "First tier" - improvements: -699.05 meV to -159.38 meV
       hydro 2 p 1.8
       hydro 3 d 7.6
       hydro 3 s 6.4
  #  "Second tier" - improvements: -49.91 meV to -5.39 meV
       hydro 4 f 11.6
       hydro 3 p 6.2
       hydro 3 d 5.6
       hydro 5 g 17.6
       hydro 1 s 0.75
  #  "Third tier" - improvements: -2.83 meV to -0.50 meV
  #     ionic 2 p auto
  #     hydro 4 f 10.8
  #     hydro 4 d 4.7
  #     hydro 2 s 6.8
  #  "Fourth tier" - improvements: -0.40 meV to -0.12 meV
  #     hydro 3 p 5
  #     hydro 3 s 3.3
  #     hydro 5 g 15.6
  #     hydro 4 f 17.6
  #     hydro 4 d 14
  # Further basis functions - -0.08 meV and below
  #     hydro 3 s 2.1
  #     hydro 4 d 11.6
  #     hydro 3 p 16
  #     hydro 2 s 17.2
  ################################################################################
  #
  # For methods that use the localized form of the "resolution of identity" for
  # the two-electron Coulomb operator (RI_method LVL), particularly Hartree-Fock and
  # hybrid density functional calculations, the highest accuracy can be obtained by
  # uncommenting the line beginning with "for_aux"  below, thus adding an extra g radial
  # function to the construction of the product basis set for the expansion.
  # See Ref. New J. Phys. 17, 093020 (2015) for more information, particularly Figs. 1 and 6.
  #
  ################################################################################
  #
  # for_aux hydro 5 g 6.0
  
  -----------------------------------------------------------------------
  Completed first pass over input file control.in .
  -----------------------------------------------------------------------
  
  
  -----------------------------------------------------------------------
  Parsing geometry.in (first pass over file, find array dimensions only).
  The contents of geometry.in will be repeated verbatim below
  unless switched off by setting 'verbatim_writeout .false.' .
  in the first line of geometry.in .
  -----------------------------------------------------------------------
  
  #
  # This is the geometry file that corresponds to the current relaxation step.
  # If you do not want this file to be written, set the "write_restart_geometry" flag to .false.
  #
  atom      -1.54191076      0.43997486     -0.79110106 C
  atom      -1.02860981      1.14845069      0.44910101 C
  atom      -0.52936874      2.26671939      0.37851365 O
  atom      -0.75409331      0.47937291     -1.55358084 H
  atom      -2.39446085      1.01090910     -1.18147055 H
  atom      -1.86602454     -0.59556673     -0.64049819 H
  atom      -1.10736466      0.50030391      1.66685824 N
  atom      -1.80743693     -0.73836708      2.02250633 C
  atom      -1.17746230     -2.01123981      1.39149486 C
  atom      -1.84370516     -3.01971956      1.18608617 O
  atom      -0.82231048      1.10591635      2.43200581 H
  atom      -1.60959037     -0.86598878      3.09996772 H
  atom      -3.32652817     -0.69395982      1.84182685 C
  atom      -3.61331058     -0.57510852      0.79028684 H
  atom      -3.74298371      0.14589866      2.41144495 H
  atom      -3.77133538     -1.62799018      2.20141397 H
  atom       0.16389246     -1.91758993      1.14331730 N
  atom       1.03541463     -3.05423619      0.82302077 C
  atom       0.82778320     -3.64516004     -0.59675887 C
  atom       1.29472338     -4.74317961     -0.88429585 O
  atom       0.59901147     -1.02841630      1.36690839 H
  atom       2.05168282     -2.62986141      0.78887719 H
  atom       1.00862480     -4.15375528      1.88734998 C
  atom       1.69313921     -4.95580402      1.59240728 H
  atom       0.00262070     -4.57608784      1.98522547 H
  atom       1.32457816     -3.74823228      2.85704093 H
  atom       0.19361444     -2.83287036     -1.48323265 N
  atom      -0.09658652     -3.23901728     -2.84366918 C
  atom      -0.22054800     -1.98316442     -1.12102373 H
  atom       0.18081202     -2.44766693     -3.55281153 H
  atom      -1.16212425     -3.47967381     -2.97547912 H
  atom       0.49296718     -4.13710171     -3.05711214 H
  
  -----------------------------------------------------------------------
  Completed first pass over input file geometry.in .
  -----------------------------------------------------------------------
  

  Basic array size parameters:
  | Number of species                 :        4
  | Number of atoms                   :       32
  | Max. basis fn. angular momentum   :        4
  | Max. atomic/ionic basis occupied n:        2
  | Max. number of basis fn. types    :        2
  | Max. radial fns per species/type  :        8
  | Max. logarithmic grid size        :     1301
  | Max. radial integration grid size :       73
  | Max. angular integration grid size:      434
  | Max. angular grid division number :        8
  | Radial grid for Hartree potential :     1301
  | Number of spin channels           :        1

------------------------------------------------------------
          Reading file control.in.
------------------------------------------------------------
  XC: Using PBE gradient-corrected functionals.
  Spin treatment: No spin polarisation.
  Charge =   0.000000E+00: Neutral system requested explicitly.
  Occupation type: Gaussian broadening, width =   0.500000E-01 eV.
  Using pulay charge density mixing.
  Pulay mixing - number of memorized iterations:   10
  Charge density mixing - mixing parameter:     0.5000
  Convergence accuracy of self-consistent charge density:  0.1000E-03
  Convergence accuracy of sum of eigenvalues:  0.1000E-01
  Convergence accuracy of total energy:  0.1000E-04
  Convergence accuracy of forces:  0.1000E-03
  Maximum number of s.-c. iterations  :  1000
  Fitting ESP-charges to Potential. 
  | Esp charge output options: 
  | ESP Grid method: 3, cubic grid
  | Number of points in x, ,y, z:  0080 0080 0080
  |
 
  Reading configuration options for species H                   .
  | Found nuclear charge :   1.0000
  | Found atomic mass :    1.00794000000000      amu
  | Found l_max for Hartree potential  :   6
  | Found cutoff potl. onset [A], width [A], scale factor :    4.00000    2.00000    1.00000
  | Threshold for basis-dependent cutoff potential is   0.100000E-03
  | Found data for basic radial integration grid :    24 points, outermost radius =    7.000 A
  | Found multiplier for basic radial grid :   2
  | Found angular grid specification: user-specified.
  | Specified grid contains     6 separate shells.
  | Check grid settings after all constraints further below.
  | Found free-atom valence shell :  1 s   1.000
  | No ionic wave fns used. Skipping ion_occ.
  | Found hydrogenic basis function :  2 s   2.100
  | Found hydrogenic basis function :  2 p   3.500
  | Found hydrogenic basis function :  1 s   0.850
  | Found hydrogenic basis function :  2 p   3.700
  | Found hydrogenic basis function :  2 s   1.200
  | Found hydrogenic basis function :  3 d   7.000
  Species H                   : Missing cutoff potential type.
  Defaulting to exp(1/x)/(1-x)^2 type cutoff potential.
  Species H : No 'logarithmic' tag. Using default grid for free atom:
  | Default logarithmic grid data [bohr] : 0.1000E-03 0.1000E+03 0.1012E+01
  Species H : On-site basis accuracy parameter (for Gram-Schmidt orthonormalisation) not specified.
  Using default value basis_acc =  0.1000000E-03.
  Species H                   : Using default innermost maximum threshold i_radial=  2 for radial functions.
  Species H                   : Default cutoff onset for free atom density etc. : 0.40000000E+01 AA.
  Species H                   : Basic radial grid will be enhanced according to radial_multiplier =   2, to contain    49 grid points.
 
  Reading configuration options for species C                   .
  | Found nuclear charge :   6.0000
  | Found atomic mass :    12.0107000000000      amu
  | Found l_max for Hartree potential  :   6
  | Found cutoff potl. onset [A], width [A], scale factor :    4.00000    2.00000    1.00000
  | Threshold for basis-dependent cutoff potential is   0.100000E-03
  | Found data for basic radial integration grid :    34 points, outermost radius =    7.000 A
  | Found multiplier for basic radial grid :   2
  | Found angular grid specification: user-specified.
  | Specified grid contains     6 separate shells.
  | Check grid settings after all constraints further below.
  | Found free-atom valence shell :  2 s   2.000
  | Found free-atom valence shell :  2 p   2.000
  | No ionic wave fns used. Skipping ion_occ.
  | No ionic wave fns used. Skipping ion_occ.
  | Found hydrogenic basis function :  2 p   1.700
  | Found hydrogenic basis function :  3 d   6.000
  | Found hydrogenic basis function :  2 s   4.900
  | Found hydrogenic basis function :  4 f   9.800
  | Found hydrogenic basis function :  3 p   5.200
  | Found hydrogenic basis function :  3 s   4.300
  | Found hydrogenic basis function :  5 g  14.400
  | Found hydrogenic basis function :  3 d   6.200
  Species C                   : Missing cutoff potential type.
  Defaulting to exp(1/x)/(1-x)^2 type cutoff potential.
  Species C : No 'logarithmic' tag. Using default grid for free atom:
  | Default logarithmic grid data [bohr] : 0.1000E-03 0.1000E+03 0.1012E+01
  Species C : On-site basis accuracy parameter (for Gram-Schmidt orthonormalisation) not specified.
  Using default value basis_acc =  0.1000000E-03.
  Species C                   : Using default innermost maximum threshold i_radial=  2 for radial functions.
  Species C                   : Default cutoff onset for free atom density etc. : 0.40000000E+01 AA.
  Species C                   : Basic radial grid will be enhanced according to radial_multiplier =   2, to contain    69 grid points.
 
  Reading configuration options for species N                   .
  | Found nuclear charge :   7.0000
  | Found atomic mass :    14.0067000000000      amu
  | Found l_max for Hartree potential  :   6
  | Found cutoff potl. onset [A], width [A], scale factor :    4.00000    2.00000    1.00000
  | Threshold for basis-dependent cutoff potential is   0.100000E-03
  | Found data for basic radial integration grid :    35 points, outermost radius =    7.000 A
  | Found multiplier for basic radial grid :   2
  | Found angular grid specification: user-specified.
  | Specified grid contains     6 separate shells.
  | Check grid settings after all constraints further below.
  | Found free-atom valence shell :  2 s   2.000
  | Found free-atom valence shell :  2 p   3.000
  | No ionic wave fns used. Skipping ion_occ.
  | No ionic wave fns used. Skipping ion_occ.
  | Found hydrogenic basis function :  2 p   1.800
  | Found hydrogenic basis function :  3 d   6.800
  | Found hydrogenic basis function :  3 s   5.800
  | Found hydrogenic basis function :  4 f  10.800
  | Found hydrogenic basis function :  3 p   5.800
  | Found hydrogenic basis function :  1 s   0.800
  | Found hydrogenic basis function :  5 g  16.000
  | Found hydrogenic basis function :  3 d   4.900
  Species N                   : Missing cutoff potential type.
  Defaulting to exp(1/x)/(1-x)^2 type cutoff potential.
  Species N : No 'logarithmic' tag. Using default grid for free atom:
  | Default logarithmic grid data [bohr] : 0.1000E-03 0.1000E+03 0.1012E+01
  Species N : On-site basis accuracy parameter (for Gram-Schmidt orthonormalisation) not specified.
  Using default value basis_acc =  0.1000000E-03.
  Species N                   : Using default innermost maximum threshold i_radial=  2 for radial functions.
  Species N                   : Default cutoff onset for free atom density etc. : 0.40000000E+01 AA.
  Species N                   : Basic radial grid will be enhanced according to radial_multiplier =   2, to contain    71 grid points.
 
  Reading configuration options for species O                   .
  | Found nuclear charge :   8.0000
  | Found atomic mass :    15.9994000000000      amu
  | Found l_max for Hartree potential  :   6
  | Found cutoff potl. onset [A], width [A], scale factor :    4.00000    2.00000    1.00000
  | Threshold for basis-dependent cutoff potential is   0.100000E-03
  | Found data for basic radial integration grid :    36 points, outermost radius =    7.000 A
  | Found multiplier for basic radial grid :   2
  | Found angular grid specification: user-specified.
  | Specified grid contains     6 separate shells.
  | Check grid settings after all constraints further below.
  | Found free-atom valence shell :  2 s   2.000
  | Found free-atom valence shell :  2 p   4.000
  | No ionic wave fns used. Skipping ion_occ.
  | No ionic wave fns used. Skipping ion_occ.
  | Found hydrogenic basis function :  2 p   1.800
  | Found hydrogenic basis function :  3 d   7.600
  | Found hydrogenic basis function :  3 s   6.400
  | Found hydrogenic basis function :  4 f  11.600
  | Found hydrogenic basis function :  3 p   6.200
  | Found hydrogenic basis function :  3 d   5.600
  | Found hydrogenic basis function :  5 g  17.600
  | Found hydrogenic basis function :  1 s   0.750
  Species O                   : Missing cutoff potential type.
  Defaulting to exp(1/x)/(1-x)^2 type cutoff potential.
  Species O : No 'logarithmic' tag. Using default grid for free atom:
  | Default logarithmic grid data [bohr] : 0.1000E-03 0.1000E+03 0.1012E+01
  Species O : On-site basis accuracy parameter (for Gram-Schmidt orthonormalisation) not specified.
  Using default value basis_acc =  0.1000000E-03.
  Species O                   : Using default innermost maximum threshold i_radial=  2 for radial functions.
  Species O                   : Default cutoff onset for free atom density etc. : 0.40000000E+01 AA.
  Species O                   : Basic radial grid will be enhanced according to radial_multiplier =   2, to contain    73 grid points.
 
  Finished reading input file 'control.in'. Consistency checks are next.
 
  Target number of points in a grid batch is not set. Defaulting to  100
  Method for grid partitioning is not set. Defaulting to parallel hash+maxmin partitioning.
  Batch size limit is not set. Defaulting to    200
  By default, will store active basis functions for each batch.
  If in need of memory, prune_basis_once .false. can be used to disable this option.
  communication_type for Hartree potential was not specified.
  Defaulting to calc_hartree .
  Pulay mixer: Number of initial linear mixing iterations not set.
  Defaulting to    0 iterations.
  Work space size for distributed Hartree potential not set.
  Defaulting to   0.200000E+03 MB.
  Algorithm-dependent basis array size parameters:
  | n_max_pulay                         :       10
  Geometry relaxation not requested: no relaxation will be performed.
  Handling of forces: Unphysical translation and rotation will be removed from forces.
  No accuracy limit for integral partition fn. given. Defaulting to  0.1000E-14.
  No threshold value for u(r) in integrations given. Defaulting to  0.1000E-05.
  No accuracy for occupation numbers given. Defaulting to  0.1000E-07.
  No threshold value for occupation numbers given. Defaulting to  0.0000E+00.
  No accuracy for fermi level given. Defaulting to  0.1000E-19.
  Maximum # of iterations to find E_F not set. Defaulting to  200.
  Preferred method for the eigenvalue solver ('KS_method') not specified in 'control.in'.
  Calling blacs routine to test compilation state
  Since scalapack support is enabled, defaulting to 'elpa'.
  Preferred method for the MBD eigenvalue solver ('mbd_eigensolver') not specified in 'control.in'.
  Calling blacs routine to test compilation state
  Since scalapack support is enabled, defaulting to 'scaLAPACK'.
  Will not use alltoall communication since running on < 1024 CPUs.
  Threshold for basis singularities not set.
  Default threshold for basis singularities:  0.1000E-04
  partition_type (choice of integration weights) for integrals was not specified.
  | Using a version of the partition function of Stratmann and coworkers ('stratmann_smoother').
  | At each grid point, the set of atoms used to build the partition table is smoothly restricted to
  | only those atoms whose free-atom density would be non-zero at that grid point.
  Partitioning for Hartree potential was not defined. Using partition_type for integrals.
  | Adjusted default value of keyword multip_moments_threshold to:       0.10000000E-11
  | This value may affect high angular momentum components of the Hartree potential in periodic systems.
  No q(lm)/r^(l+1) cutoff set for long-range Hartree potential.
  | Using default value of  0.100000E-09 .
  | Verify using the multipole_threshold keyword.
  Defaulting to new monopole extrapolation.
  Density update method: automatic selection selected.
------------------------------------------------------------


------------------------------------------------------------
          Reading geometry description geometry.in.
------------------------------------------------------------
 * Warning! You did not set the 'relativistic' flag in input file 'control.in'.
 * Since you are not attempting to treat any elements beyond Ca(Z=20), FHI-aims
 * will default to 'relativistic none'.
 * You must ensure that this is really what you want!!
 * For example, DO NOT compute total-energy differences between results from
 * different settings of the 'relativistic' flag.
  Input structure read successfully.
  The structure contains       32 atoms,  and a total of        116.000 electrons.

  Input geometry:
  | No unit cell requested.
  | Atomic structure:
  |       Atom                x [A]            y [A]            z [A]
  |    1: Species C             -1.541911         0.439975        -0.791101
  |    2: Species C             -1.028610         1.148451         0.449101
  |    3: Species O             -0.529369         2.266719         0.378514
  |    4: Species H             -0.754093         0.479373        -1.553581
  |    5: Species H             -2.394461         1.010909        -1.181471
  |    6: Species H             -1.866025        -0.595567        -0.640498
  |    7: Species N             -1.107365         0.500304         1.666858
  |    8: Species C             -1.807437        -0.738367         2.022506
  |    9: Species C             -1.177462        -2.011240         1.391495
  |   10: Species O             -1.843705        -3.019720         1.186086
  |   11: Species H             -0.822310         1.105916         2.432006
  |   12: Species H             -1.609590        -0.865989         3.099968
  |   13: Species C             -3.326528        -0.693960         1.841827
  |   14: Species H             -3.613311        -0.575109         0.790287
  |   15: Species H             -3.742984         0.145899         2.411445
  |   16: Species H             -3.771335        -1.627990         2.201414
  |   17: Species N              0.163892        -1.917590         1.143317
  |   18: Species C              1.035415        -3.054236         0.823021
  |   19: Species C              0.827783        -3.645160        -0.596759
  |   20: Species O              1.294723        -4.743180        -0.884296
  |   21: Species H              0.599011        -1.028416         1.366908
  |   22: Species H              2.051683        -2.629861         0.788877
  |   23: Species C              1.008625        -4.153755         1.887350
  |   24: Species H              1.693139        -4.955804         1.592407
  |   25: Species H              0.002621        -4.576088         1.985225
  |   26: Species H              1.324578        -3.748232         2.857041
  |   27: Species N              0.193614        -2.832870        -1.483233
  |   28: Species C             -0.096587        -3.239017        -2.843669
  |   29: Species H             -0.220548        -1.983164        -1.121024
  |   30: Species H              0.180812        -2.447667        -3.552812
  |   31: Species H             -1.162124        -3.479674        -2.975479
  |   32: Species H              0.492967        -4.137102        -3.057112
  |

  | The smallest distance between any two atoms is         1.01228751 AA.
  |
  | The first atom of this pair is atom number                     27 .
  | The second atom of this pair is atom number                    29 .

  Number of empty states per atom not set in control.in - providing a guess from actual geometry.
  | Total number of empty states used during s.c.f. cycle:       71
  If you use a very high smearing, use empty_states (per atom!) in control.in to increase this value.

  Structure-dependent array size parameters: 
  | Maximum number of distinct radial functions  :       40
  | Maximum number of basis functions            :      840
  | Number of Kohn-Sham states (occupied + empty):      129
------------------------------------------------------------

------------------------------------------------------------
          Preparing all fixed parts of the calculation.
------------------------------------------------------------
  Determining machine precision:
    2.225073858507201E-308
  Setting up grids for atomic and cluster calculations.

  Creating wave function, potential, and density for free atoms.

  Species: H

  List of occupied orbitals and eigenvalues:
    n    l              occ      energy [Ha]    energy [eV]
    1    0           1.0000        -0.238382        -6.4867


  Species: C

  List of occupied orbitals and eigenvalues:
    n    l              occ      energy [Ha]    energy [eV]
    1    0           2.0000       -10.041232      -273.2358
    2    0           2.0000        -0.504327       -13.7234
    2    1           2.0000        -0.193750        -5.2722


  Species: N

  List of occupied orbitals and eigenvalues:
    n    l              occ      energy [Ha]    energy [eV]
    1    0           2.0000       -14.129007      -384.4699
    2    0           2.0000        -0.681802       -18.5528
    2    1           3.0000        -0.260543        -7.0897


  Species: O

  List of occupied orbitals and eigenvalues:
    n    l              occ      energy [Ha]    energy [eV]
    1    0           2.0000       -18.898576      -514.2564
    2    0           2.0000        -0.878795       -23.9132
    2    1           4.0000        -0.332075        -9.0362

  Creating fixed part of basis set: Ionic, confined, hydrogenic.
 
  H                    hydrogenic:
 
  List of hydrogenic basis orbitals: 
    n    l      effective z      eigenvalue [eV]  inner max. [A]     outer max. [A]     outer radius [A]   
    2    0         2.100000       -14.9965           0.193243           1.317208           5.373006
    2    1         3.500000       -41.6672           0.602369           0.602369           4.056063
    1    0         0.850000        -9.8292           0.624871           0.624871           5.373006
    2    1         3.700000       -46.5653           0.573622           0.573622           3.910002
    2    0         1.200000        -4.5995           0.334980           2.228188           5.505995
    3    2         7.000000       -74.0753           0.680699           0.680699           3.769201
 
 
  C                    hydrogenic:
 
  List of hydrogenic basis orbitals: 
    n    l      effective z      eigenvalue [eV]  inner max. [A]     outer max. [A]     outer radius [A]   
    2    1         1.700000        -9.8152           1.245706           1.245706           5.401630
    3    2         6.000000       -54.4226           0.792453           0.792453           4.178599
    2    0         4.900000       -81.6681           0.082559           0.562749           3.353238
    4    3         9.800000       -81.6681           0.863254           0.863254           4.028125
    3    1         5.200000       -40.8774           0.305389           1.215618           4.898362
    3    0         4.300000       -27.9508           0.091041           1.610311           5.401630
    5    4        14.400000      -112.8510           0.917666           0.917666           3.883070
    3    2         6.200000       -58.1113           0.763917           0.763917           4.077671
 
 
  N                    hydrogenic:
 
  List of hydrogenic basis orbitals: 
    n    l      effective z      eigenvalue [eV]  inner max. [A]     outer max. [A]     outer radius [A]   
    2    1         1.800000       -11.0118           1.177451           1.177451           5.427479
    3    2         6.800000       -69.9029           0.704619           0.704619           3.854246
    3    0         5.800000       -50.8549           0.067388           1.191934           4.629968
    4    3        10.800000       -99.1854           0.786571           0.786571           3.761152
    3    1         5.800000       -50.8549           0.274880           1.094176           4.518138
    1    0         0.800000        -8.7059           0.662839           0.662839           5.361532
    5    4        16.000000      -139.3222           0.825990           0.825990           3.625711
    3    2         4.900000       -36.2967           0.968267           0.968267           4.862000
 
 
  O                    hydrogenic:
 
  List of hydrogenic basis orbitals: 
    n    l      effective z      eigenvalue [eV]  inner max. [A]     outer max. [A]     outer radius [A]   
    2    1         1.800000       -11.0118           1.178562           1.178562           5.432602
    3    2         7.600000       -87.3182           0.624125           0.624125           3.541477
    3    0         6.400000       -61.9209           0.061167           1.081902           4.306578
    4    3        11.600000      -114.4238           0.731631           0.731631           3.585037
    3    1         6.200000       -58.1113           0.255680           1.030270           4.306578
    3    2         5.600000       -47.4081           0.847233           0.847233           4.413171
    5    4        17.600000      -168.5799           0.749740           0.749740           3.372465
    1    0         0.750000        -7.6499           0.705284           0.705284           5.366593
 

  Adding cutoff potential to free-atom effective potential.
  Creating atomic-like basis functions for current effective potential.

  Species H                   :

  List of atomic basis orbitals and eigenvalues:
    n    l      energy [Ha]    energy [eV]    outer radius [A]
    1    0        -0.238382        -6.4867       5.373006


  Species C                   :

  List of atomic basis orbitals and eigenvalues:
    n    l      energy [Ha]    energy [eV]    outer radius [A]
    1    0       -10.041232      -273.2358       1.934409
    2    0        -0.504327       -13.7234       5.271162
    2    1        -0.193750        -5.2722       5.401630


  Species N                   :

  List of atomic basis orbitals and eigenvalues:
    n    l      energy [Ha]    energy [eV]    outer radius [A]
    1    0       -14.129007      -384.4699       1.637919
    2    0        -0.681802       -18.5528       5.168461
    2    1        -0.260543        -7.0897       5.361532


  Species O                   :

  List of atomic basis orbitals and eigenvalues:
    n    l      energy [Ha]    energy [eV]    outer radius [A]
    1    0       -18.898576      -514.2564       1.415765
    2    0        -0.878795       -23.9132       5.048385
    2    1        -0.332075        -9.0362       5.301386

  Assembling full basis from fixed parts.
  | Species H :   atomic orbital   1 s accepted.
  | Species H :    hydro orbital   2 s accepted.
  | Species H :    hydro orbital   1 s accepted.
  | Species H :    hydro orbital   2 s accepted.
  | Species H :    hydro orbital   2 p accepted.
  | Species H :    hydro orbital   2 p accepted.
  | Species H :    hydro orbital   3 d accepted.
  | Species C :   atomic orbital   1 s accepted.
  | Species C :    hydro orbital   2 s accepted.
  | Species C :   atomic orbital   2 s accepted.
  | Species C :    hydro orbital   3 s accepted.
  | Species C :    hydro orbital   3 p accepted.
  | Species C :   atomic orbital   2 p accepted.
  | Species C :    hydro orbital   2 p accepted.
  | Species C :    hydro orbital   3 d accepted.
  | Species C :    hydro orbital   3 d accepted.
  | Species C :    hydro orbital   4 f accepted.
  | Species C :    hydro orbital   5 g accepted.
  | Species N :   atomic orbital   1 s accepted.
  | Species N :    hydro orbital   3 s accepted.
  | Species N :   atomic orbital   2 s accepted.
  | Species N :    hydro orbital   1 s accepted.
  | Species N :    hydro orbital   3 p accepted.
  | Species N :   atomic orbital   2 p accepted.
  | Species N :    hydro orbital   2 p accepted.
  | Species N :    hydro orbital   3 d accepted.
  | Species N :    hydro orbital   3 d accepted.
  | Species N :    hydro orbital   4 f accepted.
  | Species N :    hydro orbital   5 g accepted.
  | Species O :   atomic orbital   1 s accepted.
  | Species O :    hydro orbital   3 s accepted.
  | Species O :   atomic orbital   2 s accepted.
  | Species O :    hydro orbital   1 s accepted.
  | Species O :    hydro orbital   3 p accepted.
  | Species O :   atomic orbital   2 p accepted.
  | Species O :    hydro orbital   2 p accepted.
  | Species O :    hydro orbital   3 d accepted.
  | Species O :    hydro orbital   3 d accepted.
  | Species O :    hydro orbital   4 f accepted.
  | Species O :    hydro orbital   5 g accepted.
 
  Basis size parameters after reduction:
  | Total number of radial functions:       40
  | Total number of basis functions :      840
 
  Testing on-site integration grid accuracy.
  |  Species  Function  <phi|h_atom|phi> (log., in eV)  <phi|h_atom|phi> (rad., in eV)
           1        1                 -6.4869821809                 -6.4870742227
           1        2                 13.5044133542                 13.5041049177
           1        3                 32.7854418792                 32.7779770519
           1        4                 33.7995553101                 33.7152624900 ***
           1        5                 28.8558651799                 28.8558652046
           1        6                 59.6361831893                 59.6362535845
           1        7                 60.2733718049                 60.2733715484
           2        8               -273.2358277112               -273.2358261765
           2        9                -10.7624923123                -10.7625144012
           2       10                 17.4634079027                 17.4634252127
           2       11                 53.0363661832                 53.0366180446
           2       12                 15.0981351967                 15.0981317714
           2       13                  3.8522181899                  3.8522770949
           2       14                 12.1181835661                 12.1206868578
           2       15                 29.4320778347                 29.4320780959
           2       16                 54.8753777694                 54.8752901936
           2       17                 59.3533975461                 59.3533974833
           2       18                 93.4537491195                 93.4537492066
           3       19               -384.4698526889               -384.4698499465
           3       20                 12.5691022037                 12.5690910168
           3       21                -15.7489097511                -15.7489165588
           3       22                 27.0978334940                 27.0985589490
           3       23                 18.5949116966                 18.5949125562
           3       24                  1.2212828291                  1.2212855301
           3       25                 13.4428926797                 13.4434051125
           3       26                 35.9380614500                 35.9380613666
           3       27                 39.9231532098                 39.9231654735
           3       28                 72.9957335806                 72.9957336833
           3       29                116.4231321147                116.4231321431
           4       30               -514.2564144315               -514.2564099626
           4       31                 15.1726678541                 15.1726530877
           4       32                -21.5447785304                -21.5447874973
           4       33                 14.4944558459                 14.4944698284
           4       34                 20.8882174564                 20.8882178906
           4       35                 -2.4850315908                 -2.4850322289
           4       36                 13.8600193195                 13.8599826966
           4       37                 45.8243383616                 45.8243383675
           4       38                 52.1840606465                 52.1840622440
           4       39                 85.4074185510                 85.4074185819
           4       40                142.0983717302                142.0983717339
 * Note: Onsite integrals marked "***" above are less accurate than
 * onsite_accuracy_threshold =    0.03000 eV. Usually, this is harmless.
 * When in doubt, tighten the "radial" and/or "radial_multiplier" flags to check.

  Preparing densities etc. for the partition functions (integrals / Hartree potential).

  Preparations completed.
  max(cpu_time)          :      0.236 s.
  Wall clock time (cpu1) :      0.233 s.
------------------------------------------------------------

------------------------------------------------------------
          Begin self-consistency loop: Initialization.

          Date     :  20170309, Time     :  183326.519
------------------------------------------------------------

  Initializing index lists of integration centers etc. from given atomic structure:
  | Number of centers in hartree potential         :        32
  | Number of centers in hartree multipole         :        32
  | Number of centers in electron density summation:        32
  | Number of centers in basis integrals           :        32
  | Number of centers in integrals                 :        32
  | Number of centers in hamiltonian               :        32
  Using modified Scalapack Eigenvalue solver (ELPA)
  * Using 32 tasks for Scalapack Eigenvalue solver.
  Detailed listing of tasks and assigned k-points:
  (for non-periodic systems, the "k-point" denotes an internal label only)
   Task     0 k-point     1 on eos366
   Task     1 k-point     1 on eos366
   Task     2 k-point     1 on eos366
   Task     3 k-point     1 on eos366
   Task     4 k-point     1 on eos366
   Task     5 k-point     1 on eos366
   Task     6 k-point     1 on eos366
   Task     7 k-point     1 on eos366
   Task     8 k-point     1 on eos366
   Task     9 k-point     1 on eos366
   Task    10 k-point     1 on eos366
   Task    11 k-point     1 on eos366
   Task    12 k-point     1 on eos366
   Task    13 k-point     1 on eos366
   Task    14 k-point     1 on eos366
   Task    15 k-point     1 on eos366
   Task    16 k-point     1 on eos366
   Task    17 k-point     1 on eos366
   Task    18 k-point     1 on eos366
   Task    19 k-point     1 on eos366
   Task    20 k-point     1 on eos366
   Task    21 k-point     1 on eos366
   Task    22 k-point     1 on eos366
   Task    23 k-point     1 on eos366
   Task    24 k-point     1 on eos366
   Task    25 k-point     1 on eos366
   Task    26 k-point     1 on eos366
   Task    27 k-point     1 on eos366
   Task    28 k-point     1 on eos366
   Task    29 k-point     1 on eos366
   Task    30 k-point     1 on eos366
   Task    31 k-point     1 on eos366
  Tasks:    32 split into      8 X      4 BLACS grid
  Calculating blocksize based on n_basis =          840 max_nprow =            8 max_npcol =            4
  Scalapack blocksize set to:           16
  Required Scalapack workspace - INTEGER:            1 REAL:             1
  Partitioning the integration grid into batches with parallel hashing+maxmin method.
  | Number of batches:     4854
  | Maximal batch size:     200
  | Minimal batch size:      37
  | Average batch size:     108.720
  | Standard deviation of batch sizes:      28.301

  Integration load balanced across    32 MPI tasks.
  Work distribution over tasks is as follows:
  Task     0 has      16445 integration points.
  Task     1 has      16448 integration points.
  Task     2 has      16477 integration points.
  Task     3 has      16482 integration points.
  Task     4 has      16571 integration points.
  Task     5 has      16445 integration points.
  Task     6 has      16574 integration points.
  Task     7 has      16580 integration points.
  Task     8 has      16489 integration points.
  Task     9 has      16441 integration points.
  Task    10 has      16448 integration points.
  Task    11 has      16575 integration points.
  Task    12 has      16579 integration points.
  Task    13 has      16472 integration points.
  Task    14 has      16539 integration points.
  Task    15 has      16453 integration points.
  Task    16 has      16439 integration points.
  Task    17 has      16548 integration points.
  Task    18 has      16492 integration points.
  Task    19 has      16557 integration points.
  Task    20 has      16488 integration points.
  Task    21 has      16458 integration points.
  Task    22 has      16556 integration points.
  Task    23 has      16435 integration points.
  Task    24 has      16441 integration points.
  Task    25 has      16450 integration points.
  Task    26 has      16568 integration points.
  Task    27 has      16439 integration points.
  Task    28 has      16469 integration points.
  Task    29 has      16461 integration points.
  Task    30 has      16455 integration points.
  Task    31 has      16454 integration points.
  Initializing partition tables, free-atom densities, potentials, etc. across the integration grid (initialize_grid_storage).
  | initialize_grid_storage: Actual outermost partition radius vs. multipole_radius_free
  | (-- VB: in principle, multipole_radius_free should be larger, hence this output)
  | Species        1: Confinement radius =              6.000000000000000 AA, multipole_radius_free =              6.071692442739658 AA.
  | Species        1: outer_partition_radius set to              6.071692442739658 AA .
  | Species        2: Confinement radius =              6.000000000000000 AA, multipole_radius_free =              6.029870734432609 AA.
  | Species        2: outer_partition_radius set to              6.029870734432609 AA .
  | Species        3: Confinement radius =              6.000000000000000 AA, multipole_radius_free =              6.058726835495003 AA.
  | Species        3: outer_partition_radius set to              6.058726835495003 AA .
  | Species        4: Confinement radius =              6.000000000000000 AA, multipole_radius_free =              6.064445521808699 AA.
  | Species        4: outer_partition_radius set to              6.064445521808699 AA .
  | Original list of interatomic distances with          32 x         32 entries is created.
  | Net number of integration points:   527728
  | of which are non-zero points    :   412962
  Obtaining max. number of non-zero basis functions in each batch (get_n_compute_maxes).
  | Maximal number of non-zero basis functions:      796 in task     0
  | Maximal number of non-zero basis functions:      802 in task     1
  | Maximal number of non-zero basis functions:      801 in task     2
  | Maximal number of non-zero basis functions:      797 in task     3
  | Maximal number of non-zero basis functions:      792 in task     4
  | Maximal number of non-zero basis functions:      798 in task     5
  | Maximal number of non-zero basis functions:      776 in task     6
  | Maximal number of non-zero basis functions:      792 in task     7
  | Maximal number of non-zero basis functions:      784 in task     8
  | Maximal number of non-zero basis functions:      806 in task     9
  | Maximal number of non-zero basis functions:      796 in task    10
  | Maximal number of non-zero basis functions:      797 in task    11
  | Maximal number of non-zero basis functions:      801 in task    12
  | Maximal number of non-zero basis functions:      793 in task    13
  | Maximal number of non-zero basis functions:      794 in task    14
  | Maximal number of non-zero basis functions:      784 in task    15
  | Maximal number of non-zero basis functions:      789 in task    16
  | Maximal number of non-zero basis functions:      794 in task    17
  | Maximal number of non-zero basis functions:      810 in task    18
  | Maximal number of non-zero basis functions:      807 in task    19
  | Maximal number of non-zero basis functions:      794 in task    20
  | Maximal number of non-zero basis functions:      795 in task    21
  | Maximal number of non-zero basis functions:      792 in task    22
  | Maximal number of non-zero basis functions:      802 in task    23
  | Maximal number of non-zero basis functions:      795 in task    24
  | Maximal number of non-zero basis functions:      794 in task    25
  | Maximal number of non-zero basis functions:      776 in task    26
  | Maximal number of non-zero basis functions:      784 in task    27
  | Maximal number of non-zero basis functions:      797 in task    28
  | Maximal number of non-zero basis functions:      791 in task    29
  | Maximal number of non-zero basis functions:      780 in task    30
  | Maximal number of non-zero basis functions:      794 in task    31
  Selecting the method for density update.
  Loop over occupied states selected for charge density update.
  Integrating Hamiltonian matrix: batch-based integration.
  Time summed over all CPUs for integration: real work       21.692 s, elapsed       23.159 s
  Integrating overlap matrix.
  Time summed over all CPUs for integration: real work       12.916 s, elapsed       13.774 s
  Deallocating overlap matrix.

  Updating Kohn-Sham eigenvalues, eigenvectors, occupation numbers, and Fermi level.
  Solving generalized eigenproblem
  Solving real symmetric generalised eigenvalue problem by standard ScaLAPACK.
  Transforming overlap matrix with ScaLAPACK and checking for singularities.
  : Overlap matrix is nonsingular, using Cholesky decomposition
  | Lowest eigenvalue:  0.797265E-04
  Factoring overlap matrix with Cholesky decomposition
  Using Cholesky factor for transformation
  Using 1-stage real ELPA solver
  Determining occupation numbers for Kohn-Sham eigenstates.
  | Chemical potential (Fermi level) in eV                 : -.95657851E+01
  | Error in electron count due to remaining E_F inaccuracy: 0.00000000E+00
  | Maximum occupation number of highest empty state:  0.00E+00

  Writing Kohn-Sham eigenvalues.

  State    Occupation    Eigenvalue [Ha]    Eigenvalue [eV]
      1       2.00000         -18.975146         -516.33999
      2       2.00000         -18.974864         -516.33232
      3       2.00000         -18.974572         -516.32438
      4       2.00000         -14.257208         -387.95837
      5       2.00000         -14.253951         -387.86974
      6       2.00000         -14.251240         -387.79596
      7       2.00000         -10.171453         -276.77931
      8       2.00000         -10.171403         -276.77797
      9       2.00000         -10.171140         -276.77080
     10       2.00000         -10.166870         -276.65461
     11       2.00000         -10.147114         -276.11703
     12       2.00000         -10.146995         -276.11377
     13       2.00000         -10.135220         -275.79337
     14       2.00000         -10.134735         -275.78016
     15       2.00000         -10.134040         -275.76127
     16       2.00000          -1.134770          -30.87868
     17       2.00000          -1.132647          -30.82090
     18       2.00000          -1.130624          -30.76585
     19       2.00000          -1.024023          -27.86509
     20       2.00000          -1.012967          -27.56423
     21       2.00000          -0.999920          -27.20922
     22       2.00000          -0.884840          -24.07773
     23       2.00000          -0.872835          -23.75105
     24       2.00000          -0.848741          -23.09542
     25       2.00000          -0.823046          -22.39623
     26       2.00000          -0.780644          -21.24240
     27       2.00000          -0.749890          -20.40554
     28       2.00000          -0.698219          -18.99951
     29       2.00000          -0.682618          -18.57498
     30       2.00000          -0.674941          -18.36607
     31       2.00000          -0.641395          -17.45324
     32       2.00000          -0.633948          -17.25060
     33       2.00000          -0.615879          -16.75893
     34       2.00000          -0.608320          -16.55324
     35       2.00000          -0.587325          -15.98193
     36       2.00000          -0.571461          -15.55025
     37       2.00000          -0.568840          -15.47891
     38       2.00000          -0.561045          -15.26682
     39       2.00000          -0.558997          -15.21108
     40       2.00000          -0.556655          -15.14736
     41       2.00000          -0.551164          -14.99792
     42       2.00000          -0.541796          -14.74303
     43       2.00000          -0.534868          -14.55449
     44       2.00000          -0.527820          -14.36272
     45       2.00000          -0.520848          -14.17298
     46       2.00000          -0.515202          -14.01937
     47       2.00000          -0.511292          -13.91296
     48       2.00000          -0.504098          -13.71721
     49       2.00000          -0.495835          -13.49236
     50       2.00000          -0.483956          -13.16912
     51       2.00000          -0.477451          -12.99211
     52       2.00000          -0.473454          -12.88334
     53       2.00000          -0.416236          -11.32635
     54       2.00000          -0.411646          -11.20146
     55       2.00000          -0.401822          -10.93412
     56       2.00000          -0.387722          -10.55046
     57       2.00000          -0.383106          -10.42484
     58       2.00000          -0.379925          -10.33829
     59       0.00000          -0.164085           -4.46499
     60       0.00000          -0.159137           -4.33034
     61       0.00000          -0.154472           -4.20339
     62       0.00000          -0.084132           -2.28934
     63       0.00000          -0.063884           -1.73837
     64       0.00000          -0.059467           -1.61818
     65       0.00000          -0.054543           -1.48418
     66       0.00000          -0.045844           -1.24748
     67       0.00000          -0.038175           -1.03879
     68       0.00000          -0.029760           -0.80981
     69       0.00000          -0.028837           -0.78469
     70       0.00000          -0.026158           -0.71180
     71       0.00000          -0.020813           -0.56635
     72       0.00000          -0.017088           -0.46498
     73       0.00000          -0.007674           -0.20882
     74       0.00000          -0.006154           -0.16745
     75       0.00000          -0.002450           -0.06668
     76       0.00000          -0.000988           -0.02688
     77       0.00000           0.004966            0.13514
     78       0.00000           0.006418            0.17464
     79       0.00000           0.012207            0.33216
     80       0.00000           0.014721            0.40058
     81       0.00000           0.019985            0.54382
     82       0.00000           0.023405            0.63688
     83       0.00000           0.033371            0.90806
     84       0.00000           0.036739            0.99972
     85       0.00000           0.047785            1.30028
     86       0.00000           0.050208            1.36622
     87       0.00000           0.057287            1.55886
     88       0.00000           0.063405            1.72534
     89       0.00000           0.064220            1.74752
     90       0.00000           0.071335            1.94113
     91       0.00000           0.075244            2.04750
     92       0.00000           0.077278            2.10283
     93       0.00000           0.083180            2.26345
     94       0.00000           0.090124            2.45241
     95       0.00000           0.091578            2.49197
     96       0.00000           0.099385            2.70441
     97       0.00000           0.113647            3.09248
     98       0.00000           0.114579            3.11786
     99       0.00000           0.121849            3.31567
    100       0.00000           0.123934            3.37242
    101       0.00000           0.128751            3.50351
    102       0.00000           0.131672            3.58298
    103       0.00000           0.134293            3.65430
    104       0.00000           0.140848            3.83268
    105       0.00000           0.147734            4.02003
    106       0.00000           0.154639            4.20794
    107       0.00000           0.160037            4.35484
    108       0.00000           0.162921            4.43330
    109       0.00000           0.165736            4.50992
    110       0.00000           0.168864            4.59503
    111       0.00000           0.177419            4.82782
    112       0.00000           0.180774            4.91910
    113       0.00000           0.185848            5.05719
    114       0.00000           0.191323            5.20617
    115       0.00000           0.195268            5.31352
    116       0.00000           0.198734            5.40784
    117       0.00000           0.202253            5.50359
    118       0.00000           0.208602            5.67634
    119       0.00000           0.210096            5.71701
    120       0.00000           0.218447            5.94425
    121       0.00000           0.219614            5.97600
    122       0.00000           0.224872            6.11907
    123       0.00000           0.233573            6.35583
    124       0.00000           0.240348            6.54021
    125       0.00000           0.245161            6.67116
    126       0.00000           0.250009            6.80308
    127       0.00000           0.256177            6.97094
    128       0.00000           0.258553            7.03557
    129       0.00000           0.264865            7.20734

  Highest occupied state (VBM) at    -10.33828799 eV
  | Occupation number:      2.00000000

  Lowest unoccupied state (CBM) at    -4.46499220 eV
  | Occupation number:      0.00000000

  Overall HOMO-LUMO gap:      5.87329579 eV.
  Calculating total energy contributions from superposition of free atom densities.

  Total energy components:
  | Sum of eigenvalues            :        -437.87756995 Ha      -11915.25491991 eV
  | XC energy correction          :         -98.82089832 Ha       -2689.05346095 eV
  | XC potential correction       :         127.02286636 Ha        3456.46805692 eV
  | Free-atom electrostatic energy:        -333.61399256 Ha       -9078.09862615 eV
  | Hartree energy correction     :           0.00000000 Ha           0.00000000 eV
  | vdW energy correction         :           0.00000000 Ha           0.00000000 eV
  | Entropy correction            :          -0.00000000 Ha          -0.00000000 eV
  | ---------------------------
  | Total energy                  :        -743.28959447 Ha      -20225.93895010 eV
  | Total energy, T -> 0          :        -743.28959447 Ha      -20225.93895010 eV  <-- do not rely on this value for anything but (periodic) metals
  | Electronic free energy        :        -743.28959447 Ha      -20225.93895010 eV

  Derived energy quantities:
  | Kinetic energy                :         735.15277423 Ha       20004.52480573 eV
  | Electrostatic energy          :       -1379.62147038 Ha      -37541.41029487 eV
  | Energy correction for multipole
  | error in Hartree potential    :           0.00000000 Ha           0.00000000 eV
  | Sum of eigenvalues per atom                           :        -372.35171625 eV
  | Total energy (T->0) per atom                          :        -632.06059219 eV  <-- do not rely on this value for anything but (periodic) metals
  | Electronic free energy per atom                       :        -632.06059219 eV
  Initialize hartree_potential_storage
  Max. number of atoms included in rho_multipole:           32

  End scf initialization - timings             :  max(cpu_time)    wall_clock(cpu1)
  | Time for scf. initialization               :        1.936 s           1.935 s
  | Boundary condition initialization          :        0.000 s           0.000 s
  | Integration                                :        1.180 s           1.176 s
  | Solution of K.-S. eqns.                    :        0.076 s           0.075 s
  | Grid partitioning                          :        0.320 s           0.315 s
  | Preloading free-atom quantities on grid    :        0.028 s           0.027 s
  | Free-atom superposition energy             :        0.040 s           0.040 s
  | Total energy evaluation                    :        0.004 s           0.001 s
------------------------------------------------------------

------------------------------------------------------------
          Begin self-consistency iteration #    1

  Date     :  20170309, Time     :  183328.455
------------------------------------------------------------
  Evaluating new KS density.
  Integration grid: deviation in total charge (<rho> - N_e) =   7.105427E-14
  Pulay mixing of updated and previous charge densities.

  Evaluating partitioned Hartree potential by multipole expansion.
  | Analytical far-field extrapolation by fixed multipoles:
  | Hartree multipole sum: apparent total charge =   0.263273E-04
  Summing up the Hartree potential.
  Time summed over all CPUs for potential: real work        9.575 s, elapsed        9.895 s
  | RMS charge density error from multipole expansion :   0.104963E-01

  Integrating Hamiltonian matrix: batch-based integration.
  Time summed over all CPUs for integration: real work       21.394 s, elapsed       22.862 s

  Updating Kohn-Sham eigenvalues, eigenvectors, occupation numbers, and Fermi level.
  Solving generalized eigenproblem
  Solving real symmetric generalised eigenvalue problem by standard ScaLAPACK.
  Using Cholesky factor for transformation
  Using 2-stage real ELPA solver
  K-Point:    1, Trafo times: 1-stage=     0.021 s, 2-stage=     0.019 s ==> Using 2-stage solver
  Determining occupation numbers for Kohn-Sham eigenstates.
  | Chemical potential (Fermi level) in eV                 : -.41565350E+01
  | Error in electron count due to remaining E_F inaccuracy: 0.00000000E+00
  | Maximum occupation number of highest empty state:  0.00E+00

  Writing Kohn-Sham eigenvalues.

  State    Occupation    Eigenvalue [Ha]    Eigenvalue [eV]
      1       2.00000         -18.630552         -506.96313
      2       2.00000         -18.620023         -506.67661
      3       2.00000         -18.603229         -506.21962
      4       2.00000         -14.013819         -381.33543
      5       2.00000         -14.011295         -381.26673
      6       2.00000         -13.979940         -380.41352
      7       2.00000         -10.072707         -274.09231
      8       2.00000         -10.067480         -273.95006
      9       2.00000         -10.040947         -273.22808
     10       2.00000          -9.984346         -271.68787
     11       2.00000          -9.966553         -271.20370
     12       2.00000          -9.877784         -268.78818
     13       2.00000          -9.863689         -268.40465
     14       2.00000          -9.838924         -267.73073
     15       2.00000          -9.821389         -267.25360
     16       2.00000          -0.979013          -26.64029
     17       2.00000          -0.968884          -26.36468
     18       2.00000          -0.948697          -25.81537
     19       2.00000          -0.888953          -24.18965
     20       2.00000          -0.874042          -23.78389
     21       2.00000          -0.851739          -23.17701
     22       2.00000          -0.747342          -20.33620
     23       2.00000          -0.723975          -19.70036
     24       2.00000          -0.711735          -19.36730
     25       2.00000          -0.668856          -18.20049
     26       2.00000          -0.641412          -17.45370
     27       2.00000          -0.611890          -16.65038
     28       2.00000          -0.580338          -15.79179
     29       2.00000          -0.565703          -15.39355
     30       2.00000          -0.547476          -14.89758
     31       2.00000          -0.523168          -14.23612
     32       2.00000          -0.509938          -13.87612
     33       2.00000          -0.484302          -13.17853
     34       2.00000          -0.470958          -12.81541
     35       2.00000          -0.444022          -12.08247
     36       2.00000          -0.441386          -12.01072
     37       2.00000          -0.435105          -11.83981
     38       2.00000          -0.421292          -11.46393
     39       2.00000          -0.417506          -11.36092
     40       2.00000          -0.405728          -11.04042
     41       2.00000          -0.394125          -10.72469
     42       2.00000          -0.387677          -10.54924
     43       2.00000          -0.385601          -10.49273
     44       2.00000          -0.379297          -10.32119
     45       2.00000          -0.373308          -10.15822
     46       2.00000          -0.367297           -9.99467
     47       2.00000          -0.363119           -9.88097
     48       2.00000          -0.359440           -9.78086
     49       2.00000          -0.352876           -9.60225
     50       2.00000          -0.343487           -9.34675
     51       2.00000          -0.342696           -9.32522
     52       2.00000          -0.329524           -8.96681
     53       2.00000          -0.259452           -7.06004
     54       2.00000          -0.255291           -6.94682
     55       2.00000          -0.224380           -6.10569
     56       2.00000          -0.222181           -6.04585
     57       2.00000          -0.216517           -5.89174
     58       2.00000          -0.201565           -5.48485
     59       0.00000          -0.067807           -1.84511
     60       0.00000          -0.060837           -1.65547
     61       0.00000          -0.048585           -1.32208
     62       0.00000          -0.033755           -0.91852
     63       0.00000          -0.025644           -0.69781
     64       0.00000          -0.011893           -0.32361
     65       0.00000          -0.004278           -0.11642
     66       0.00000          -0.002223           -0.06048
     67       0.00000           0.009691            0.26371
     68       0.00000           0.014691            0.39975
     69       0.00000           0.017837            0.48538
     70       0.00000           0.027024            0.73535
     71       0.00000           0.033828            0.92049
     72       0.00000           0.041036            1.11664
     73       0.00000           0.041670            1.13389
     74       0.00000           0.053750            1.46260
     75       0.00000           0.056640            1.54125
     76       0.00000           0.059878            1.62936
     77       0.00000           0.061650            1.67758
     78       0.00000           0.066129            1.79946
     79       0.00000           0.072856            1.98250
     80       0.00000           0.077816            2.11748
     81       0.00000           0.087778            2.38856
     82       0.00000           0.097441            2.65150
     83       0.00000           0.100297            2.72921
     84       0.00000           0.103099            2.80547
     85       0.00000           0.111419            3.03186
     86       0.00000           0.114095            3.10468
     87       0.00000           0.117150            3.18782
     88       0.00000           0.120556            3.28050
     89       0.00000           0.124879            3.39813
     90       0.00000           0.135751            3.69398
     91       0.00000           0.138920            3.78022
     92       0.00000           0.144632            3.93564
     93       0.00000           0.146228            3.97906
     94       0.00000           0.153914            4.18820
     95       0.00000           0.162908            4.43296
     96       0.00000           0.166787            4.53851
     97       0.00000           0.172674            4.69870
     98       0.00000           0.176764            4.80999
     99       0.00000           0.179813            4.89297
    100       0.00000           0.182334            4.96155
    101       0.00000           0.186360            5.07110
    102       0.00000           0.192139            5.22838
    103       0.00000           0.196481            5.34653
    104       0.00000           0.199652            5.43280
    105       0.00000           0.205172            5.58302
    106       0.00000           0.212257            5.77580
    107       0.00000           0.217580            5.92064
    108       0.00000           0.222070            6.04283
    109       0.00000           0.226943            6.17543
    110       0.00000           0.233276            6.34778
    111       0.00000           0.236392            6.43255
    112       0.00000           0.242583            6.60101
    113       0.00000           0.243965            6.63863
    114       0.00000           0.252774            6.87834
    115       0.00000           0.258450            7.03280
    116       0.00000           0.260541            7.08968
    117       0.00000           0.268262            7.29979
    118       0.00000           0.272920            7.42654
    119       0.00000           0.274905            7.48055
    120       0.00000           0.279989            7.61888
    121       0.00000           0.283088            7.70321
    122       0.00000           0.289440            7.87607
    123       0.00000           0.294188            8.00526
    124       0.00000           0.304791            8.29377
    125       0.00000           0.313829            8.53972
    126       0.00000           0.316308            8.60717
    127       0.00000           0.322209            8.76777
    128       0.00000           0.327588            8.91413
    129       0.00000           0.331445            9.01907

  Highest occupied state (VBM) at     -5.48485051 eV
  | Occupation number:      2.00000000

  Lowest unoccupied state (CBM) at    -1.84510896 eV
  | Occupation number:      0.00000000

  Overall HOMO-LUMO gap:      3.63974155 eV.

  Total energy components:
  | Sum of eigenvalues            :        -418.02793999 Ha      -11375.11900674 eV
  | XC energy correction          :        -100.75290703 Ha       -2741.62609281 eV
  | XC potential correction       :         129.52838139 Ha        3524.64658964 eV
  | Free-atom electrostatic energy:        -333.61399256 Ha       -9078.09862615 eV
  | Hartree energy correction     :         -19.85360786 Ha        -540.24415711 eV
  | vdW energy correction         :           0.00000000 Ha           0.00000000 eV
  | Entropy correction            :          -0.00000000 Ha          -0.00000000 eV
  | ---------------------------
  | Total energy                  :        -742.72006605 Ha      -20210.44129318 eV
  | Total energy, T -> 0          :        -742.72006605 Ha      -20210.44129318 eV  <-- do not rely on this value for anything but (periodic) metals
  | Electronic free energy        :        -742.72006605 Ha      -20210.44129318 eV

  Derived energy quantities:
  | Kinetic energy                :         744.02024059 Ha       20245.82084242 eV
  | Electrostatic energy          :       -1385.98739960 Ha      -37714.63604279 eV
  | Energy correction for multipole
  | error in Hartree potential    :          -0.04098659 Ha          -1.11530198 eV
  | Sum of eigenvalues per atom                           :        -355.47246896 eV
  | Total energy (T->0) per atom                          :        -631.57629041 eV  <-- do not rely on this value for anything but (periodic) metals
  | Electronic free energy per atom                       :        -631.57629041 eV

  Self-consistency convergence accuracy:
  | Change of charge density      :  0.9029E+00
  | Change of sum of eigenvalues  :  0.5401E+03 eV
  | Change of total energy        :  0.1550E+02 eV

  End self-consistency iteration #     1       :  max(cpu_time)    wall_clock(cpu1)
  | Time for this iteration                    :        1.588 s           1.586 s
  | Charge density update                      :        0.508 s           0.504 s
[...]
   ----------------------------------------------------------------
   Total forces(  20)            : -0.975521E-03  0.398843E-03  0.129171E-03
  atom #   21
   Hellmann-Feynman              : -0.325070E-01 -0.886719E-02  0.107118E-02
   Ionic forces                  :  0.000000E+00  0.000000E+00  0.000000E+00
   Multipole                     :  0.185050E-01 -0.297465E-01 -0.101036E-01
   Pulay + GGA                   :  0.182640E-01  0.493414E-01  0.177939E-01
   Van der Waals                 : -0.370390E-02 -0.118035E-01 -0.674587E-02
   ----------------------------------------------------------------
   Total forces(  21)            :  0.558068E-03 -0.107577E-02  0.201562E-02
  atom #   22
   Hellmann-Feynman              : -0.513222E-01 -0.465249E-01  0.261989E-02
   Ionic forces                  :  0.000000E+00  0.000000E+00  0.000000E+00
   Multipole                     :  0.116401E-02 -0.147439E-01 -0.632428E-02
   Pulay + GGA                   :  0.538271E-01  0.487877E-01  0.506062E-02
   Van der Waals                 : -0.433480E-02  0.118937E-01 -0.183807E-02
   ----------------------------------------------------------------
   Total forces(  22)            : -0.665886E-03 -0.587455E-03 -0.481830E-03
  atom #   23
   Hellmann-Feynman              :  0.818542E-02 -0.117593E+01  0.749344E+00
   Ionic forces                  :  0.000000E+00  0.000000E+00  0.000000E+00
   Multipole                     :  0.946302E-02  0.289722E+00 -0.220141E+00
   Pulay + GGA                   : -0.266796E-01  0.887813E+00 -0.534736E+00
   Van der Waals                 :  0.844368E-02 -0.794697E-03  0.364329E-02
   ----------------------------------------------------------------
   Total forces(  23)            : -0.587475E-03  0.813835E-03 -0.188990E-02
  atom #   24
   Hellmann-Feynman              : -0.224637E-01  0.433367E-01 -0.533349E-01
   Ionic forces                  :  0.000000E+00  0.000000E+00  0.000000E+00
   Multipole                     : -0.201128E-01 -0.430194E-02  0.357963E-01
   Pulay + GGA                   :  0.458180E-01 -0.376218E-01  0.108368E-01
   Van der Waals                 : -0.310473E-02 -0.138487E-02  0.741962E-02
   ----------------------------------------------------------------
   Total forces(  24)            :  0.136867E-03  0.280434E-04  0.717691E-03
  atom #   25
   Hellmann-Feynman              :  0.111019E-01  0.384789E-01 -0.463880E-01
   Ionic forces                  :  0.000000E+00  0.000000E+00  0.000000E+00
   Multipole                     :  0.270624E-01 -0.137229E-02  0.158603E-01
   Pulay + GGA                   : -0.420702E-01 -0.254464E-01  0.250792E-01
   Van der Waals                 :  0.459092E-02 -0.118240E-01  0.553089E-02
   ----------------------------------------------------------------
   Total forces(  25)            :  0.685023E-03 -0.163802E-03  0.823927E-04
  atom #   26
   Hellmann-Feynman              : -0.348043E-03  0.105977E-01 -0.492508E-01
   Ionic forces                  :  0.000000E+00  0.000000E+00  0.000000E+00
   Multipole                     : -0.140793E-01 -0.369981E-01 -0.116175E-02
   Pulay + GGA                   :  0.207608E-01  0.266267E-01  0.517718E-01
   Van der Waals                 : -0.643984E-02 -0.449785E-03 -0.134971E-02
   ----------------------------------------------------------------
   Total forces(  26)            : -0.106364E-03 -0.223377E-03  0.959798E-05
  atom #   27
   Hellmann-Feynman              :  0.140216E+01  0.530444E+00  0.727930E+00
   Ionic forces                  :  0.000000E+00  0.000000E+00  0.000000E+00
   Multipole                     :  0.776027E-01 -0.175792E+00  0.154943E+00
   Pulay + GGA                   : -0.147211E+01 -0.366508E+00 -0.890129E+00
   Van der Waals                 : -0.785561E-02  0.108308E-01  0.667005E-02
   ----------------------------------------------------------------
   Total forces(  27)            : -0.206825E-03 -0.102605E-02 -0.585973E-03
  atom #   28
   Hellmann-Feynman              : -0.224778E+00 -0.949344E+00 -0.217787E+01
   Ionic forces                  :  0.000000E+00  0.000000E+00  0.000000E+00
   Multipole                     :  0.397773E-01  0.743379E-01  0.170501E+00
   Pulay + GGA                   :  0.191110E+00  0.862121E+00  0.199354E+01
   Van der Waals                 : -0.545339E-02  0.132626E-01  0.155256E-01
   ----------------------------------------------------------------
   Total forces(  28)            :  0.656241E-03  0.377541E-03  0.169287E-02
  atom #   29
   Hellmann-Feynman              :  0.188907E-01 -0.437535E-01  0.123783E-01
   Ionic forces                  :  0.000000E+00  0.000000E+00  0.000000E+00
   Multipole                     : -0.224341E-02 -0.105218E-01 -0.468501E-01
   Pulay + GGA                   : -0.224280E-01  0.576004E-01  0.261982E-01
   Van der Waals                 :  0.662576E-02 -0.367906E-02  0.839916E-02
   ----------------------------------------------------------------
   Total forces(  29)            :  0.845041E-03 -0.354053E-03  0.125521E-03
  atom #   30
   Hellmann-Feynman              :  0.763171E-02 -0.179320E-01  0.503038E-01
   Ionic forces                  :  0.000000E+00  0.000000E+00  0.000000E+00
   Multipole                     : -0.166967E-01 -0.287967E-01 -0.516488E-02
   Pulay + GGA                   :  0.740641E-02  0.473802E-01 -0.475062E-01
   Van der Waals                 :  0.132972E-02 -0.904524E-03  0.280886E-02
   ----------------------------------------------------------------
   Total forces(  30)            : -0.328891E-03 -0.252996E-03  0.441556E-03
  atom #   31
   Hellmann-Feynman              :  0.376632E-01  0.300756E-04  0.475613E-01
   Ionic forces                  :  0.000000E+00  0.000000E+00  0.000000E+00
   Multipole                     :  0.277409E-01  0.842742E-02 -0.230284E-01
   Pulay + GGA                   : -0.642133E-01 -0.659897E-02 -0.265385E-01
   Van der Waals                 : -0.733256E-03 -0.172071E-02  0.208826E-02
   ----------------------------------------------------------------
   Total forces(  31)            :  0.457476E-03  0.137825E-03  0.826081E-04
  atom #   32
   Hellmann-Feynman              :  0.554608E-02  0.205190E-01  0.694249E-01
   Ionic forces                  :  0.000000E+00  0.000000E+00  0.000000E+00
   Multipole                     : -0.326663E-01  0.216104E-01 -0.323244E-01
   Pulay + GGA                   :  0.283211E-01 -0.439945E-01 -0.369477E-01
   Van der Waals                 : -0.150379E-02  0.252393E-02 -0.135958E-04
   ----------------------------------------------------------------
   Total forces(  32)            : -0.302867E-03  0.658856E-03  0.139238E-03

  Timings for VdW correction (Tkatchenko-Scheffler 2009 or later):
  | CPU time:        0.128 s, Wall clock time:        0.126 s.
  Removing unitary transformations (pure translations, rotations) from forces on atoms.
  Atomic forces before filtering:
  | Net force on center of mass :   0.122889E-03  0.584967E-03  0.180263E-03 eV/A
  | Net torque on center of mass:  -0.147650E-02 -0.246131E-03  0.305156E-02 eV
  Atomic forces after filtering:
  | Net force on center of mass :   0.827567E-18 -0.348449E-18  0.544452E-18 eV/A
  | Net torque on center of mass:   0.000000E+00  0.299636E-18 -0.424100E-17 eV

  Energy and forces in a compact form:
  | Total energy uncorrected      :         -0.202086474378658E+05 eV
  | Total energy corrected        :         -0.202086474378658E+05 eV  <-- do not rely on this value for anything but (periodic) metals
  | Electronic free energy        :         -0.202086474378658E+05 eV
  Total atomic forces (unitary forces cleaned) [eV/Ang]:
  |   1          0.112838031055254E-02          0.120620998457321E-02          0.139883378382237E-03
  |   2          0.566787823352212E-04          0.226705510305330E-02         -0.159477801456639E-02
  |   3         -0.104250866873163E-02         -0.162442143450614E-02          0.569845763672167E-03
  |   4         -0.144910394359887E-02          0.159325494801416E-03         -0.121540757803734E-03
  |   5         -0.137902091200913E-03         -0.453821801519945E-03          0.112402352551733E-02
  |   6          0.587879954032870E-03          0.295437502099827E-03         -0.521968466536542E-03
  |   7          0.670420818495778E-04         -0.304341595614097E-02         -0.178767496540339E-02
  |   8          0.594213423171354E-03          0.112467262754549E-02          0.655311526072064E-03
  |   9          0.832432159025979E-03          0.225924024482002E-02         -0.677040054991663E-03
  |  10          0.916532290099033E-03         -0.120188329190547E-03          0.372300291878330E-03
  |  11         -0.174086759424705E-02          0.115914893388911E-02          0.576527076658323E-03
  |  12          0.915338077826029E-05          0.814657726405761E-03         -0.628080197186981E-03
  |  13          0.140500528428665E-02         -0.733657587152981E-03         -0.719916455623054E-03
  |  14          0.639246496995558E-03         -0.406696211695655E-03          0.388048746549462E-03
  |  15         -0.105758921030933E-04         -0.607637124664925E-03         -0.126711313917350E-03
  |  16          0.596948810576733E-03          0.184047976982418E-03         -0.327176802322504E-04
  |  17         -0.934194335723645E-03         -0.111770358792145E-02         -0.110310545219685E-02
  |  18         -0.569250587599316E-03         -0.102524940027811E-02          0.510108090161219E-03
  |  19         -0.748297608816811E-03          0.134394731549139E-02          0.705462506638804E-03
  |  20         -0.102428480169837E-02          0.359275105960094E-03          0.103959583564144E-03
  |  21          0.562867734098286E-03         -0.112287920808533E-02          0.201940445915908E-02
  |  22         -0.685261915747165E-03         -0.653131884669026E-03         -0.487358955804230E-03
  |  23         -0.634412709654245E-03          0.755801386425661E-03         -0.191099908778350E-02
  |  24          0.778358954906629E-04         -0.385515352127808E-04          0.691810732791060E-03
  |  25          0.631017369080376E-03         -0.206459188415661E-03          0.550010599538020E-04
  |  26         -0.149455743297700E-03         -0.294566622061573E-03         -0.724937424298308E-05
  |  27         -0.223188587423757E-03         -0.104290653694987E-02         -0.598326738014195E-03
  |  28          0.637100477358145E-03          0.376674070906187E-03          0.167633330175955E-02
  |  29          0.841350928959083E-03         -0.367263798972418E-03          0.119095432651985E-03
  |  30         -0.333335347483383E-03         -0.252425141480326E-03          0.432372892796148E-03
  |  31          0.434826188877500E-03          0.155204381630294E-03          0.611234450905146E-04
  |  32         -0.335871740241877E-03          0.650277494333532E-03          0.116855701006886E-03

  ------------------------------------ 
  Start decomposition of the XC Energy 
  ------------------------------------ 
  Hartree-Fock part   :          0.000000000 Ha              0.000000000 eV
  ------------------------------------ 
  X Energy            :        -96.984719829 Ha          -2639.088501895 eV
  C Energy GGA        :         -3.870747427 Ha           -105.328396527 eV
  Total XC Energy     :       -100.855467256 Ha          -2744.416898422 eV
  LDA X and C from self-consistent density 
  X Energy LDA        :        -88.004215544 Ha          -2394.716546800 eV
  C Energy LDA        :         -7.532410179 Ha           -204.967309587 eV
  ------------------------------------ 
  End decomposition of the XC Energy 
  ------------------------------------ 
   
  ESP charge fitting starts.
  | Calculation :  00000001  of  00000001
  | Full density
  Computing multipole expansion for total density.
  Generating points for esp charges.
  Partitioning the integration grid into batches with parallel hashing+maxmin method.
  | Number of batches:     3863
  | Maximal batch size:     198
  | Minimal batch size:      52
  | Average batch size:     126.150
  | Standard deviation of batch sizes:      17.053

  Integration load balanced across    32 MPI tasks.
  Work distribution over tasks is as follows:
  Initializing partition tables, free-atom densities, potentials, etc. across the integration grid (initialize_grid_storage).
  | Original list of interatomic distances with          32 x         32 entries is created.
  | Net number of integration points:   487318
  | of which are non-zero points    :   487318
  Summing up potential from multipole expanded  density.
  Summing up the Hartree potential.
  Time summed over all CPUs for potential: real work        6.326 s, elapsed        6.750 s
  Fitting esp charges to potential.
  |
  | ESP charges fitted to the electrostatic potential :
  |
  | Atom         1: C, ESP charge:      0.74218661
  |
  | Atom         2: C, ESP charge:     -0.73799513
  |
  | Atom         3: O, ESP charge:      0.55275100
  |
  | Atom         4: H, ESP charge:     -0.22357168
  |
  | Atom         5: H, ESP charge:     -0.21151936
  |
  | Atom         6: H, ESP charge:     -0.26180205
  |
  | Atom         7: N, ESP charge:      0.64186296
  |
  | Atom         8: C, ESP charge:     -0.45829520
  |
  | Atom         9: C, ESP charge:      0.05041844
  |
  | Atom        10: O, ESP charge:      0.35852843
  |
  | Atom        11: H, ESP charge:     -0.29997773
  |
  | Atom        12: H, ESP charge:     -0.03687158
  |
  | Atom        13: C, ESP charge:      0.36425427
  |
  | Atom        14: H, ESP charge:     -0.10207210
  |
  | Atom        15: H, ESP charge:     -0.09401771
  |
  | Atom        16: H, ESP charge:     -0.10120238
  |
  | Atom        17: N, ESP charge:     -0.04081532
  |
  | Atom        18: C, ESP charge:     -0.14088626
  |
  | Atom        19: C, ESP charge:     -0.34967629
  |
  | Atom        20: O, ESP charge:      0.47869991
  |
  | Atom        21: H, ESP charge:     -0.10830413
  |
  | Atom        22: H, ESP charge:     -0.01747304
  |
  | Atom        23: C, ESP charge:      0.05154838
  |
  | Atom        24: H, ESP charge:     -0.02970443
  |
  | Atom        25: H, ESP charge:     -0.05100917
  |
  | Atom        26: H, ESP charge:      0.01276871
  |
  | Atom        27: N, ESP charge:      0.04606942
  |
  | Atom        28: C, ESP charge:      0.54315949
  |
  | Atom        29: H, ESP charge:      0.00143674
  |
  | Atom        30: H, ESP charge:     -0.18119751
  |
  | Atom        31: H, ESP charge:     -0.19629714
  |
  | Atom        32: H, ESP charge:     -0.20099613

  RRMS:       0.00704113

  Done.

------------------------------------------------------------------------------
  Final output of selected total energy values:

  The following output summarizes some interesting total energy values
  at the end of a run (AFTER all relaxation, molecular dynamics, etc.).

  | Total energy of the DFT / Hartree-Fock s.c.f. calculation      :         -20208.647437866 eV
  | Final zero-broadening corrected energy (caution - metals only) :         -20208.647437866 eV
  | For reference only, the value of 1 Hartree used in FHI-aims is :             27.211384500 eV

  Before relying on these values, please be sure to understand exactly which
  total energy value is referred to by a given number. Different objects may
  all carry the same name 'total energy'. Definitions:

  Total energy of the DFT / Hartree-Fock s.c.f. calculation:
  | Note that this energy does not include ANY quantities calculated after the
  | s.c.f. cycle, in particular not ANY RPA, MP2, etc. many-body perturbation terms.

  Final zero-broadening corrected energy:
  | For metallic systems only, a broadening of the occupation numbers at the Fermi
  | level can be extrapolated back to zero broadening by an electron-gas inspired
  | formula. For all systems that are not real metals, this value can be
  | meaningless and should be avoided.

------------------------------------------------------------------------------
  Methods described in the following list of references were used in this FHI-aims run.
  If you publish the results, please make sure to cite these reference if they apply.
  FHI-aims is an academic code, and for our developers (often, Ph.D. students
  and postdocs), scientific credit in the community is essential.
  Thank you for helping us!

  For any use of FHI-aims, please cite:

    Volker Blum, Ralf Gehrke, Felix Hanke, Paula Havu, Ville Havu,
    Xinguo Ren, Karsten Reuter, and Matthias Scheffler
    'Ab initio molecular simulations with numeric atom-centered orbitals'
    Computer Physics Communications 180, 2175-2196 (2009)
    http://dx.doi.org/10.1016/j.cpc.2009.06.022


  The scalable eigensolver library ELPA was used in your run.
  ELPA is essential especially for large systems on hundreds or thousands of CPUs.
  For ELPA, please cite:

    Andreas Marek, Volker Blum, Rainer Johanni, Ville Havu, Bruno Lang,
    Thomas Auckenthaler, Alexander Heinecke, Hans-Joachim Bungartz, and Hermann Lederer,
    'The ELPA Library - Scalable Parallel Eigenvalue Solutions
    for Electronic Structure Theory and Computational Science'
    The Journal of Physics: Condensed Matter 26, 213201 (2014).
    http://dx.doi.org/10.1088/0953-8984/26/21/213201


  For ELPA's efficient two-stage tridiagonalization used in your run, please cite:

    T. Auckenthaler, V. Blum, H.-J. Bungartz, T. Huckle, R. Johanni, L. Kraemer,
    B. Lang, H. Lederer, and P. R. Willems,
    'Parallel solution of partial symmetric eigenvalue problems'
    'from  electronic structure calculations'
    Parallel Computing 37, 783-794 (2011).
    http://dx.doi.org/10.1016/j.parco.2011.05.002


  For the real-space grid partitioning and parallelization used in this calculation, please cite:

    Ville Havu, Volker Blum, Paula Havu, and Matthias Scheffler,
    'Efficient O(N) integration for all-electron electronic structure calculation'
    'using numerically tabulated basis functions'
    Journal of Computational Physics 228, 8367-8379 (2009).
    http://dx.doi.org/10.1016/j.jcp.2009.08.008

  Of course, there are many other important community references, e.g., those cited in the
  above references. Our list is limited to references that describe implementations in the
  FHI-aims code. The reason is purely practical (length of this list) - please credit others as well.

------------------------------------------------------------
          Leaving FHI-aims.
          Date     :  20170309, Time     :  183356.822

          Computational steps:
          | Number of self-consistency cycles          :           14

          Detailed time accounting                     :  max(cpu_time)    wall_clock(cpu1)
          | Total time                                 :       31.178 s          31.354 s
          | Preparation time                           :        0.236 s           0.233 s
          | Grid partitioning                          :        0.320 s           0.315 s
          | Preloading free-atom quantities on grid    :        0.028 s           0.027 s
          | Free-atom superposition energy             :        0.040 s           0.040 s
          | Total time for integrations                :       11.365 s          11.348 s
          | Total time for solution of K.-S. equations :        0.528 s           0.496 s
          | Total time for density & force components  :       10.029 s          10.009 s
          | Total time for mixing                      :        0.128 s           0.104 s
          | Total time for Hartree multipole update    :        0.064 s           0.060 s
          | Total time for Hartree multipole sum       :        6.336 s           6.305 s
          | Total time for total energy evaluation     :        0.036 s           0.025 s
          | Total time for vdW correction              :        0.128 s           0.126 s

          Have a nice day.
------------------------------------------------------------
