  MPI-parallelism will be employed.
------------------------------------------------------------
          Invoking FHI-aims ...
          Version 150427
          Git rev.: 9dd23e0 BL: Update Version stamp
          Compiled on 2015/11/03 at 22:05:20 on host eos03.

          When using FHI-aims, please cite the following reference:

          Volker Blum, Ralf Gehrke, Felix Hanke, Paula Havu,
          Ville Havu, Xinguo Ren, Karsten Reuter, and Matthias Scheffler,
          'Ab Initio Molecular Simulations with Numeric Atom-Centered Orbitals: FHI-aims',
          Computer Physics Communications 180, 2175-2196 (2009)

          For any questions about FHI-aims, please visit the aimsclub website
          with its forums and wiki. Contributions to both the forums and the
          wiki are warmly encouraged - they are for you, and everyone is welcome there.

------------------------------------------------------------

  Date     :  20170309, Time     :  182040.532
  Time zero on CPU 1             :   0.388024000000000E+00  s.
  Internal wall clock time zero  :           258315640.532  s.

  Using       32 parallel tasks.
  Task        0 on host eos026 reporting.
  Task        1 on host eos026 reporting.
  Task        2 on host eos026 reporting.
  Task        3 on host eos026 reporting.
  Task        4 on host eos026 reporting.
  Task        5 on host eos026 reporting.
  Task        6 on host eos026 reporting.
  Task        7 on host eos026 reporting.
  Task        8 on host eos026 reporting.
  Task        9 on host eos026 reporting.
  Task       10 on host eos026 reporting.
  Task       11 on host eos026 reporting.
  Task       12 on host eos026 reporting.
  Task       13 on host eos026 reporting.
  Task       14 on host eos026 reporting.
  Task       15 on host eos026 reporting.
  Task       16 on host eos026 reporting.
  Task       17 on host eos026 reporting.
  Task       18 on host eos026 reporting.
  Task       19 on host eos026 reporting.
  Task       20 on host eos026 reporting.
  Task       21 on host eos026 reporting.
  Task       22 on host eos026 reporting.
  Task       23 on host eos026 reporting.
  Task       24 on host eos026 reporting.
  Task       25 on host eos026 reporting.
  Task       26 on host eos026 reporting.
  Task       27 on host eos026 reporting.
  Task       28 on host eos026 reporting.
  Task       29 on host eos026 reporting.
  Task       30 on host eos026 reporting.
  Task       31 on host eos026 reporting.

  Performing system and environment tests:
  | Environment variable OMP_NUM_THREADS correctly set to 1.
  | Stacksize not measured: no C compiler
  | Checking for scalapack...
  | Testing pdtran()...
  | All pdtran() tests passed.

  Obtaining array dimensions for all initial allocations:
  
  -----------------------------------------------------------------------
  Parsing control.in (first pass over file, find array dimensions only).
  The contents of control.in will be repeated verbatim below
  unless switched off by setting 'verbatim_writeout .false.' .
  in the first line of control.in .
  -----------------------------------------------------------------------
  
  #########################################################################################
  #
  # Input for System
  #
  #########################################################################################
  #
  #
  #  Physical model
  #
    xc                 pbe
    vdw_correction_hirshfeld
    spin               none
    charge             0.
  #
  #  SCF convergence
  #
    occupation_type    gaussian 0.05
    mixer              pulay
      n_max_pulay        10
      charge_mix_param   0.5
    sc_accuracy_rho    1E-4
    sc_accuracy_eev    1E-2
    sc_accuracy_etot   1E-5
    sc_accuracy_forces 1E-4
    sc_iter_limit      1000
  #
  #  ESP charge
  #
    output esp
    esp equal_grid_n 80 80 80
  #
  #
  ################################################################################
  #
  #  FHI-aims code project
  # Volker Blum, Fritz Haber Institute Berlin, 2009
  #
  #  Suggested "tight" defaults for H atom (to be pasted into control.in file)
  #
  ################################################################################
    species        H
  #     global species definitions
      nucleus             1
      mass                1.00794
  #
      l_hartree           6
  #
      cut_pot             4.0  2.0  1.0
      basis_dep_cutoff    1e-4
  #
      radial_base         24 7.0
      radial_multiplier   2
      angular_grids       specified
        division   0.1930   50
        division   0.3175  110
        division   0.4293  194
        division   0.5066  302
        division   0.5626  434
  #      division   0.5922  590
  #      division   0.6227  974
  #      division   0.6868 1202
  #      outer_grid  770
        outer_grid  434
  ################################################################################
  #
  #  Definition of "minimal" basis
  #
  ################################################################################
  #     valence basis states
      valence      1  s   1.
  #     ion occupancy
      ion_occ      1  s   0.5
  ################################################################################
  #
  #  Suggested additional basis functions. For production calculations,
  #  uncomment them one after another (the most important basis functions are
  #  listed first).
  #
  #  Basis constructed for dimers: 0.5 A, 0.7 A, 1.0 A, 1.5 A, 2.5 A
  #
  ################################################################################
  #  "First tier" - improvements: -1014.90 meV to -62.69 meV
       hydro 2 s 2.1
       hydro 2 p 3.5
  #  "Second tier" - improvements: -12.89 meV to -1.83 meV
       hydro 1 s 0.85
       hydro 2 p 3.7
       hydro 2 s 1.2
       hydro 3 d 7
  #  "Third tier" - improvements: -0.25 meV to -0.12 meV
  #     hydro 4 f 11.2
  #     hydro 3 p 4.8
  #     hydro 4 d 9
  #     hydro 3 s 3.2
  ################################################################################
  #
  # For methods that use the localized form of the "resolution of identity" for
  # the two-electron Coulomb operator (RI_method LVL), particularly Hartree-Fock and
  # hybrid density functional calculations, the highest accuracy can be obtained by
  # uncommenting the line beginning with "for_aux"  below, thus adding an extra g radial
  # function to the construction of the product basis set for the expansion.
  # See Ref. New J. Phys. 17, 093020 (2015) for more information, particularly Figs. 1 and 6.
  #
  ################################################################################
  #
  # for_aux hydro 5 g 6.0
  ################################################################################
  #
  #  FHI-aims code project
  # Volker Blum, Fritz Haber Institute Berlin, 2009
  #
  #  Suggested "tight" defaults for C atom (to be pasted into control.in file)
  #
  ################################################################################
    species        C
  #     global species definitions
      nucleus             6
      mass                12.0107
  #
      l_hartree           6
  #
      cut_pot             4.0  2.0  1.0
      basis_dep_cutoff    1e-4
  #
      radial_base         34 7.0
      radial_multiplier   2
      angular_grids specified
        division   0.2187   50
        division   0.4416  110
        division   0.6335  194
        division   0.7727  302
        division   0.8772  434
  #      division   0.9334  590
  #      division   0.9924  770
  #      division   1.0230  974
  #      division   1.5020 1202
  #     outer_grid  974
        outer_grid  434
  ################################################################################
  #
  #  Definition of "minimal" basis
  #
  ################################################################################
  #     valence basis states
      valence      2  s   2.
      valence      2  p   2.
  #     ion occupancy
      ion_occ      2  s   1.
      ion_occ      2  p   1.
  ################################################################################
  #
  #  Suggested additional basis functions. For production calculations,
  #  uncomment them one after another (the most important basis functions are
  #  listed first).
  #
  #  Constructed for dimers: 1.0 A, 1.25 A, 1.5 A, 2.0 A, 3.0 A
  #
  ################################################################################
  #  "First tier" - improvements: -1214.57 meV to -155.61 meV
       hydro 2 p 1.7
       hydro 3 d 6
       hydro 2 s 4.9
  #  "Second tier" - improvements: -67.75 meV to -5.23 meV
       hydro 4 f 9.8
       hydro 3 p 5.2
       hydro 3 s 4.3
       hydro 5 g 14.4
       hydro 3 d 6.2
  #  "Third tier" - improvements: -2.43 meV to -0.60 meV
  #     hydro 2 p 5.6
  #     hydro 2 s 1.4
  #     hydro 3 d 4.9
  #     hydro 4 f 11.2
  #  "Fourth tier" - improvements: -0.39 meV to -0.18 meV
  #     hydro 2 p 2.1
  #     hydro 5 g 16.4
  #     hydro 4 d 13.2
  #     hydro 3 s 13.6
  #     hydro 4 f 17.6
  #  Further basis functions - improvements: -0.08 meV and below
  #     hydro 3 s 2
  #     hydro 3 p 6
  #     hydro 4 d 20
  ################################################################################
  #
  # For methods that use the localized form of the "resolution of identity" for
  # the two-electron Coulomb operator (RI_method LVL), particularly Hartree-Fock and
  # hybrid density functional calculations, the highest accuracy can be obtained by
  # uncommenting the line beginning with "for_aux"  below, thus adding an extra g radial
  # function to the construction of the product basis set for the expansion.
  # See Ref. New J. Phys. 17, 093020 (2015) for more information, particularly Figs. 1 and 6.
  #
  ################################################################################
  #
  # for_aux hydro 5 g 6.0
  ################################################################################
  #
  #  FHI-aims code project
  # Volker Blum, Fritz Haber Institute Berlin, 2009
  #
  #  Suggested "tight" defaults for N atom (to be pasted into control.in file)
  #
  ################################################################################
    species        N
  #     global species definitions
      nucleus             7
      mass                14.0067
  #
      l_hartree           6
  #
      cut_pot             4.0  2.0  1.0
      basis_dep_cutoff    1e-4
  #
      radial_base         35 7.0
      radial_multiplier   2
      angular_grids       specified
        division   0.1841   50
        division   0.3514  110
        division   0.5126  194
        division   0.6292  302
        division   0.6939  434
  #      division   0.7396  590
  #      division   0.7632  770
  #      division   0.8122  974
  #      division   1.1604 1202
  #      outer_grid  974
        outer_grid  434
  ################################################################################
  #
  #  Definition of "minimal" basis
  #
  ################################################################################
  #     valence basis states
      valence      2  s   2.
      valence      2  p   3.
  #     ion occupancy
      ion_occ      2  s   1.
      ion_occ      2  p   2.
  ################################################################################
  #
  #  Suggested additional basis functions. For production calculations,
  #  uncomment them one after another (the most important basis functions are
  #  listed first).
  #
  #  Constructed for dimers: 1.0 A, 1.1 A, 1.5 A, 2.0 A, 3.0 A
  #
  ################################################################################
  #  "First tier" - improvements: -1193.42 meV to -220.60 meV
       hydro 2 p 1.8
       hydro 3 d 6.8
       hydro 3 s 5.8
  #  "Second tier" - improvements: -80.21 meV to -6.86 meV
       hydro 4 f 10.8
       hydro 3 p 5.8
       hydro 1 s 0.8
       hydro 5 g 16
       hydro 3 d 4.9
  #  "Third tier" - improvements: -4.29 meV to -0.53 meV
  #     hydro 3 s 16
  #     ionic 2 p auto
  #     hydro 3 d 6.6
  #     hydro 4 f 11.6
  #  "Fourth tier" - improvements: -0.75 meV to -0.25 meV
  #     hydro 2 p 4.5
  #     hydro 2 s 2.4
  #     hydro 5 g 14.4
  #     hydro 4 d 14.4
  #     hydro 4 f 16.8
  # Further basis functions - -0.21 meV and below
  #     hydro 3 p 14.8
  #     hydro 3 s 4.4
  #     hydro 3 d 19.6
  #     hydro 5 g 12.8
  ################################################################################
  #
  # For methods that use the localized form of the "resolution of identity" for
  # the two-electron Coulomb operator (RI_method LVL), particularly Hartree-Fock and
  # hybrid density functional calculations, the highest accuracy can be obtained by
  # uncommenting the line beginning with "for_aux"  below, thus adding an extra g radial
  # function to the construction of the product basis set for the expansion.
  # See Ref. New J. Phys. 17, 093020 (2015) for more information, particularly Figs. 1 and 6.
  #
  ################################################################################
  #
  # for_aux hydro 5 g 6.0
  ################################################################################
  #
  #  FHI-aims code project
  # Volker Blum, Fritz Haber Institute Berlin, 2009
  #
  #  Suggested "tight" defaults for O atom (to be pasted into control.in file)
  #
  ################################################################################
    species        O
  #     global species definitions
      nucleus             8
      mass                15.9994
  #
      l_hartree           6
  #
      cut_pot             4.0  2.0  1.0
      basis_dep_cutoff    1e-4
  #
      radial_base         36 7.0
      radial_multiplier   2
       angular_grids specified
        division   0.1817   50
        division   0.3417  110
        division   0.4949  194
        division   0.6251  302
        division   0.8014  434
  #      division   0.8507  590
  #      division   0.8762  770
  #      division   0.9023  974
  #      division   1.2339 1202
  #      outer_grid 974
        outer_grid  434
  ################################################################################
  #
  #  Definition of "minimal" basis
  #
  ################################################################################
  #     valence basis states
      valence      2  s   2.
      valence      2  p   4.
  #     ion occupancy
      ion_occ      2  s   1.
      ion_occ      2  p   3.
  ################################################################################
  #
  #  Suggested additional basis functions. For production calculations,
  #  uncomment them one after another (the most important basis functions are
  #  listed first).
  #
  #  Constructed for dimers: 1.0 A, 1.208 A, 1.5 A, 2.0 A, 3.0 A
  #
  ################################################################################
  #  "First tier" - improvements: -699.05 meV to -159.38 meV
       hydro 2 p 1.8
       hydro 3 d 7.6
       hydro 3 s 6.4
  #  "Second tier" - improvements: -49.91 meV to -5.39 meV
       hydro 4 f 11.6
       hydro 3 p 6.2
       hydro 3 d 5.6
       hydro 5 g 17.6
       hydro 1 s 0.75
  #  "Third tier" - improvements: -2.83 meV to -0.50 meV
  #     ionic 2 p auto
  #     hydro 4 f 10.8
  #     hydro 4 d 4.7
  #     hydro 2 s 6.8
  #  "Fourth tier" - improvements: -0.40 meV to -0.12 meV
  #     hydro 3 p 5
  #     hydro 3 s 3.3
  #     hydro 5 g 15.6
  #     hydro 4 f 17.6
  #     hydro 4 d 14
  # Further basis functions - -0.08 meV and below
  #     hydro 3 s 2.1
  #     hydro 4 d 11.6
  #     hydro 3 p 16
  #     hydro 2 s 17.2
  ################################################################################
  #
  # For methods that use the localized form of the "resolution of identity" for
  # the two-electron Coulomb operator (RI_method LVL), particularly Hartree-Fock and
  # hybrid density functional calculations, the highest accuracy can be obtained by
  # uncommenting the line beginning with "for_aux"  below, thus adding an extra g radial
  # function to the construction of the product basis set for the expansion.
  # See Ref. New J. Phys. 17, 093020 (2015) for more information, particularly Figs. 1 and 6.
  #
  ################################################################################
  #
  # for_aux hydro 5 g 6.0
  
  -----------------------------------------------------------------------
  Completed first pass over input file control.in .
  -----------------------------------------------------------------------
  
  
  -----------------------------------------------------------------------
  Parsing geometry.in (first pass over file, find array dimensions only).
  The contents of geometry.in will be repeated verbatim below
  unless switched off by setting 'verbatim_writeout .false.' .
  in the first line of geometry.in .
  -----------------------------------------------------------------------
  
  #
  # This is the geometry file that corresponds to the current relaxation step.
  # If you do not want this file to be written, set the "write_restart_geometry" flag to .false.
  #
  atom       1.36113686      2.10606101      0.80255487 C
  atom       0.32018685      2.24382234      1.89992432 C
  atom       0.49014177      2.96125424      2.88088453 O
  atom       1.10082112      1.37119537      0.03012056 H
  atom       2.31847909      1.82708136      1.25885656 H
  atom       1.49741969      3.08476436      0.32482344 H
  atom      -0.83578556      1.52896421      1.70262935 N
  atom      -1.87911399      1.45656158      2.73134766 C
  atom      -2.75868908      0.21898665      2.51580763 C
  atom      -2.97816200     -0.56012089      3.43961884 O
  atom      -0.83267202      0.81544591      0.98318410 H
  atom      -1.39138847      1.27211576      3.69880589 H
  atom      -2.69331896      2.75557425      2.85978288 C
  atom      -2.03623292      3.54796743      3.23429405 H
  atom      -3.11603641      3.08320959      1.90337388 H
  atom      -3.51008391      2.61219697      3.57945720 H
  atom      -3.26289165     -0.04894586      1.25756081 N
  atom      -3.57216014      0.86230199      0.15741828 C
  atom      -4.77803354      1.81951188      0.34183592 C
  atom      -4.73057158      2.91962957     -0.20747340 O
  atom      -3.76819633     -0.93241863      1.25715873 H
  atom      -2.73356802      1.55757716      0.02540056 H
  atom      -3.75168130      0.06151256     -1.13684199 C
  atom      -3.97154511      0.73983408     -1.96897945 H
  atom      -4.58241924     -0.65452958     -1.05331993 H
  atom      -2.83789473     -0.50024878     -1.36984517 H
  atom      -5.86621163      1.44665734      1.07612605 N
  atom      -6.21180615      0.17519798      1.69982832 C
  atom      -6.56888533      2.17945394      1.10027359 H
  atom      -7.26557552      0.22336628      1.99522713 H
  atom      -5.61756014     -0.03529901      2.59924214 H
  atom      -6.11474167     -0.66729507      1.00004060 H
  
  -----------------------------------------------------------------------
  Completed first pass over input file geometry.in .
  -----------------------------------------------------------------------
  

  Basic array size parameters:
  | Number of species                 :        4
  | Number of atoms                   :       32
  | Max. basis fn. angular momentum   :        4
  | Max. atomic/ionic basis occupied n:        2
  | Max. number of basis fn. types    :        2
  | Max. radial fns per species/type  :        8
  | Max. logarithmic grid size        :     1301
  | Max. radial integration grid size :       73
  | Max. angular integration grid size:      434
  | Max. angular grid division number :        8
  | Radial grid for Hartree potential :     1301
  | Number of spin channels           :        1

------------------------------------------------------------
          Reading file control.in.
------------------------------------------------------------
  XC: Using PBE gradient-corrected functionals.
  Spin treatment: No spin polarisation.
  Charge =   0.000000E+00: Neutral system requested explicitly.
  Occupation type: Gaussian broadening, width =   0.500000E-01 eV.
  Using pulay charge density mixing.
  Pulay mixing - number of memorized iterations:   10
  Charge density mixing - mixing parameter:     0.5000
  Convergence accuracy of self-consistent charge density:  0.1000E-03
  Convergence accuracy of sum of eigenvalues:  0.1000E-01
  Convergence accuracy of total energy:  0.1000E-04
  Convergence accuracy of forces:  0.1000E-03
  Maximum number of s.-c. iterations  :  1000
  Fitting ESP-charges to Potential. 
  | Esp charge output options: 
  | ESP Grid method: 3, cubic grid
  | Number of points in x, ,y, z:  0080 0080 0080
  |
 
  Reading configuration options for species H                   .
  | Found nuclear charge :   1.0000
  | Found atomic mass :    1.00794000000000      amu
  | Found l_max for Hartree potential  :   6
  | Found cutoff potl. onset [A], width [A], scale factor :    4.00000    2.00000    1.00000
  | Threshold for basis-dependent cutoff potential is   0.100000E-03
  | Found data for basic radial integration grid :    24 points, outermost radius =    7.000 A
  | Found multiplier for basic radial grid :   2
  | Found angular grid specification: user-specified.
  | Specified grid contains     6 separate shells.
  | Check grid settings after all constraints further below.
  | Found free-atom valence shell :  1 s   1.000
  | No ionic wave fns used. Skipping ion_occ.
  | Found hydrogenic basis function :  2 s   2.100
  | Found hydrogenic basis function :  2 p   3.500
  | Found hydrogenic basis function :  1 s   0.850
  | Found hydrogenic basis function :  2 p   3.700
  | Found hydrogenic basis function :  2 s   1.200
  | Found hydrogenic basis function :  3 d   7.000
  Species H                   : Missing cutoff potential type.
  Defaulting to exp(1/x)/(1-x)^2 type cutoff potential.
  Species H : No 'logarithmic' tag. Using default grid for free atom:
  | Default logarithmic grid data [bohr] : 0.1000E-03 0.1000E+03 0.1012E+01
  Species H : On-site basis accuracy parameter (for Gram-Schmidt orthonormalisation) not specified.
  Using default value basis_acc =  0.1000000E-03.
  Species H                   : Using default innermost maximum threshold i_radial=  2 for radial functions.
  Species H                   : Default cutoff onset for free atom density etc. : 0.40000000E+01 AA.
  Species H                   : Basic radial grid will be enhanced according to radial_multiplier =   2, to contain    49 grid points.
 
  Reading configuration options for species C                   .
  | Found nuclear charge :   6.0000
  | Found atomic mass :    12.0107000000000      amu
  | Found l_max for Hartree potential  :   6
  | Found cutoff potl. onset [A], width [A], scale factor :    4.00000    2.00000    1.00000
  | Threshold for basis-dependent cutoff potential is   0.100000E-03
  | Found data for basic radial integration grid :    34 points, outermost radius =    7.000 A
  | Found multiplier for basic radial grid :   2
  | Found angular grid specification: user-specified.
  | Specified grid contains     6 separate shells.
  | Check grid settings after all constraints further below.
  | Found free-atom valence shell :  2 s   2.000
  | Found free-atom valence shell :  2 p   2.000
  | No ionic wave fns used. Skipping ion_occ.
  | No ionic wave fns used. Skipping ion_occ.
  | Found hydrogenic basis function :  2 p   1.700
  | Found hydrogenic basis function :  3 d   6.000
  | Found hydrogenic basis function :  2 s   4.900
  | Found hydrogenic basis function :  4 f   9.800
  | Found hydrogenic basis function :  3 p   5.200
  | Found hydrogenic basis function :  3 s   4.300
  | Found hydrogenic basis function :  5 g  14.400
  | Found hydrogenic basis function :  3 d   6.200
  Species C                   : Missing cutoff potential type.
  Defaulting to exp(1/x)/(1-x)^2 type cutoff potential.
  Species C : No 'logarithmic' tag. Using default grid for free atom:
  | Default logarithmic grid data [bohr] : 0.1000E-03 0.1000E+03 0.1012E+01
  Species C : On-site basis accuracy parameter (for Gram-Schmidt orthonormalisation) not specified.
  Using default value basis_acc =  0.1000000E-03.
  Species C                   : Using default innermost maximum threshold i_radial=  2 for radial functions.
  Species C                   : Default cutoff onset for free atom density etc. : 0.40000000E+01 AA.
  Species C                   : Basic radial grid will be enhanced according to radial_multiplier =   2, to contain    69 grid points.
 
  Reading configuration options for species N                   .
  | Found nuclear charge :   7.0000
  | Found atomic mass :    14.0067000000000      amu
  | Found l_max for Hartree potential  :   6
  | Found cutoff potl. onset [A], width [A], scale factor :    4.00000    2.00000    1.00000
  | Threshold for basis-dependent cutoff potential is   0.100000E-03
  | Found data for basic radial integration grid :    35 points, outermost radius =    7.000 A
  | Found multiplier for basic radial grid :   2
  | Found angular grid specification: user-specified.
  | Specified grid contains     6 separate shells.
  | Check grid settings after all constraints further below.
  | Found free-atom valence shell :  2 s   2.000
  | Found free-atom valence shell :  2 p   3.000
  | No ionic wave fns used. Skipping ion_occ.
  | No ionic wave fns used. Skipping ion_occ.
  | Found hydrogenic basis function :  2 p   1.800
  | Found hydrogenic basis function :  3 d   6.800
  | Found hydrogenic basis function :  3 s   5.800
  | Found hydrogenic basis function :  4 f  10.800
  | Found hydrogenic basis function :  3 p   5.800
  | Found hydrogenic basis function :  1 s   0.800
  | Found hydrogenic basis function :  5 g  16.000
  | Found hydrogenic basis function :  3 d   4.900
  Species N                   : Missing cutoff potential type.
  Defaulting to exp(1/x)/(1-x)^2 type cutoff potential.
  Species N : No 'logarithmic' tag. Using default grid for free atom:
  | Default logarithmic grid data [bohr] : 0.1000E-03 0.1000E+03 0.1012E+01
  Species N : On-site basis accuracy parameter (for Gram-Schmidt orthonormalisation) not specified.
  Using default value basis_acc =  0.1000000E-03.
  Species N                   : Using default innermost maximum threshold i_radial=  2 for radial functions.
  Species N                   : Default cutoff onset for free atom density etc. : 0.40000000E+01 AA.
  Species N                   : Basic radial grid will be enhanced according to radial_multiplier =   2, to contain    71 grid points.
 
  Reading configuration options for species O                   .
  | Found nuclear charge :   8.0000
  | Found atomic mass :    15.9994000000000      amu
  | Found l_max for Hartree potential  :   6
  | Found cutoff potl. onset [A], width [A], scale factor :    4.00000    2.00000    1.00000
  | Threshold for basis-dependent cutoff potential is   0.100000E-03
  | Found data for basic radial integration grid :    36 points, outermost radius =    7.000 A
  | Found multiplier for basic radial grid :   2
  | Found angular grid specification: user-specified.
  | Specified grid contains     6 separate shells.
  | Check grid settings after all constraints further below.
  | Found free-atom valence shell :  2 s   2.000
  | Found free-atom valence shell :  2 p   4.000
  | No ionic wave fns used. Skipping ion_occ.
  | No ionic wave fns used. Skipping ion_occ.
  | Found hydrogenic basis function :  2 p   1.800
  | Found hydrogenic basis function :  3 d   7.600
  | Found hydrogenic basis function :  3 s   6.400
  | Found hydrogenic basis function :  4 f  11.600
  | Found hydrogenic basis function :  3 p   6.200
  | Found hydrogenic basis function :  3 d   5.600
  | Found hydrogenic basis function :  5 g  17.600
  | Found hydrogenic basis function :  1 s   0.750
  Species O                   : Missing cutoff potential type.
  Defaulting to exp(1/x)/(1-x)^2 type cutoff potential.
  Species O : No 'logarithmic' tag. Using default grid for free atom:
  | Default logarithmic grid data [bohr] : 0.1000E-03 0.1000E+03 0.1012E+01
  Species O : On-site basis accuracy parameter (for Gram-Schmidt orthonormalisation) not specified.
  Using default value basis_acc =  0.1000000E-03.
  Species O                   : Using default innermost maximum threshold i_radial=  2 for radial functions.
  Species O                   : Default cutoff onset for free atom density etc. : 0.40000000E+01 AA.
  Species O                   : Basic radial grid will be enhanced according to radial_multiplier =   2, to contain    73 grid points.
 
  Finished reading input file 'control.in'. Consistency checks are next.
 
  Target number of points in a grid batch is not set. Defaulting to  100
  Method for grid partitioning is not set. Defaulting to parallel hash+maxmin partitioning.
  Batch size limit is not set. Defaulting to    200
  By default, will store active basis functions for each batch.
  If in need of memory, prune_basis_once .false. can be used to disable this option.
  communication_type for Hartree potential was not specified.
  Defaulting to calc_hartree .
  Pulay mixer: Number of initial linear mixing iterations not set.
  Defaulting to    0 iterations.
  Work space size for distributed Hartree potential not set.
  Defaulting to   0.200000E+03 MB.
  Algorithm-dependent basis array size parameters:
  | n_max_pulay                         :       10
  Geometry relaxation not requested: no relaxation will be performed.
  Handling of forces: Unphysical translation and rotation will be removed from forces.
  No accuracy limit for integral partition fn. given. Defaulting to  0.1000E-14.
  No threshold value for u(r) in integrations given. Defaulting to  0.1000E-05.
  No accuracy for occupation numbers given. Defaulting to  0.1000E-07.
  No threshold value for occupation numbers given. Defaulting to  0.0000E+00.
  No accuracy for fermi level given. Defaulting to  0.1000E-19.
  Maximum # of iterations to find E_F not set. Defaulting to  200.
  Preferred method for the eigenvalue solver ('KS_method') not specified in 'control.in'.
  Calling blacs routine to test compilation state
  Since scalapack support is enabled, defaulting to 'elpa'.
  Preferred method for the MBD eigenvalue solver ('mbd_eigensolver') not specified in 'control.in'.
  Calling blacs routine to test compilation state
  Since scalapack support is enabled, defaulting to 'scaLAPACK'.
  Will not use alltoall communication since running on < 1024 CPUs.
  Threshold for basis singularities not set.
  Default threshold for basis singularities:  0.1000E-04
  partition_type (choice of integration weights) for integrals was not specified.
  | Using a version of the partition function of Stratmann and coworkers ('stratmann_smoother').
  | At each grid point, the set of atoms used to build the partition table is smoothly restricted to
  | only those atoms whose free-atom density would be non-zero at that grid point.
  Partitioning for Hartree potential was not defined. Using partition_type for integrals.
  | Adjusted default value of keyword multip_moments_threshold to:       0.10000000E-11
  | This value may affect high angular momentum components of the Hartree potential in periodic systems.
  No q(lm)/r^(l+1) cutoff set for long-range Hartree potential.
  | Using default value of  0.100000E-09 .
  | Verify using the multipole_threshold keyword.
  Defaulting to new monopole extrapolation.
  Density update method: automatic selection selected.
------------------------------------------------------------


------------------------------------------------------------
          Reading geometry description geometry.in.
------------------------------------------------------------
 * Warning! You did not set the 'relativistic' flag in input file 'control.in'.
 * Since you are not attempting to treat any elements beyond Ca(Z=20), FHI-aims
 * will default to 'relativistic none'.
 * You must ensure that this is really what you want!!
 * For example, DO NOT compute total-energy differences between results from
 * different settings of the 'relativistic' flag.
  Input structure read successfully.
  The structure contains       32 atoms,  and a total of        116.000 electrons.

  Input geometry:
  | No unit cell requested.
  | Atomic structure:
  |       Atom                x [A]            y [A]            z [A]
  |    1: Species C              1.361137         2.106061         0.802555
  |    2: Species C              0.320187         2.243822         1.899924
  |    3: Species O              0.490142         2.961254         2.880885
  |    4: Species H              1.100821         1.371195         0.030121
  |    5: Species H              2.318479         1.827081         1.258857
  |    6: Species H              1.497420         3.084764         0.324823
  |    7: Species N             -0.835786         1.528964         1.702629
  |    8: Species C             -1.879114         1.456562         2.731348
  |    9: Species C             -2.758689         0.218987         2.515808
  |   10: Species O             -2.978162        -0.560121         3.439619
  |   11: Species H             -0.832672         0.815446         0.983184
  |   12: Species H             -1.391388         1.272116         3.698806
  |   13: Species C             -2.693319         2.755574         2.859783
  |   14: Species H             -2.036233         3.547967         3.234294
  |   15: Species H             -3.116036         3.083210         1.903374
  |   16: Species H             -3.510084         2.612197         3.579457
  |   17: Species N             -3.262892        -0.048946         1.257561
  |   18: Species C             -3.572160         0.862302         0.157418
  |   19: Species C             -4.778034         1.819512         0.341836
  |   20: Species O             -4.730572         2.919630        -0.207473
  |   21: Species H             -3.768196        -0.932419         1.257159
  |   22: Species H             -2.733568         1.557577         0.025401
  |   23: Species C             -3.751681         0.061513        -1.136842
  |   24: Species H             -3.971545         0.739834        -1.968979
  |   25: Species H             -4.582419        -0.654530        -1.053320
  |   26: Species H             -2.837895        -0.500249        -1.369845
  |   27: Species N             -5.866212         1.446657         1.076126
  |   28: Species C             -6.211806         0.175198         1.699828
  |   29: Species H             -6.568885         2.179454         1.100274
  |   30: Species H             -7.265576         0.223366         1.995227
  |   31: Species H             -5.617560        -0.035299         2.599242
  |   32: Species H             -6.114742        -0.667295         1.000041
  |

  | The smallest distance between any two atoms is         1.01327169 AA.
  |
  | The first atom of this pair is atom number                      7 .
  | The second atom of this pair is atom number                    11 .

  Number of empty states per atom not set in control.in - providing a guess from actual geometry.
  | Total number of empty states used during s.c.f. cycle:       71
  If you use a very high smearing, use empty_states (per atom!) in control.in to increase this value.

  Structure-dependent array size parameters: 
  | Maximum number of distinct radial functions  :       40
  | Maximum number of basis functions            :      840
  | Number of Kohn-Sham states (occupied + empty):      129
------------------------------------------------------------

------------------------------------------------------------
          Preparing all fixed parts of the calculation.
------------------------------------------------------------
  Determining machine precision:
    2.225073858507201E-308
  Setting up grids for atomic and cluster calculations.

  Creating wave function, potential, and density for free atoms.

  Species: H

  List of occupied orbitals and eigenvalues:
    n    l              occ      energy [Ha]    energy [eV]
    1    0           1.0000        -0.238382        -6.4867


  Species: C

  List of occupied orbitals and eigenvalues:
    n    l              occ      energy [Ha]    energy [eV]
    1    0           2.0000       -10.041232      -273.2358
    2    0           2.0000        -0.504327       -13.7234
    2    1           2.0000        -0.193750        -5.2722


  Species: N

  List of occupied orbitals and eigenvalues:
    n    l              occ      energy [Ha]    energy [eV]
    1    0           2.0000       -14.129007      -384.4699
    2    0           2.0000        -0.681802       -18.5528
    2    1           3.0000        -0.260543        -7.0897


  Species: O

  List of occupied orbitals and eigenvalues:
    n    l              occ      energy [Ha]    energy [eV]
    1    0           2.0000       -18.898576      -514.2564
    2    0           2.0000        -0.878795       -23.9132
    2    1           4.0000        -0.332075        -9.0362

  Creating fixed part of basis set: Ionic, confined, hydrogenic.
 
  H                    hydrogenic:
 
  List of hydrogenic basis orbitals: 
    n    l      effective z      eigenvalue [eV]  inner max. [A]     outer max. [A]     outer radius [A]   
    2    0         2.100000       -14.9965           0.193243           1.317208           5.373006
    2    1         3.500000       -41.6672           0.602369           0.602369           4.056063
    1    0         0.850000        -9.8292           0.624871           0.624871           5.373006
    2    1         3.700000       -46.5653           0.573622           0.573622           3.910002
    2    0         1.200000        -4.5995           0.334980           2.228188           5.505995
    3    2         7.000000       -74.0753           0.680699           0.680699           3.769201
 
 
  C                    hydrogenic:
 
  List of hydrogenic basis orbitals: 
    n    l      effective z      eigenvalue [eV]  inner max. [A]     outer max. [A]     outer radius [A]   
    2    1         1.700000        -9.8152           1.245706           1.245706           5.401630
    3    2         6.000000       -54.4226           0.792453           0.792453           4.178599
    2    0         4.900000       -81.6681           0.082559           0.562749           3.353238
    4    3         9.800000       -81.6681           0.863254           0.863254           4.028125
    3    1         5.200000       -40.8774           0.305389           1.215618           4.898362
    3    0         4.300000       -27.9508           0.091041           1.610311           5.401630
    5    4        14.400000      -112.8510           0.917666           0.917666           3.883070
    3    2         6.200000       -58.1113           0.763917           0.763917           4.077671
 
 
  N                    hydrogenic:
 
  List of hydrogenic basis orbitals: 
    n    l      effective z      eigenvalue [eV]  inner max. [A]     outer max. [A]     outer radius [A]   
    2    1         1.800000       -11.0118           1.177451           1.177451           5.427479
    3    2         6.800000       -69.9029           0.704619           0.704619           3.854246
    3    0         5.800000       -50.8549           0.067388           1.191934           4.629968
    4    3        10.800000       -99.1854           0.786571           0.786571           3.761152
    3    1         5.800000       -50.8549           0.274880           1.094176           4.518138
    1    0         0.800000        -8.7059           0.662839           0.662839           5.361532
    5    4        16.000000      -139.3222           0.825990           0.825990           3.625711
    3    2         4.900000       -36.2967           0.968267           0.968267           4.862000
 
 
  O                    hydrogenic:
 
  List of hydrogenic basis orbitals: 
    n    l      effective z      eigenvalue [eV]  inner max. [A]     outer max. [A]     outer radius [A]   
    2    1         1.800000       -11.0118           1.178562           1.178562           5.432602
    3    2         7.600000       -87.3182           0.624125           0.624125           3.541477
    3    0         6.400000       -61.9209           0.061167           1.081902           4.306578
    4    3        11.600000      -114.4238           0.731631           0.731631           3.585037
    3    1         6.200000       -58.1113           0.255680           1.030270           4.306578
    3    2         5.600000       -47.4081           0.847233           0.847233           4.413171
    5    4        17.600000      -168.5799           0.749740           0.749740           3.372465
    1    0         0.750000        -7.6499           0.705284           0.705284           5.366593
 

  Adding cutoff potential to free-atom effective potential.
  Creating atomic-like basis functions for current effective potential.

  Species H                   :

  List of atomic basis orbitals and eigenvalues:
    n    l      energy [Ha]    energy [eV]    outer radius [A]
    1    0        -0.238382        -6.4867       5.373006


  Species C                   :

  List of atomic basis orbitals and eigenvalues:
    n    l      energy [Ha]    energy [eV]    outer radius [A]
    1    0       -10.041232      -273.2358       1.934409
    2    0        -0.504327       -13.7234       5.271162
    2    1        -0.193750        -5.2722       5.401630


  Species N                   :

  List of atomic basis orbitals and eigenvalues:
    n    l      energy [Ha]    energy [eV]    outer radius [A]
    1    0       -14.129007      -384.4699       1.637919
    2    0        -0.681802       -18.5528       5.168461
    2    1        -0.260543        -7.0897       5.361532


  Species O                   :

  List of atomic basis orbitals and eigenvalues:
    n    l      energy [Ha]    energy [eV]    outer radius [A]
    1    0       -18.898576      -514.2564       1.415765
    2    0        -0.878795       -23.9132       5.048385
    2    1        -0.332075        -9.0362       5.301386

  Assembling full basis from fixed parts.
  | Species H :   atomic orbital   1 s accepted.
  | Species H :    hydro orbital   2 s accepted.
  | Species H :    hydro orbital   1 s accepted.
  | Species H :    hydro orbital   2 s accepted.
  | Species H :    hydro orbital   2 p accepted.
  | Species H :    hydro orbital   2 p accepted.
  | Species H :    hydro orbital   3 d accepted.
  | Species C :   atomic orbital   1 s accepted.
  | Species C :    hydro orbital   2 s accepted.
  | Species C :   atomic orbital   2 s accepted.
  | Species C :    hydro orbital   3 s accepted.
  | Species C :    hydro orbital   3 p accepted.
  | Species C :   atomic orbital   2 p accepted.
  | Species C :    hydro orbital   2 p accepted.
  | Species C :    hydro orbital   3 d accepted.
  | Species C :    hydro orbital   3 d accepted.
  | Species C :    hydro orbital   4 f accepted.
  | Species C :    hydro orbital   5 g accepted.
  | Species N :   atomic orbital   1 s accepted.
  | Species N :    hydro orbital   3 s accepted.
  | Species N :   atomic orbital   2 s accepted.
  | Species N :    hydro orbital   1 s accepted.
  | Species N :    hydro orbital   3 p accepted.
  | Species N :   atomic orbital   2 p accepted.
  | Species N :    hydro orbital   2 p accepted.
  | Species N :    hydro orbital   3 d accepted.
  | Species N :    hydro orbital   3 d accepted.
  | Species N :    hydro orbital   4 f accepted.
  | Species N :    hydro orbital   5 g accepted.
  | Species O :   atomic orbital   1 s accepted.
  | Species O :    hydro orbital   3 s accepted.
  | Species O :   atomic orbital   2 s accepted.
  | Species O :    hydro orbital   1 s accepted.
  | Species O :    hydro orbital   3 p accepted.
  | Species O :   atomic orbital   2 p accepted.
  | Species O :    hydro orbital   2 p accepted.
  | Species O :    hydro orbital   3 d accepted.
  | Species O :    hydro orbital   3 d accepted.
  | Species O :    hydro orbital   4 f accepted.
  | Species O :    hydro orbital   5 g accepted.
 
  Basis size parameters after reduction:
  | Total number of radial functions:       40
  | Total number of basis functions :      840
 
  Testing on-site integration grid accuracy.
  |  Species  Function  <phi|h_atom|phi> (log., in eV)  <phi|h_atom|phi> (rad., in eV)
           1        1                 -6.4869821809                 -6.4870742227
           1        2                 13.5044133542                 13.5041049177
           1        3                 32.7854418792                 32.7779770519
           1        4                 33.7995553101                 33.7152624900 ***
           1        5                 28.8558651799                 28.8558652046
           1        6                 59.6361831893                 59.6362535845
           1        7                 60.2733718049                 60.2733715484
           2        8               -273.2358277112               -273.2358261765
           2        9                -10.7624923123                -10.7625144012
           2       10                 17.4634079027                 17.4634252127
           2       11                 53.0363661832                 53.0366180446
           2       12                 15.0981351967                 15.0981317714
           2       13                  3.8522181899                  3.8522770949
           2       14                 12.1181835661                 12.1206868578
           2       15                 29.4320778347                 29.4320780959
           2       16                 54.8753777694                 54.8752901936
           2       17                 59.3533975461                 59.3533974833
           2       18                 93.4537491195                 93.4537492066
           3       19               -384.4698526889               -384.4698499465
           3       20                 12.5691022037                 12.5690910168
           3       21                -15.7489097511                -15.7489165588
           3       22                 27.0978334940                 27.0985589490
           3       23                 18.5949116966                 18.5949125562
           3       24                  1.2212828291                  1.2212855301
           3       25                 13.4428926797                 13.4434051125
           3       26                 35.9380614500                 35.9380613666
           3       27                 39.9231532098                 39.9231654735
           3       28                 72.9957335806                 72.9957336833
           3       29                116.4231321147                116.4231321431
           4       30               -514.2564144315               -514.2564099626
           4       31                 15.1726678541                 15.1726530877
           4       32                -21.5447785304                -21.5447874973
           4       33                 14.4944558459                 14.4944698284
           4       34                 20.8882174564                 20.8882178906
           4       35                 -2.4850315908                 -2.4850322289
           4       36                 13.8600193195                 13.8599826966
           4       37                 45.8243383616                 45.8243383675
           4       38                 52.1840606465                 52.1840622440
           4       39                 85.4074185510                 85.4074185819
           4       40                142.0983717302                142.0983717339
 * Note: Onsite integrals marked "***" above are less accurate than
 * onsite_accuracy_threshold =    0.03000 eV. Usually, this is harmless.
 * When in doubt, tighten the "radial" and/or "radial_multiplier" flags to check.

  Preparing densities etc. for the partition functions (integrals / Hartree potential).

  Preparations completed.
  max(cpu_time)          :      0.232 s.
  Wall clock time (cpu1) :      0.233 s.
------------------------------------------------------------

------------------------------------------------------------
          Begin self-consistency loop: Initialization.

          Date     :  20170309, Time     :  182041.597
------------------------------------------------------------

  Initializing index lists of integration centers etc. from given atomic structure:
  | Number of centers in hartree potential         :        32
  | Number of centers in hartree multipole         :        32
  | Number of centers in electron density summation:        32
  | Number of centers in basis integrals           :        32
  | Number of centers in integrals                 :        32
  | Number of centers in hamiltonian               :        32
  Using modified Scalapack Eigenvalue solver (ELPA)
  * Using 32 tasks for Scalapack Eigenvalue solver.
  Detailed listing of tasks and assigned k-points:
  (for non-periodic systems, the "k-point" denotes an internal label only)
   Task     0 k-point     1 on eos026
   Task     1 k-point     1 on eos026
   Task     2 k-point     1 on eos026
   Task     3 k-point     1 on eos026
   Task     4 k-point     1 on eos026
   Task     5 k-point     1 on eos026
   Task     6 k-point     1 on eos026
   Task     7 k-point     1 on eos026
   Task     8 k-point     1 on eos026
   Task     9 k-point     1 on eos026
   Task    10 k-point     1 on eos026
   Task    11 k-point     1 on eos026
   Task    12 k-point     1 on eos026
   Task    13 k-point     1 on eos026
   Task    14 k-point     1 on eos026
   Task    15 k-point     1 on eos026
   Task    16 k-point     1 on eos026
   Task    17 k-point     1 on eos026
   Task    18 k-point     1 on eos026
   Task    19 k-point     1 on eos026
   Task    20 k-point     1 on eos026
   Task    21 k-point     1 on eos026
   Task    22 k-point     1 on eos026
   Task    23 k-point     1 on eos026
   Task    24 k-point     1 on eos026
   Task    25 k-point     1 on eos026
   Task    26 k-point     1 on eos026
   Task    27 k-point     1 on eos026
   Task    28 k-point     1 on eos026
   Task    29 k-point     1 on eos026
   Task    30 k-point     1 on eos026
   Task    31 k-point     1 on eos026
  Tasks:    32 split into      8 X      4 BLACS grid
  Calculating blocksize based on n_basis =          840 max_nprow =            8 max_npcol =            4
  Scalapack blocksize set to:           16
  Required Scalapack workspace - INTEGER:            1 REAL:             1
  Partitioning the integration grid into batches with parallel hashing+maxmin method.
  | Number of batches:     4888
  | Maximal batch size:     199
  | Minimal batch size:      43
  | Average batch size:     107.964
  | Standard deviation of batch sizes:      34.191

  Integration load balanced across    32 MPI tasks.
  Work distribution over tasks is as follows:
  Task     0 has      16441 integration points.
  Task     1 has      16554 integration points.
  Task     2 has      16499 integration points.
  Task     3 has      16522 integration points.
  Task     4 has      16478 integration points.
  Task     5 has      16445 integration points.
  Task     6 has      16465 integration points.
  Task     7 has      16544 integration points.
  Task     8 has      16465 integration points.
  Task     9 has      16524 integration points.
  Task    10 has      16544 integration points.
  Task    11 has      16532 integration points.
  Task    12 has      16468 integration points.
  Task    13 has      16494 integration points.
  Task    14 has      16534 integration points.
  Task    15 has      16471 integration points.
  Task    16 has      16507 integration points.
  Task    17 has      16551 integration points.
  Task    18 has      16454 integration points.
  Task    19 has      16441 integration points.
  Task    20 has      16529 integration points.
  Task    21 has      16484 integration points.
  Task    22 has      16459 integration points.
  Task    23 has      16487 integration points.
  Task    24 has      16444 integration points.
  Task    25 has      16475 integration points.
  Task    26 has      16487 integration points.
  Task    27 has      16483 integration points.
  Task    28 has      16479 integration points.
  Task    29 has      16529 integration points.
  Task    30 has      16491 integration points.
  Task    31 has      16448 integration points.
  Initializing partition tables, free-atom densities, potentials, etc. across the integration grid (initialize_grid_storage).
  | initialize_grid_storage: Actual outermost partition radius vs. multipole_radius_free
  | (-- VB: in principle, multipole_radius_free should be larger, hence this output)
  | Species        1: Confinement radius =              6.000000000000000 AA, multipole_radius_free =              6.071692442739658 AA.
  | Species        1: outer_partition_radius set to              6.071692442739658 AA .
  | Species        2: Confinement radius =              6.000000000000000 AA, multipole_radius_free =              6.029870734432609 AA.
  | Species        2: outer_partition_radius set to              6.029870734432609 AA .
  | Species        3: Confinement radius =              6.000000000000000 AA, multipole_radius_free =              6.058726835495003 AA.
  | Species        3: outer_partition_radius set to              6.058726835495003 AA .
  | Species        4: Confinement radius =              6.000000000000000 AA, multipole_radius_free =              6.064445521808699 AA.
  | Species        4: outer_partition_radius set to              6.064445521808699 AA .
  | Original list of interatomic distances with          32 x         32 entries is created.
  | Net number of integration points:   527728
  | of which are non-zero points    :   413765
  Obtaining max. number of non-zero basis functions in each batch (get_n_compute_maxes).
  | Maximal number of non-zero basis functions:      782 in task     0
  | Maximal number of non-zero basis functions:      772 in task     1
  | Maximal number of non-zero basis functions:      776 in task     2
  | Maximal number of non-zero basis functions:      792 in task     3
  | Maximal number of non-zero basis functions:      791 in task     4
  | Maximal number of non-zero basis functions:      771 in task     5
  | Maximal number of non-zero basis functions:      792 in task     6
  | Maximal number of non-zero basis functions:      792 in task     7
  | Maximal number of non-zero basis functions:      795 in task     8
  | Maximal number of non-zero basis functions:      773 in task     9
  | Maximal number of non-zero basis functions:      764 in task    10
  | Maximal number of non-zero basis functions:      795 in task    11
  | Maximal number of non-zero basis functions:      795 in task    12
  | Maximal number of non-zero basis functions:      795 in task    13
  | Maximal number of non-zero basis functions:      773 in task    14
  | Maximal number of non-zero basis functions:      766 in task    15
  | Maximal number of non-zero basis functions:      789 in task    16
  | Maximal number of non-zero basis functions:      764 in task    17
  | Maximal number of non-zero basis functions:      777 in task    18
  | Maximal number of non-zero basis functions:      791 in task    19
  | Maximal number of non-zero basis functions:      769 in task    20
  | Maximal number of non-zero basis functions:      794 in task    21
  | Maximal number of non-zero basis functions:      786 in task    22
  | Maximal number of non-zero basis functions:      791 in task    23
  | Maximal number of non-zero basis functions:      775 in task    24
  | Maximal number of non-zero basis functions:      774 in task    25
  | Maximal number of non-zero basis functions:      780 in task    26
  | Maximal number of non-zero basis functions:      795 in task    27
  | Maximal number of non-zero basis functions:      778 in task    28
  | Maximal number of non-zero basis functions:      770 in task    29
  | Maximal number of non-zero basis functions:      795 in task    30
  | Maximal number of non-zero basis functions:      778 in task    31
  Selecting the method for density update.
  Loop over occupied states selected for charge density update.
  Integrating Hamiltonian matrix: batch-based integration.
  Time summed over all CPUs for integration: real work       22.552 s, elapsed       23.666 s
  Integrating overlap matrix.
  Time summed over all CPUs for integration: real work       13.763 s, elapsed       14.329 s
  Deallocating overlap matrix.

  Updating Kohn-Sham eigenvalues, eigenvectors, occupation numbers, and Fermi level.
  Solving generalized eigenproblem
  Solving real symmetric generalised eigenvalue problem by standard ScaLAPACK.
  Transforming overlap matrix with ScaLAPACK and checking for singularities.
  : Overlap matrix is nonsingular, using Cholesky decomposition
  | Lowest eigenvalue:  0.841041E-04
  Factoring overlap matrix with Cholesky decomposition
  Using Cholesky factor for transformation
  Using 1-stage real ELPA solver
  Determining occupation numbers for Kohn-Sham eigenstates.
  | Chemical potential (Fermi level) in eV                 : -.94809716E+01
  | Error in electron count due to remaining E_F inaccuracy: 0.00000000E+00
  | Maximum occupation number of highest empty state:  0.00E+00

  Writing Kohn-Sham eigenvalues.

  State    Occupation    Eigenvalue [Ha]    Eigenvalue [eV]
      1       2.00000         -18.974612         -516.32546
      2       2.00000         -18.974358         -516.31854
      3       2.00000         -18.973915         -516.30651
      4       2.00000         -14.254294         -387.87908
      5       2.00000         -14.253068         -387.84572
      6       2.00000         -14.251477         -387.80243
      7       2.00000         -10.170823         -276.76217
      8       2.00000         -10.170717         -276.75928
      9       2.00000         -10.170607         -276.75630
     10       2.00000         -10.166264         -276.63813
     11       2.00000         -10.148290         -276.14901
     12       2.00000         -10.148037         -276.14214
     13       2.00000         -10.136002         -275.81464
     14       2.00000         -10.133845         -275.75595
     15       2.00000         -10.133655         -275.75077
     16       2.00000          -1.134047          -30.85900
     17       2.00000          -1.131903          -30.80065
     18       2.00000          -1.130525          -30.76315
     19       2.00000          -1.019056          -27.72994
     20       2.00000          -1.010446          -27.49564
     21       2.00000          -0.999996          -27.21129
     22       2.00000          -0.886570          -24.12480
     23       2.00000          -0.876403          -23.84815
     24       2.00000          -0.841268          -22.89207
     25       2.00000          -0.817500          -22.24530
     26       2.00000          -0.772747          -21.02753
     27       2.00000          -0.763360          -20.77207
     28       2.00000          -0.697245          -18.97300
     29       2.00000          -0.689650          -18.76632
     30       2.00000          -0.679111          -18.47956
     31       2.00000          -0.645328          -17.56027
     32       2.00000          -0.622179          -16.93036
     33       2.00000          -0.612717          -16.67287
     34       2.00000          -0.600501          -16.34046
     35       2.00000          -0.579386          -15.76590
     36       2.00000          -0.576442          -15.68579
     37       2.00000          -0.568322          -15.46483
     38       2.00000          -0.564682          -15.36577
     39       2.00000          -0.556833          -15.15218
     40       2.00000          -0.554187          -15.08019
     41       2.00000          -0.548580          -14.92763
     42       2.00000          -0.541641          -14.73881
     43       2.00000          -0.537233          -14.61886
     44       2.00000          -0.530649          -14.43970
     45       2.00000          -0.525009          -14.28623
     46       2.00000          -0.515591          -14.02995
     47       2.00000          -0.513274          -13.96691
     48       2.00000          -0.501411          -13.64409
     49       2.00000          -0.495643          -13.48712
     50       2.00000          -0.483725          -13.16282
     51       2.00000          -0.475133          -12.92901
     52       2.00000          -0.471268          -12.82386
     53       2.00000          -0.417866          -11.37070
     54       2.00000          -0.407567          -11.09045
     55       2.00000          -0.398300          -10.83830
     56       2.00000          -0.388068          -10.55986
     57       2.00000          -0.383945          -10.44768
     58       2.00000          -0.374726          -10.19680
     59       0.00000          -0.174776           -4.75590
     60       0.00000          -0.163534           -4.44998
     61       0.00000          -0.153521           -4.17753
     62       0.00000          -0.086934           -2.36558
     63       0.00000          -0.064949           -1.76735
     64       0.00000          -0.058410           -1.58940
     65       0.00000          -0.051565           -1.40316
     66       0.00000          -0.043661           -1.18808
     67       0.00000          -0.039083           -1.06351
     68       0.00000          -0.031029           -0.84435
     69       0.00000          -0.030396           -0.82712
     70       0.00000          -0.026656           -0.72534
     71       0.00000          -0.022883           -0.62267
     72       0.00000          -0.019398           -0.52785
     73       0.00000          -0.013136           -0.35746
     74       0.00000          -0.005384           -0.14651
     75       0.00000          -0.000680           -0.01852
     76       0.00000          -0.000236           -0.00641
     77       0.00000           0.002108            0.05737
     78       0.00000           0.004895            0.13320
     79       0.00000           0.010308            0.28050
     80       0.00000           0.018107            0.49272
     81       0.00000           0.019153            0.52119
     82       0.00000           0.026371            0.71759
     83       0.00000           0.032785            0.89211
     84       0.00000           0.038159            1.03835
     85       0.00000           0.048179            1.31102
     86       0.00000           0.052259            1.42204
     87       0.00000           0.057668            1.56922
     88       0.00000           0.060929            1.65796
     89       0.00000           0.064524            1.75579
     90       0.00000           0.068965            1.87664
     91       0.00000           0.076248            2.07480
     92       0.00000           0.080282            2.18459
     93       0.00000           0.081229            2.21035
     94       0.00000           0.091890            2.50044
     95       0.00000           0.093049            2.53200
     96       0.00000           0.099121            2.69722
     97       0.00000           0.102169            2.78017
     98       0.00000           0.106174            2.88914
     99       0.00000           0.115138            3.13305
    100       0.00000           0.122907            3.34446
    101       0.00000           0.130405            3.54849
    102       0.00000           0.134332            3.65536
    103       0.00000           0.135371            3.68363
    104       0.00000           0.142201            3.86949
    105       0.00000           0.151891            4.13316
    106       0.00000           0.157415            4.28348
    107       0.00000           0.160092            4.35633
    108       0.00000           0.161310            4.38948
    109       0.00000           0.172752            4.70082
    110       0.00000           0.175804            4.78387
    111       0.00000           0.176257            4.79619
    112       0.00000           0.180273            4.90549
    113       0.00000           0.189001            5.14298
    114       0.00000           0.191237            5.20382
    115       0.00000           0.198120            5.39113
    116       0.00000           0.201962            5.49565
    117       0.00000           0.206022            5.60615
    118       0.00000           0.206753            5.62602
    119       0.00000           0.215513            5.86442
    120       0.00000           0.218800            5.95385
    121       0.00000           0.221234            6.02008
    122       0.00000           0.226912            6.17460
    123       0.00000           0.232416            6.32435
    124       0.00000           0.238618            6.49313
    125       0.00000           0.243977            6.63895
    126       0.00000           0.248909            6.77317
    127       0.00000           0.257953            7.01925
    128       0.00000           0.266655            7.25606
    129       0.00000           0.277500            7.55117

  Highest occupied state (VBM) at    -10.19680065 eV
  | Occupation number:      2.00000000

  Lowest unoccupied state (CBM) at    -4.75589643 eV
  | Occupation number:      0.00000000

  Overall HOMO-LUMO gap:      5.44090422 eV.
  Calculating total energy contributions from superposition of free atom densities.

  Total energy components:
  | Sum of eigenvalues            :        -437.79999572 Ha      -11913.14401750 eV
  | XC energy correction          :         -98.81124310 Ha       -2688.79072892 eV
  | XC potential correction       :         127.00974383 Ha        3456.11097465 eV
  | Free-atom electrostatic energy:        -333.67077122 Ha       -9079.64365210 eV
  | Hartree energy correction     :           0.00000000 Ha           0.00000000 eV
  | vdW energy correction         :           0.00000000 Ha           0.00000000 eV
  | Entropy correction            :          -0.00000000 Ha          -0.00000000 eV
  | ---------------------------
  | Total energy                  :        -743.27226620 Ha      -20225.46742388 eV
  | Total energy, T -> 0          :        -743.27226620 Ha      -20225.46742388 eV  <-- do not rely on this value for anything but (periodic) metals
  | Electronic free energy        :        -743.27226620 Ha      -20225.46742388 eV

  Derived energy quantities:
  | Kinetic energy                :         735.14488186 Ha       20004.31004349 eV
  | Electrostatic energy          :       -1379.60590496 Ha      -37540.98673845 eV
  | Energy correction for multipole
  | error in Hartree potential    :           0.00000000 Ha           0.00000000 eV
  | Sum of eigenvalues per atom                           :        -372.28575055 eV
  | Total energy (T->0) per atom                          :        -632.04585700 eV  <-- do not rely on this value for anything but (periodic) metals
  | Electronic free energy per atom                       :        -632.04585700 eV
  Initialize hartree_potential_storage
  Max. number of atoms included in rho_multipole:           32

  End scf initialization - timings             :  max(cpu_time)    wall_clock(cpu1)
  | Time for scf. initialization               :        1.944 s           1.944 s
  | Boundary condition initialization          :        0.000 s           0.001 s
  | Integration                                :        1.212 s           1.209 s
  | Solution of K.-S. eqns.                    :        0.076 s           0.075 s
  | Grid partitioning                          :        0.304 s           0.298 s
  | Preloading free-atom quantities on grid    :        0.028 s           0.028 s
  | Free-atom superposition energy             :        0.044 s           0.040 s
  | Total energy evaluation                    :        0.000 s           0.001 s
------------------------------------------------------------

------------------------------------------------------------
          Begin self-consistency iteration #    1

  Date     :  20170309, Time     :  182043.541
------------------------------------------------------------
  Evaluating new KS density.
  Integration grid: deviation in total charge (<rho> - N_e) =   2.842171E-14
  Pulay mixing of updated and previous charge densities.

  Evaluating partitioned Hartree potential by multipole expansion.
  | Analytical far-field extrapolation by fixed multipoles:
  | Hartree multipole sum: apparent total charge =   0.754445E-04
  Summing up the Hartree potential.
  Time summed over all CPUs for potential: real work        9.592 s, elapsed        9.851 s
  | RMS charge density error from multipole expansion :   0.107455E-01

  Integrating Hamiltonian matrix: batch-based integration.
  Time summed over all CPUs for integration: real work       22.329 s, elapsed       23.645 s

  Updating Kohn-Sham eigenvalues, eigenvectors, occupation numbers, and Fermi level.
  Solving generalized eigenproblem
  Solving real symmetric generalised eigenvalue problem by standard ScaLAPACK.
  Using Cholesky factor for transformation
  Using 2-stage real ELPA solver
  K-Point:    1, Trafo times: 1-stage=     0.021 s, 2-stage=     0.019 s ==> Using 2-stage solver
  Determining occupation numbers for Kohn-Sham eigenstates.
  | Chemical potential (Fermi level) in eV                 : -.42600701E+01
  | Error in electron count due to remaining E_F inaccuracy: 0.00000000E+00
  | Maximum occupation number of highest empty state:  0.00E+00

  Writing Kohn-Sham eigenvalues.

  State    Occupation    Eigenvalue [Ha]    Eigenvalue [eV]
      1       2.00000         -18.634251         -507.06378
      2       2.00000         -18.618411         -506.63274
      3       2.00000         -18.603900         -506.23787
      4       2.00000         -14.006473         -381.13553
      5       2.00000         -13.992825         -380.76413
      6       2.00000         -13.992612         -380.75833
      7       2.00000         -10.074428         -274.13915
      8       2.00000         -10.058290         -273.70000
      9       2.00000         -10.045258         -273.34537
     10       2.00000          -9.976372         -271.47091
     11       2.00000          -9.957931         -270.96909
     12       2.00000          -9.903502         -269.48800
     13       2.00000          -9.852883         -268.11059
     14       2.00000          -9.847444         -267.96259
     15       2.00000          -9.825427         -267.36348
     16       2.00000          -0.979306          -26.64827
     17       2.00000          -0.964984          -26.25856
     18       2.00000          -0.950451          -25.86309
     19       2.00000          -0.880845          -23.96900
     20       2.00000          -0.863125          -23.48684
     21       2.00000          -0.858780          -23.36860
     22       2.00000          -0.742996          -20.21796
     23       2.00000          -0.731504          -19.90523
     24       2.00000          -0.684360          -18.62239
     25       2.00000          -0.681829          -18.55350
     26       2.00000          -0.635984          -17.30600
     27       2.00000          -0.627559          -17.07676
     28       2.00000          -0.574069          -15.62121
     29       2.00000          -0.572514          -15.57889
     30       2.00000          -0.552218          -15.02661
     31       2.00000          -0.516030          -14.04190
     32       2.00000          -0.492700          -13.40704
     33       2.00000          -0.473397          -12.88180
     34       2.00000          -0.453118          -12.32997
     35       2.00000          -0.447966          -12.18978
     36       2.00000          -0.445448          -12.12126
     37       2.00000          -0.433295          -11.79056
     38       2.00000          -0.422579          -11.49896
     39       2.00000          -0.415476          -11.30569
     40       2.00000          -0.411815          -11.20605
     41       2.00000          -0.400512          -10.89848
     42       2.00000          -0.396725          -10.79544
     43       2.00000          -0.394313          -10.72981
     44       2.00000          -0.384517          -10.46325
     45       2.00000          -0.375376          -10.21450
     46       2.00000          -0.372433          -10.13441
     47       2.00000          -0.363222           -9.88379
     48       2.00000          -0.354062           -9.63452
     49       2.00000          -0.349586           -9.51271
     50       2.00000          -0.344237           -9.36717
     51       2.00000          -0.340119           -9.25510
     52       2.00000          -0.322021           -8.76263
     53       2.00000          -0.262127           -7.13285
     54       2.00000          -0.238585           -6.49223
     55       2.00000          -0.234321           -6.37619
     56       2.00000          -0.219614           -5.97599
     57       2.00000          -0.212355           -5.77848
     58       2.00000          -0.201426           -5.48108
     59       0.00000          -0.066877           -1.81983
     60       0.00000          -0.056724           -1.54353
     61       0.00000          -0.042760           -1.16357
     62       0.00000          -0.036427           -0.99122
     63       0.00000          -0.030048           -0.81765
     64       0.00000          -0.020007           -0.54442
     65       0.00000          -0.003645           -0.09917
     66       0.00000           0.004951            0.13472
     67       0.00000           0.009129            0.24842
     68       0.00000           0.016548            0.45029
     69       0.00000           0.022639            0.61603
     70       0.00000           0.027834            0.75740
     71       0.00000           0.030948            0.84215
     72       0.00000           0.038901            1.05855
     73       0.00000           0.043020            1.17064
     74       0.00000           0.047853            1.30215
     75       0.00000           0.052860            1.43839
     76       0.00000           0.060986            1.65951
     77       0.00000           0.068563            1.86568
     78       0.00000           0.071253            1.93889
     79       0.00000           0.075255            2.04779
     80       0.00000           0.084379            2.29607
     81       0.00000           0.092893            2.52776
     82       0.00000           0.095578            2.60081
     83       0.00000           0.096008            2.61252
     84       0.00000           0.100174            2.72587
     85       0.00000           0.102700            2.79462
     86       0.00000           0.108717            2.95834
     87       0.00000           0.114896            3.12647
     88       0.00000           0.125206            3.40702
     89       0.00000           0.131971            3.59113
     90       0.00000           0.133815            3.64128
     91       0.00000           0.142317            3.87265
     92       0.00000           0.142815            3.88620
     93       0.00000           0.145409            3.95677
     94       0.00000           0.154695            4.20947
     95       0.00000           0.158924            4.32455
     96       0.00000           0.161676            4.39941
     97       0.00000           0.173208            4.71322
     98       0.00000           0.175655            4.77983
     99       0.00000           0.177669            4.83463
    100       0.00000           0.185178            5.03894
    101       0.00000           0.187159            5.09286
    102       0.00000           0.192999            5.25177
    103       0.00000           0.206033            5.60644
    104       0.00000           0.206571            5.62109
    105       0.00000           0.209542            5.70192
    106       0.00000           0.213980            5.82270
    107       0.00000           0.217277            5.91241
    108       0.00000           0.220432            5.99826
    109       0.00000           0.228980            6.23087
    110       0.00000           0.231901            6.31036
    111       0.00000           0.237345            6.45847
    112       0.00000           0.238460            6.48882
    113       0.00000           0.245392            6.67745
    114       0.00000           0.251461            6.84260
    115       0.00000           0.253273            6.89190
    116       0.00000           0.261015            7.10258
    117       0.00000           0.265984            7.23778
    118       0.00000           0.270336            7.35622
    119       0.00000           0.274797            7.47760
    120       0.00000           0.280547            7.63406
    121       0.00000           0.284952            7.75394
    122       0.00000           0.289161            7.86847
    123       0.00000           0.300125            8.16681
    124       0.00000           0.305471            8.31230
    125       0.00000           0.314203            8.54991
    126       0.00000           0.318274            8.66068
    127       0.00000           0.324189            8.82164
    128       0.00000           0.340546            9.26672
    129       0.00000           0.343883            9.35754

  Highest occupied state (VBM) at     -5.48107941 eV
  | Occupation number:      2.00000000

  Lowest unoccupied state (CBM) at    -1.81982633 eV
  | Occupation number:      0.00000000

  Overall HOMO-LUMO gap:      3.66125308 eV.

  Total energy components:
  | Sum of eigenvalues            :        -417.93581769 Ha      -11372.61223138 eV
  | XC energy correction          :        -100.73892749 Ha       -2741.24569006 eV
  | XC potential correction       :         129.50921679 Ha        3524.12509427 eV
  | Free-atom electrostatic energy:        -333.67077122 Ha       -9079.64365210 eV
  | Hartree energy correction     :         -19.86937663 Ha        -540.67324737 eV
  | vdW energy correction         :           0.00000000 Ha           0.00000000 eV
  | Entropy correction            :          -0.00000000 Ha          -0.00000000 eV
  | ---------------------------
  | Total energy                  :        -742.70567625 Ha      -20210.04972664 eV
  | Total energy, T -> 0          :        -742.70567625 Ha      -20210.04972664 eV  <-- do not rely on this value for anything but (periodic) metals
  | Electronic free energy        :        -742.70567625 Ha      -20210.04972664 eV

  Derived energy quantities:
  | Kinetic energy                :         743.99110830 Ha       20245.02811267 eV
  | Electrostatic energy          :       -1385.95785706 Ha      -37713.83214924 eV
  | Energy correction for multipole
  | error in Hartree potential    :          -0.04196970 Ha          -1.14205351 eV
  | Sum of eigenvalues per atom                           :        -355.39413223 eV
  | Total energy (T->0) per atom                          :        -631.56405396 eV  <-- do not rely on this value for anything but (periodic) metals
  | Electronic free energy per atom                       :        -631.56405396 eV

  Self-consistency convergence accuracy:
  | Change of charge density      :  0.9035E+00
  | Change of sum of eigenvalues  :  0.5405E+03 eV
  | Change of total energy        :  0.1542E+02 eV

  End self-consistency iteration #     1       :  max(cpu_time)    wall_clock(cpu1)
  | Time for this iteration                    :        1.608 s           1.608 s
  | Charge density update                      :        0.512 s           0.505 s
[...]
   ----------------------------------------------------------------
   Total forces(  20)            : -0.565004E-04  0.315194E-02 -0.210187E-02
  atom #   21
   Hellmann-Feynman              :  0.343003E-01  0.320750E-01  0.521205E-01
   Ionic forces                  :  0.000000E+00  0.000000E+00  0.000000E+00
   Multipole                     : -0.159942E-01  0.114584E-01 -0.423173E-01
   Pulay + GGA                   : -0.367160E-01 -0.468634E-01 -0.150291E-01
   Van der Waals                 :  0.194736E-01  0.226499E-02  0.557612E-02
   ----------------------------------------------------------------
   Total forces(  21)            :  0.106364E-02 -0.106500E-02  0.350109E-03
  atom #   22
   Hellmann-Feynman              : -0.562881E-01 -0.694918E-02 -0.888433E-02
   Ionic forces                  :  0.000000E+00  0.000000E+00  0.000000E+00
   Multipole                     : -0.438168E-03 -0.891588E-02  0.132948E-01
   Pulay + GGA                   :  0.603420E-01  0.146842E-01  0.164952E-02
   Van der Waals                 : -0.308434E-02  0.200583E-02 -0.680240E-02
   ----------------------------------------------------------------
   Total forces(  22)            :  0.531364E-03  0.824961E-03 -0.742404E-03
  atom #   23
   Hellmann-Feynman              :  0.404243E-01 -0.406038E+00 -0.100752E+01
   Ionic forces                  :  0.000000E+00  0.000000E+00  0.000000E+00
   Multipole                     :  0.613502E-01  0.199202E+00  0.195361E+00
   Pulay + GGA                   : -0.104051E+00  0.209455E+00  0.793717E+00
   Van der Waals                 :  0.250156E-02 -0.247906E-02  0.184601E-01
   ----------------------------------------------------------------
   Total forces(  23)            :  0.224757E-03  0.140179E-03  0.163485E-04
  atom #   24
   Hellmann-Feynman              :  0.100080E-01  0.218734E-01  0.609466E-01
   Ionic forces                  :  0.000000E+00  0.000000E+00  0.000000E+00
   Multipole                     :  0.936462E-03 -0.368907E-01 -0.662260E-02
   Pulay + GGA                   : -0.109425E-01  0.226115E-01 -0.529831E-01
   Van der Waals                 : -0.385827E-03 -0.705348E-02 -0.104314E-02
   ----------------------------------------------------------------
   Total forces(  24)            : -0.383915E-03  0.540654E-03  0.297774E-03
  atom #   25
   Hellmann-Feynman              :  0.240990E-01  0.357720E-01 -0.114429E-01
   Ionic forces                  :  0.000000E+00  0.000000E+00  0.000000E+00
   Multipole                     :  0.217723E-01  0.831305E-02 -0.901598E-02
   Pulay + GGA                   : -0.429029E-01 -0.453692E-01  0.271422E-01
   Van der Waals                 : -0.345714E-02  0.127467E-02 -0.627148E-02
   ----------------------------------------------------------------
   Total forces(  25)            : -0.488766E-03 -0.946625E-05  0.411888E-03
  atom #   26
   Hellmann-Feynman              : -0.209819E-01  0.324699E-01  0.287363E-01
   Ionic forces                  :  0.000000E+00  0.000000E+00  0.000000E+00
   Multipole                     : -0.303619E-01 -0.313038E-02 -0.155786E-01
   Pulay + GGA                   :  0.519820E-01 -0.303387E-01 -0.138210E-01
   Van der Waals                 : -0.637847E-03  0.816349E-03  0.265962E-03
   ----------------------------------------------------------------
   Total forces(  26)            :  0.298017E-06 -0.182826E-03 -0.397341E-03
  atom #   27
   Hellmann-Feynman              :  0.634264E+00  0.149441E+01 -0.852126E-01
   Ionic forces                  :  0.000000E+00  0.000000E+00  0.000000E+00
   Multipole                     :  0.432177E-01  0.107554E+00 -0.819429E-01
   Pulay + GGA                   : -0.695912E+00 -0.160809E+01  0.163837E+00
   Van der Waals                 :  0.195921E-01  0.311254E-02  0.389732E-02
   ----------------------------------------------------------------
   Total forces(  27)            :  0.116147E-02 -0.301204E-02  0.578442E-03
  atom #   28
   Hellmann-Feynman              : -0.669142E+00 -0.184402E+01  0.125798E+01
   Ionic forces                  :  0.000000E+00  0.000000E+00  0.000000E+00
   Multipole                     :  0.146593E-01  0.130627E+00 -0.851289E-01
   Pulay + GGA                   :  0.655552E+00  0.171062E+01 -0.117580E+01
   Van der Waals                 : -0.743857E-03  0.551897E-02  0.156473E-02
   ----------------------------------------------------------------
   Total forces(  28)            :  0.325683E-03  0.274950E-02 -0.137918E-02
  atom #   29
   Hellmann-Feynman              :  0.610617E-01 -0.120219E-02 -0.328501E-01
   Ionic forces                  :  0.000000E+00  0.000000E+00  0.000000E+00
   Multipole                     : -0.200178E-01 -0.326888E-01  0.232121E-01
   Pulay + GGA                   : -0.528086E-01  0.393404E-01  0.960513E-02
   Van der Waals                 :  0.112235E-01 -0.468858E-02 -0.430001E-03
   ----------------------------------------------------------------
   Total forces(  29)            : -0.541127E-03  0.760785E-03 -0.462825E-03
  atom #   30
   Hellmann-Feynman              :  0.411915E-01  0.311990E-01 -0.281078E-01
   Ionic forces                  :  0.000000E+00  0.000000E+00  0.000000E+00
   Multipole                     :  0.163038E-01 -0.383087E-01  0.161940E-01
   Pulay + GGA                   : -0.647141E-01  0.771104E-02  0.140465E-01
   Van der Waals                 :  0.724900E-02 -0.675047E-03 -0.205771E-02
   ----------------------------------------------------------------
   Total forces(  30)            :  0.302301E-04 -0.737434E-04  0.749499E-04
  atom #   31
   Hellmann-Feynman              :  0.728418E-02  0.238314E-01 -0.163212E-01
   Ionic forces                  :  0.000000E+00  0.000000E+00  0.000000E+00
   Multipole                     : -0.910006E-02 -0.858125E-02 -0.266898E-01
   Pulay + GGA                   :  0.166779E-01 -0.213593E-01  0.407874E-01
   Van der Waals                 : -0.145522E-01  0.530464E-02  0.248423E-02
   ----------------------------------------------------------------
   Total forces(  31)            :  0.309888E-03 -0.804517E-03  0.260588E-03
  atom #   32
   Hellmann-Feynman              : -0.242065E-01  0.580593E-01  0.763168E-02
   Ionic forces                  :  0.000000E+00  0.000000E+00  0.000000E+00
   Multipole                     :  0.892246E-02  0.249755E-02  0.273647E-01
   Pulay + GGA                   :  0.209513E-01 -0.592300E-01 -0.384932E-01
   Van der Waals                 : -0.594862E-02 -0.224380E-02  0.331083E-02
   ----------------------------------------------------------------
   Total forces(  32)            : -0.281367E-03 -0.916929E-03 -0.186065E-03

  Timings for VdW correction (Tkatchenko-Scheffler 2009 or later):
  | CPU time:        0.128 s, Wall clock time:        0.128 s.
  Removing unitary transformations (pure translations, rotations) from forces on atoms.
  Atomic forces before filtering:
  | Net force on center of mass :   0.494931E-03 -0.559286E-03 -0.473661E-03 eV/A
  | Net torque on center of mass:  -0.153453E-02  0.593700E-03 -0.197277E-02 eV
  Atomic forces after filtering:
  | Net force on center of mass :   0.871124E-19  0.000000E+00 -0.206892E-17 eV/A
  | Net torque on center of mass:   0.368783E-18 -0.175172E-17 -0.101415E-17 eV

  Energy and forces in a compact form:
  | Total energy uncorrected      :         -0.202083690535610E+05 eV
  | Total energy corrected        :         -0.202083690535610E+05 eV  <-- do not rely on this value for anything but (periodic) metals
  | Electronic free energy        :         -0.202083690535610E+05 eV
  Total atomic forces (unitary forces cleaned) [eV/Ang]:
  |   1          0.254994042503300E-03         -0.139061231073443E-05         -0.500115502868521E-03
  |   2         -0.160120011508411E-04         -0.196453535520178E-02         -0.229891290479165E-02
  |   3          0.127387239223839E-03          0.173487961779038E-02          0.194594247985426E-02
  |   4         -0.615275618912211E-03          0.970921124477008E-03          0.433587102796839E-03
  |   5         -0.926307276119167E-03         -0.805006479995627E-03         -0.546732576114915E-03
  |   6          0.384391497822974E-03         -0.724975550621860E-03          0.779317338975424E-03
  |   7         -0.124272333735989E-02          0.238035078665201E-02          0.312727755542441E-02
  |   8          0.137175197212941E-02          0.605927507613946E-03         -0.211752896876903E-02
  |   9          0.133962038380798E-02          0.159445233628619E-02         -0.169359014559622E-02
  |  10         -0.937556120168090E-03         -0.147339103835034E-02          0.272588882616198E-02
  |  11         -0.250063992357436E-03         -0.235327464058071E-02         -0.937834489853046E-03
  |  12         -0.101626082201469E-03         -0.259146710257829E-03          0.900322474291217E-03
  |  13          0.493563283744893E-04         -0.198664304510035E-03          0.338577800724542E-03
  |  14          0.313405668921914E-04          0.601580545873209E-03         -0.498243060736883E-03
  |  15         -0.339899247224114E-03         -0.152343745583057E-03         -0.399837781790563E-03
  |  16          0.138105779348425E-03         -0.426866580728519E-04          0.287310630473369E-03
  |  17         -0.127270631161315E-02          0.248116615657724E-02         -0.357237528146223E-02
  |  18          0.293585920878246E-03         -0.176895718849080E-02          0.277425397346771E-02
  |  19         -0.588157957101212E-04         -0.288021788539634E-02          0.245716735635087E-02
  |  20         -0.867972420423120E-04          0.317324004227106E-02         -0.206362365848673E-02
  |  21          0.106646376236859E-02         -0.105527996384476E-02          0.336136391698172E-03
  |  22          0.512664528221390E-03          0.859998223414684E-03         -0.723279558963071E-03
  |  23          0.218232404232391E-03          0.182257034765624E-03          0.157451620139907E-04
  |  24         -0.396500145527999E-03          0.592073860974441E-03          0.306386799149413E-03
  |  25         -0.489209180773903E-03          0.244708551239158E-04          0.401978650587016E-03
  |  26         -0.157424951997911E-05         -0.129893071244495E-03         -0.405867692135424E-03
  |  27          0.114412991719093E-02         -0.301760164948058E-02          0.597320541692471E-03
  |  28          0.319327064503024E-03          0.273262790757013E-02         -0.137727777578380E-02
  |  29         -0.564651721750413E-03          0.748961095989504E-03         -0.433805074099242E-03
  |  30          0.235846611462278E-04         -0.103496290055475E-03          0.779229647951411E-04
  |  31          0.305667307583366E-03         -0.828478173679215E-03          0.259424077905524E-03
  |  32         -0.280885053795686E-03         -0.923567777702853E-03         -0.195535654911043E-03

  ------------------------------------ 
  Start decomposition of the XC Energy 
  ------------------------------------ 
  Hartree-Fock part   :          0.000000000 Ha              0.000000000 eV
  ------------------------------------ 
  X Energy            :        -96.977445307 Ha          -2638.890552068 eV
  C Energy GGA        :         -3.867293086 Ha           -105.234399128 eV
  Total XC Energy     :       -100.844738392 Ha          -2744.124951195 eV
  LDA X and C from self-consistent density 
  X Energy LDA        :        -87.991783720 Ha          -2394.378259638 eV
  C Energy LDA        :         -7.531358549 Ha           -204.938693289 eV
  ------------------------------------ 
  End decomposition of the XC Energy 
  ------------------------------------ 
   
  ESP charge fitting starts.
  | Calculation :  00000001  of  00000001
  | Full density
  Computing multipole expansion for total density.
  Generating points for esp charges.
  Partitioning the integration grid into batches with parallel hashing+maxmin method.
  | Number of batches:     3863
  | Maximal batch size:     199
  | Minimal batch size:      53
  | Average batch size:     126.011
  | Standard deviation of batch sizes:      18.604

  Integration load balanced across    32 MPI tasks.
  Work distribution over tasks is as follows:
  Initializing partition tables, free-atom densities, potentials, etc. across the integration grid (initialize_grid_storage).
  | Original list of interatomic distances with          32 x         32 entries is created.
  | Net number of integration points:   486782
  | of which are non-zero points    :   486782
  Summing up potential from multipole expanded  density.
  Summing up the Hartree potential.
  Time summed over all CPUs for potential: real work        6.362 s, elapsed        6.687 s
  Fitting esp charges to potential.
  |
  | ESP charges fitted to the electrostatic potential :
  |
  | Atom         1: C, ESP charge:      0.93578216
  |
  | Atom         2: C, ESP charge:     -0.65135350
  |
  | Atom         3: O, ESP charge:      0.52631045
  |
  | Atom         4: H, ESP charge:     -0.24697731
  |
  | Atom         5: H, ESP charge:     -0.26267183
  |
  | Atom         6: H, ESP charge:     -0.26629565
  |
  | Atom         7: N, ESP charge:      0.34885497
  |
  | Atom         8: C, ESP charge:     -0.52290764
  |
  | Atom         9: C, ESP charge:     -0.29354197
  |
  | Atom        10: O, ESP charge:      0.48098866
  |
  | Atom        11: H, ESP charge:     -0.16768473
  |
  | Atom        12: H, ESP charge:      0.04513897
  |
  | Atom        13: C, ESP charge:      0.44501400
  |
  | Atom        14: H, ESP charge:     -0.13319365
  |
  | Atom        15: H, ESP charge:     -0.12552422
  |
  | Atom        16: H, ESP charge:     -0.09534975
  |
  | Atom        17: N, ESP charge:      0.56558312
  |
  | Atom        18: C, ESP charge:     -0.79693213
  |
  | Atom        19: C, ESP charge:     -0.01375838
  |
  | Atom        20: O, ESP charge:      0.44990598
  |
  | Atom        21: H, ESP charge:     -0.30171106
  |
  | Atom        22: H, ESP charge:      0.12482434
  |
  | Atom        23: C, ESP charge:      0.67449471
  |
  | Atom        24: H, ESP charge:     -0.20407713
  |
  | Atom        25: H, ESP charge:     -0.16544950
  |
  | Atom        26: H, ESP charge:     -0.15142594
  |
  | Atom        27: N, ESP charge:      0.11410261
  |
  | Atom        28: C, ESP charge:      0.34361686
  |
  | Atom        29: H, ESP charge:     -0.26633700
  |
  | Atom        30: H, ESP charge:     -0.14546679
  |
  | Atom        31: H, ESP charge:     -0.14208510
  |
  | Atom        32: H, ESP charge:     -0.10187352

  RRMS:       0.00264681

  Done.

------------------------------------------------------------------------------
  Final output of selected total energy values:

  The following output summarizes some interesting total energy values
  at the end of a run (AFTER all relaxation, molecular dynamics, etc.).

  | Total energy of the DFT / Hartree-Fock s.c.f. calculation      :         -20208.369053561 eV
  | Final zero-broadening corrected energy (caution - metals only) :         -20208.369053561 eV
  | For reference only, the value of 1 Hartree used in FHI-aims is :             27.211384500 eV

  Before relying on these values, please be sure to understand exactly which
  total energy value is referred to by a given number. Different objects may
  all carry the same name 'total energy'. Definitions:

  Total energy of the DFT / Hartree-Fock s.c.f. calculation:
  | Note that this energy does not include ANY quantities calculated after the
  | s.c.f. cycle, in particular not ANY RPA, MP2, etc. many-body perturbation terms.

  Final zero-broadening corrected energy:
  | For metallic systems only, a broadening of the occupation numbers at the Fermi
  | level can be extrapolated back to zero broadening by an electron-gas inspired
  | formula. For all systems that are not real metals, this value can be
  | meaningless and should be avoided.

------------------------------------------------------------------------------
  Methods described in the following list of references were used in this FHI-aims run.
  If you publish the results, please make sure to cite these reference if they apply.
  FHI-aims is an academic code, and for our developers (often, Ph.D. students
  and postdocs), scientific credit in the community is essential.
  Thank you for helping us!

  For any use of FHI-aims, please cite:

    Volker Blum, Ralf Gehrke, Felix Hanke, Paula Havu, Ville Havu,
    Xinguo Ren, Karsten Reuter, and Matthias Scheffler
    'Ab initio molecular simulations with numeric atom-centered orbitals'
    Computer Physics Communications 180, 2175-2196 (2009)
    http://dx.doi.org/10.1016/j.cpc.2009.06.022


  The scalable eigensolver library ELPA was used in your run.
  ELPA is essential especially for large systems on hundreds or thousands of CPUs.
  For ELPA, please cite:

    Andreas Marek, Volker Blum, Rainer Johanni, Ville Havu, Bruno Lang,
    Thomas Auckenthaler, Alexander Heinecke, Hans-Joachim Bungartz, and Hermann Lederer,
    'The ELPA Library - Scalable Parallel Eigenvalue Solutions
    for Electronic Structure Theory and Computational Science'
    The Journal of Physics: Condensed Matter 26, 213201 (2014).
    http://dx.doi.org/10.1088/0953-8984/26/21/213201


  For ELPA's efficient two-stage tridiagonalization used in your run, please cite:

    T. Auckenthaler, V. Blum, H.-J. Bungartz, T. Huckle, R. Johanni, L. Kraemer,
    B. Lang, H. Lederer, and P. R. Willems,
    'Parallel solution of partial symmetric eigenvalue problems'
    'from  electronic structure calculations'
    Parallel Computing 37, 783-794 (2011).
    http://dx.doi.org/10.1016/j.parco.2011.05.002


  For the real-space grid partitioning and parallelization used in this calculation, please cite:

    Ville Havu, Volker Blum, Paula Havu, and Matthias Scheffler,
    'Efficient O(N) integration for all-electron electronic structure calculation'
    'using numerically tabulated basis functions'
    Journal of Computational Physics 228, 8367-8379 (2009).
    http://dx.doi.org/10.1016/j.jcp.2009.08.008

  Of course, there are many other important community references, e.g., those cited in the
  above references. Our list is limited to references that describe implementations in the
  FHI-aims code. The reason is purely practical (length of this list) - please credit others as well.

------------------------------------------------------------
          Leaving FHI-aims.
          Date     :  20170309, Time     :  182112.369

          Computational steps:
          | Number of self-consistency cycles          :           14

          Detailed time accounting                     :  max(cpu_time)    wall_clock(cpu1)
          | Total time                                 :       31.654 s          31.837 s
          | Preparation time                           :        0.232 s           0.233 s
          | Grid partitioning                          :        0.304 s           0.298 s
          | Preloading free-atom quantities on grid    :        0.028 s           0.028 s
          | Free-atom superposition energy             :        0.044 s           0.040 s
          | Total time for integrations                :       11.777 s          11.764 s
          | Total time for solution of K.-S. equations :        0.532 s           0.501 s
          | Total time for density & force components  :       10.101 s          10.071 s
          | Total time for mixing                      :        0.124 s           0.108 s
          | Total time for Hartree multipole update    :        0.080 s           0.058 s
          | Total time for Hartree multipole sum       :        6.360 s           6.322 s
          | Total time for total energy evaluation     :        0.020 s           0.024 s
          | Total time for vdW correction              :        0.128 s           0.128 s

          Have a nice day.
------------------------------------------------------------
