  MPI-parallelism will be employed.
------------------------------------------------------------
          Invoking FHI-aims ...
          Version 150427
          Git rev.: 9dd23e0 BL: Update Version stamp
          Compiled on 2015/11/03 at 22:05:20 on host eos03.

          When using FHI-aims, please cite the following reference:

          Volker Blum, Ralf Gehrke, Felix Hanke, Paula Havu,
          Ville Havu, Xinguo Ren, Karsten Reuter, and Matthias Scheffler,
          'Ab Initio Molecular Simulations with Numeric Atom-Centered Orbitals: FHI-aims',
          Computer Physics Communications 180, 2175-2196 (2009)

          For any questions about FHI-aims, please visit the aimsclub website
          with its forums and wiki. Contributions to both the forums and the
          wiki are warmly encouraged - they are for you, and everyone is welcome there.

------------------------------------------------------------

  Date     :  20170309, Time     :  184355.504
  Time zero on CPU 1             :   0.400024000000000E+00  s.
  Internal wall clock time zero  :           258317035.504  s.

  Using       32 parallel tasks.
  Task        0 on host eos366 reporting.
  Task        1 on host eos366 reporting.
  Task        2 on host eos366 reporting.
  Task        3 on host eos366 reporting.
  Task        4 on host eos366 reporting.
  Task        5 on host eos366 reporting.
  Task        6 on host eos366 reporting.
  Task        7 on host eos366 reporting.
  Task        8 on host eos366 reporting.
  Task        9 on host eos366 reporting.
  Task       10 on host eos366 reporting.
  Task       11 on host eos366 reporting.
  Task       12 on host eos366 reporting.
  Task       13 on host eos366 reporting.
  Task       14 on host eos366 reporting.
  Task       15 on host eos366 reporting.
  Task       16 on host eos366 reporting.
  Task       17 on host eos366 reporting.
  Task       18 on host eos366 reporting.
  Task       19 on host eos366 reporting.
  Task       20 on host eos366 reporting.
  Task       21 on host eos366 reporting.
  Task       22 on host eos366 reporting.
  Task       23 on host eos366 reporting.
  Task       24 on host eos366 reporting.
  Task       25 on host eos366 reporting.
  Task       26 on host eos366 reporting.
  Task       27 on host eos366 reporting.
  Task       28 on host eos366 reporting.
  Task       29 on host eos366 reporting.
  Task       30 on host eos366 reporting.
  Task       31 on host eos366 reporting.

  Performing system and environment tests:
  | Environment variable OMP_NUM_THREADS correctly set to 1.
  | Stacksize not measured: no C compiler
  | Checking for scalapack...
  | Testing pdtran()...
  | All pdtran() tests passed.

  Obtaining array dimensions for all initial allocations:
  
  -----------------------------------------------------------------------
  Parsing control.in (first pass over file, find array dimensions only).
  The contents of control.in will be repeated verbatim below
  unless switched off by setting 'verbatim_writeout .false.' .
  in the first line of control.in .
  -----------------------------------------------------------------------
  
  #########################################################################################
  #
  # Input for System
  #
  #########################################################################################
  #
  #
  #  Physical model
  #
    xc                 pbe
    vdw_correction_hirshfeld
    spin               none
    charge             0.
  #
  #  SCF convergence
  #
    occupation_type    gaussian 0.05
    mixer              pulay
      n_max_pulay        10
      charge_mix_param   0.5
    sc_accuracy_rho    1E-4
    sc_accuracy_eev    1E-2
    sc_accuracy_etot   1E-5
    sc_accuracy_forces 1E-4
    sc_iter_limit      1000
  #
  #  ESP charge
  #
    output esp
    esp equal_grid_n 80 80 80
  #
  #
  ################################################################################
  #
  #  FHI-aims code project
  # Volker Blum, Fritz Haber Institute Berlin, 2009
  #
  #  Suggested "tight" defaults for H atom (to be pasted into control.in file)
  #
  ################################################################################
    species        H
  #     global species definitions
      nucleus             1
      mass                1.00794
  #
      l_hartree           6
  #
      cut_pot             4.0  2.0  1.0
      basis_dep_cutoff    1e-4
  #
      radial_base         24 7.0
      radial_multiplier   2
      angular_grids       specified
        division   0.1930   50
        division   0.3175  110
        division   0.4293  194
        division   0.5066  302
        division   0.5626  434
  #      division   0.5922  590
  #      division   0.6227  974
  #      division   0.6868 1202
  #      outer_grid  770
        outer_grid  434
  ################################################################################
  #
  #  Definition of "minimal" basis
  #
  ################################################################################
  #     valence basis states
      valence      1  s   1.
  #     ion occupancy
      ion_occ      1  s   0.5
  ################################################################################
  #
  #  Suggested additional basis functions. For production calculations,
  #  uncomment them one after another (the most important basis functions are
  #  listed first).
  #
  #  Basis constructed for dimers: 0.5 A, 0.7 A, 1.0 A, 1.5 A, 2.5 A
  #
  ################################################################################
  #  "First tier" - improvements: -1014.90 meV to -62.69 meV
       hydro 2 s 2.1
       hydro 2 p 3.5
  #  "Second tier" - improvements: -12.89 meV to -1.83 meV
       hydro 1 s 0.85
       hydro 2 p 3.7
       hydro 2 s 1.2
       hydro 3 d 7
  #  "Third tier" - improvements: -0.25 meV to -0.12 meV
  #     hydro 4 f 11.2
  #     hydro 3 p 4.8
  #     hydro 4 d 9
  #     hydro 3 s 3.2
  ################################################################################
  #
  # For methods that use the localized form of the "resolution of identity" for
  # the two-electron Coulomb operator (RI_method LVL), particularly Hartree-Fock and
  # hybrid density functional calculations, the highest accuracy can be obtained by
  # uncommenting the line beginning with "for_aux"  below, thus adding an extra g radial
  # function to the construction of the product basis set for the expansion.
  # See Ref. New J. Phys. 17, 093020 (2015) for more information, particularly Figs. 1 and 6.
  #
  ################################################################################
  #
  # for_aux hydro 5 g 6.0
  ################################################################################
  #
  #  FHI-aims code project
  # Volker Blum, Fritz Haber Institute Berlin, 2009
  #
  #  Suggested "tight" defaults for C atom (to be pasted into control.in file)
  #
  ################################################################################
    species        C
  #     global species definitions
      nucleus             6
      mass                12.0107
  #
      l_hartree           6
  #
      cut_pot             4.0  2.0  1.0
      basis_dep_cutoff    1e-4
  #
      radial_base         34 7.0
      radial_multiplier   2
      angular_grids specified
        division   0.2187   50
        division   0.4416  110
        division   0.6335  194
        division   0.7727  302
        division   0.8772  434
  #      division   0.9334  590
  #      division   0.9924  770
  #      division   1.0230  974
  #      division   1.5020 1202
  #     outer_grid  974
        outer_grid  434
  ################################################################################
  #
  #  Definition of "minimal" basis
  #
  ################################################################################
  #     valence basis states
      valence      2  s   2.
      valence      2  p   2.
  #     ion occupancy
      ion_occ      2  s   1.
      ion_occ      2  p   1.
  ################################################################################
  #
  #  Suggested additional basis functions. For production calculations,
  #  uncomment them one after another (the most important basis functions are
  #  listed first).
  #
  #  Constructed for dimers: 1.0 A, 1.25 A, 1.5 A, 2.0 A, 3.0 A
  #
  ################################################################################
  #  "First tier" - improvements: -1214.57 meV to -155.61 meV
       hydro 2 p 1.7
       hydro 3 d 6
       hydro 2 s 4.9
  #  "Second tier" - improvements: -67.75 meV to -5.23 meV
       hydro 4 f 9.8
       hydro 3 p 5.2
       hydro 3 s 4.3
       hydro 5 g 14.4
       hydro 3 d 6.2
  #  "Third tier" - improvements: -2.43 meV to -0.60 meV
  #     hydro 2 p 5.6
  #     hydro 2 s 1.4
  #     hydro 3 d 4.9
  #     hydro 4 f 11.2
  #  "Fourth tier" - improvements: -0.39 meV to -0.18 meV
  #     hydro 2 p 2.1
  #     hydro 5 g 16.4
  #     hydro 4 d 13.2
  #     hydro 3 s 13.6
  #     hydro 4 f 17.6
  #  Further basis functions - improvements: -0.08 meV and below
  #     hydro 3 s 2
  #     hydro 3 p 6
  #     hydro 4 d 20
  ################################################################################
  #
  # For methods that use the localized form of the "resolution of identity" for
  # the two-electron Coulomb operator (RI_method LVL), particularly Hartree-Fock and
  # hybrid density functional calculations, the highest accuracy can be obtained by
  # uncommenting the line beginning with "for_aux"  below, thus adding an extra g radial
  # function to the construction of the product basis set for the expansion.
  # See Ref. New J. Phys. 17, 093020 (2015) for more information, particularly Figs. 1 and 6.
  #
  ################################################################################
  #
  # for_aux hydro 5 g 6.0
  ################################################################################
  #
  #  FHI-aims code project
  # Volker Blum, Fritz Haber Institute Berlin, 2009
  #
  #  Suggested "tight" defaults for N atom (to be pasted into control.in file)
  #
  ################################################################################
    species        N
  #     global species definitions
      nucleus             7
      mass                14.0067
  #
      l_hartree           6
  #
      cut_pot             4.0  2.0  1.0
      basis_dep_cutoff    1e-4
  #
      radial_base         35 7.0
      radial_multiplier   2
      angular_grids       specified
        division   0.1841   50
        division   0.3514  110
        division   0.5126  194
        division   0.6292  302
        division   0.6939  434
  #      division   0.7396  590
  #      division   0.7632  770
  #      division   0.8122  974
  #      division   1.1604 1202
  #      outer_grid  974
        outer_grid  434
  ################################################################################
  #
  #  Definition of "minimal" basis
  #
  ################################################################################
  #     valence basis states
      valence      2  s   2.
      valence      2  p   3.
  #     ion occupancy
      ion_occ      2  s   1.
      ion_occ      2  p   2.
  ################################################################################
  #
  #  Suggested additional basis functions. For production calculations,
  #  uncomment them one after another (the most important basis functions are
  #  listed first).
  #
  #  Constructed for dimers: 1.0 A, 1.1 A, 1.5 A, 2.0 A, 3.0 A
  #
  ################################################################################
  #  "First tier" - improvements: -1193.42 meV to -220.60 meV
       hydro 2 p 1.8
       hydro 3 d 6.8
       hydro 3 s 5.8
  #  "Second tier" - improvements: -80.21 meV to -6.86 meV
       hydro 4 f 10.8
       hydro 3 p 5.8
       hydro 1 s 0.8
       hydro 5 g 16
       hydro 3 d 4.9
  #  "Third tier" - improvements: -4.29 meV to -0.53 meV
  #     hydro 3 s 16
  #     ionic 2 p auto
  #     hydro 3 d 6.6
  #     hydro 4 f 11.6
  #  "Fourth tier" - improvements: -0.75 meV to -0.25 meV
  #     hydro 2 p 4.5
  #     hydro 2 s 2.4
  #     hydro 5 g 14.4
  #     hydro 4 d 14.4
  #     hydro 4 f 16.8
  # Further basis functions - -0.21 meV and below
  #     hydro 3 p 14.8
  #     hydro 3 s 4.4
  #     hydro 3 d 19.6
  #     hydro 5 g 12.8
  ################################################################################
  #
  # For methods that use the localized form of the "resolution of identity" for
  # the two-electron Coulomb operator (RI_method LVL), particularly Hartree-Fock and
  # hybrid density functional calculations, the highest accuracy can be obtained by
  # uncommenting the line beginning with "for_aux"  below, thus adding an extra g radial
  # function to the construction of the product basis set for the expansion.
  # See Ref. New J. Phys. 17, 093020 (2015) for more information, particularly Figs. 1 and 6.
  #
  ################################################################################
  #
  # for_aux hydro 5 g 6.0
  ################################################################################
  #
  #  FHI-aims code project
  # Volker Blum, Fritz Haber Institute Berlin, 2009
  #
  #  Suggested "tight" defaults for O atom (to be pasted into control.in file)
  #
  ################################################################################
    species        O
  #     global species definitions
      nucleus             8
      mass                15.9994
  #
      l_hartree           6
  #
      cut_pot             4.0  2.0  1.0
      basis_dep_cutoff    1e-4
  #
      radial_base         36 7.0
      radial_multiplier   2
       angular_grids specified
        division   0.1817   50
        division   0.3417  110
        division   0.4949  194
        division   0.6251  302
        division   0.8014  434
  #      division   0.8507  590
  #      division   0.8762  770
  #      division   0.9023  974
  #      division   1.2339 1202
  #      outer_grid 974
        outer_grid  434
  ################################################################################
  #
  #  Definition of "minimal" basis
  #
  ################################################################################
  #     valence basis states
      valence      2  s   2.
      valence      2  p   4.
  #     ion occupancy
      ion_occ      2  s   1.
      ion_occ      2  p   3.
  ################################################################################
  #
  #  Suggested additional basis functions. For production calculations,
  #  uncomment them one after another (the most important basis functions are
  #  listed first).
  #
  #  Constructed for dimers: 1.0 A, 1.208 A, 1.5 A, 2.0 A, 3.0 A
  #
  ################################################################################
  #  "First tier" - improvements: -699.05 meV to -159.38 meV
       hydro 2 p 1.8
       hydro 3 d 7.6
       hydro 3 s 6.4
  #  "Second tier" - improvements: -49.91 meV to -5.39 meV
       hydro 4 f 11.6
       hydro 3 p 6.2
       hydro 3 d 5.6
       hydro 5 g 17.6
       hydro 1 s 0.75
  #  "Third tier" - improvements: -2.83 meV to -0.50 meV
  #     ionic 2 p auto
  #     hydro 4 f 10.8
  #     hydro 4 d 4.7
  #     hydro 2 s 6.8
  #  "Fourth tier" - improvements: -0.40 meV to -0.12 meV
  #     hydro 3 p 5
  #     hydro 3 s 3.3
  #     hydro 5 g 15.6
  #     hydro 4 f 17.6
  #     hydro 4 d 14
  # Further basis functions - -0.08 meV and below
  #     hydro 3 s 2.1
  #     hydro 4 d 11.6
  #     hydro 3 p 16
  #     hydro 2 s 17.2
  ################################################################################
  #
  # For methods that use the localized form of the "resolution of identity" for
  # the two-electron Coulomb operator (RI_method LVL), particularly Hartree-Fock and
  # hybrid density functional calculations, the highest accuracy can be obtained by
  # uncommenting the line beginning with "for_aux"  below, thus adding an extra g radial
  # function to the construction of the product basis set for the expansion.
  # See Ref. New J. Phys. 17, 093020 (2015) for more information, particularly Figs. 1 and 6.
  #
  ################################################################################
  #
  # for_aux hydro 5 g 6.0
  
  -----------------------------------------------------------------------
  Completed first pass over input file control.in .
  -----------------------------------------------------------------------
  
  
  -----------------------------------------------------------------------
  Parsing geometry.in (first pass over file, find array dimensions only).
  The contents of geometry.in will be repeated verbatim below
  unless switched off by setting 'verbatim_writeout .false.' .
  in the first line of geometry.in .
  -----------------------------------------------------------------------
  
  #
  # This is the geometry file that corresponds to the current relaxation step.
  # If you do not want this file to be written, set the "write_restart_geometry" flag to .false.
  #
  atom      -1.82217304     -0.17146052     -0.35336681 C
  atom      -1.35031264     -0.15896986      1.08666617 C
  atom      -0.53984102     -0.99018399      1.51087557 O
  atom      -0.94638162     -0.22271432     -1.01091640 H
  atom      -2.42890908      0.70046081     -0.62632070 H
  atom      -2.41400779     -1.08094570     -0.52162224 H
  atom      -1.87277986      0.82928664      1.86743001 N
  atom      -1.61383664      0.93991432      3.30152893 C
  atom      -2.82984431      0.34814583      4.05735897 C
  atom      -3.88604758      0.98020393      4.10232402 O
  atom      -2.62391598      1.40021302      1.49348187 H
  atom      -0.70294128      0.35785394      3.47887421 H
  atom      -1.39281538      2.39380421      3.70991774 C
  atom      -1.14614156      2.45522030      4.77792536 H
  atom      -2.30444719      2.98285771      3.54744501 H
  atom      -0.56681053      2.82914543      3.13385430 H
  atom      -2.68707732     -0.87646112      4.62691015 N
  atom      -1.55701187     -1.79030467      4.54841981 C
  atom      -2.14115243     -3.21284344      4.54283791 C
  atom      -3.20768993     -3.46062257      5.10885943 O
  atom      -3.52250991     -1.27807299      5.05751486 H
  atom      -1.01865420     -1.61418576      3.60844731 H
  atom      -0.59496526     -1.63491783      5.74031631 C
  atom      -0.18739691     -0.61569071      5.76528611 H
  atom       0.24685988     -2.33676472      5.67070542 H
  atom      -1.12527968     -1.81839277      6.68374033 H
  atom      -1.41096145     -4.17829307      3.92253093 N
  atom      -0.16226383     -4.03503704      3.18520039 C
  atom      -1.80707114     -5.10804605      4.02075026 H
  atom       0.71207986     -3.96413142      3.85105076 H
  atom      -0.18211999     -3.15534648      2.53009581 H
  atom      -0.03291134     -4.91954810      2.55178522 H
  
  -----------------------------------------------------------------------
  Completed first pass over input file geometry.in .
  -----------------------------------------------------------------------
  

  Basic array size parameters:
  | Number of species                 :        4
  | Number of atoms                   :       32
  | Max. basis fn. angular momentum   :        4
  | Max. atomic/ionic basis occupied n:        2
  | Max. number of basis fn. types    :        2
  | Max. radial fns per species/type  :        8
  | Max. logarithmic grid size        :     1301
  | Max. radial integration grid size :       73
  | Max. angular integration grid size:      434
  | Max. angular grid division number :        8
  | Radial grid for Hartree potential :     1301
  | Number of spin channels           :        1

------------------------------------------------------------
          Reading file control.in.
------------------------------------------------------------
  XC: Using PBE gradient-corrected functionals.
  Spin treatment: No spin polarisation.
  Charge =   0.000000E+00: Neutral system requested explicitly.
  Occupation type: Gaussian broadening, width =   0.500000E-01 eV.
  Using pulay charge density mixing.
  Pulay mixing - number of memorized iterations:   10
  Charge density mixing - mixing parameter:     0.5000
  Convergence accuracy of self-consistent charge density:  0.1000E-03
  Convergence accuracy of sum of eigenvalues:  0.1000E-01
  Convergence accuracy of total energy:  0.1000E-04
  Convergence accuracy of forces:  0.1000E-03
  Maximum number of s.-c. iterations  :  1000
  Fitting ESP-charges to Potential. 
  | Esp charge output options: 
  | ESP Grid method: 3, cubic grid
  | Number of points in x, ,y, z:  0080 0080 0080
  |
 
  Reading configuration options for species H                   .
  | Found nuclear charge :   1.0000
  | Found atomic mass :    1.00794000000000      amu
  | Found l_max for Hartree potential  :   6
  | Found cutoff potl. onset [A], width [A], scale factor :    4.00000    2.00000    1.00000
  | Threshold for basis-dependent cutoff potential is   0.100000E-03
  | Found data for basic radial integration grid :    24 points, outermost radius =    7.000 A
  | Found multiplier for basic radial grid :   2
  | Found angular grid specification: user-specified.
  | Specified grid contains     6 separate shells.
  | Check grid settings after all constraints further below.
  | Found free-atom valence shell :  1 s   1.000
  | No ionic wave fns used. Skipping ion_occ.
  | Found hydrogenic basis function :  2 s   2.100
  | Found hydrogenic basis function :  2 p   3.500
  | Found hydrogenic basis function :  1 s   0.850
  | Found hydrogenic basis function :  2 p   3.700
  | Found hydrogenic basis function :  2 s   1.200
  | Found hydrogenic basis function :  3 d   7.000
  Species H                   : Missing cutoff potential type.
  Defaulting to exp(1/x)/(1-x)^2 type cutoff potential.
  Species H : No 'logarithmic' tag. Using default grid for free atom:
  | Default logarithmic grid data [bohr] : 0.1000E-03 0.1000E+03 0.1012E+01
  Species H : On-site basis accuracy parameter (for Gram-Schmidt orthonormalisation) not specified.
  Using default value basis_acc =  0.1000000E-03.
  Species H                   : Using default innermost maximum threshold i_radial=  2 for radial functions.
  Species H                   : Default cutoff onset for free atom density etc. : 0.40000000E+01 AA.
  Species H                   : Basic radial grid will be enhanced according to radial_multiplier =   2, to contain    49 grid points.
 
  Reading configuration options for species C                   .
  | Found nuclear charge :   6.0000
  | Found atomic mass :    12.0107000000000      amu
  | Found l_max for Hartree potential  :   6
  | Found cutoff potl. onset [A], width [A], scale factor :    4.00000    2.00000    1.00000
  | Threshold for basis-dependent cutoff potential is   0.100000E-03
  | Found data for basic radial integration grid :    34 points, outermost radius =    7.000 A
  | Found multiplier for basic radial grid :   2
  | Found angular grid specification: user-specified.
  | Specified grid contains     6 separate shells.
  | Check grid settings after all constraints further below.
  | Found free-atom valence shell :  2 s   2.000
  | Found free-atom valence shell :  2 p   2.000
  | No ionic wave fns used. Skipping ion_occ.
  | No ionic wave fns used. Skipping ion_occ.
  | Found hydrogenic basis function :  2 p   1.700
  | Found hydrogenic basis function :  3 d   6.000
  | Found hydrogenic basis function :  2 s   4.900
  | Found hydrogenic basis function :  4 f   9.800
  | Found hydrogenic basis function :  3 p   5.200
  | Found hydrogenic basis function :  3 s   4.300
  | Found hydrogenic basis function :  5 g  14.400
  | Found hydrogenic basis function :  3 d   6.200
  Species C                   : Missing cutoff potential type.
  Defaulting to exp(1/x)/(1-x)^2 type cutoff potential.
  Species C : No 'logarithmic' tag. Using default grid for free atom:
  | Default logarithmic grid data [bohr] : 0.1000E-03 0.1000E+03 0.1012E+01
  Species C : On-site basis accuracy parameter (for Gram-Schmidt orthonormalisation) not specified.
  Using default value basis_acc =  0.1000000E-03.
  Species C                   : Using default innermost maximum threshold i_radial=  2 for radial functions.
  Species C                   : Default cutoff onset for free atom density etc. : 0.40000000E+01 AA.
  Species C                   : Basic radial grid will be enhanced according to radial_multiplier =   2, to contain    69 grid points.
 
  Reading configuration options for species N                   .
  | Found nuclear charge :   7.0000
  | Found atomic mass :    14.0067000000000      amu
  | Found l_max for Hartree potential  :   6
  | Found cutoff potl. onset [A], width [A], scale factor :    4.00000    2.00000    1.00000
  | Threshold for basis-dependent cutoff potential is   0.100000E-03
  | Found data for basic radial integration grid :    35 points, outermost radius =    7.000 A
  | Found multiplier for basic radial grid :   2
  | Found angular grid specification: user-specified.
  | Specified grid contains     6 separate shells.
  | Check grid settings after all constraints further below.
  | Found free-atom valence shell :  2 s   2.000
  | Found free-atom valence shell :  2 p   3.000
  | No ionic wave fns used. Skipping ion_occ.
  | No ionic wave fns used. Skipping ion_occ.
  | Found hydrogenic basis function :  2 p   1.800
  | Found hydrogenic basis function :  3 d   6.800
  | Found hydrogenic basis function :  3 s   5.800
  | Found hydrogenic basis function :  4 f  10.800
  | Found hydrogenic basis function :  3 p   5.800
  | Found hydrogenic basis function :  1 s   0.800
  | Found hydrogenic basis function :  5 g  16.000
  | Found hydrogenic basis function :  3 d   4.900
  Species N                   : Missing cutoff potential type.
  Defaulting to exp(1/x)/(1-x)^2 type cutoff potential.
  Species N : No 'logarithmic' tag. Using default grid for free atom:
  | Default logarithmic grid data [bohr] : 0.1000E-03 0.1000E+03 0.1012E+01
  Species N : On-site basis accuracy parameter (for Gram-Schmidt orthonormalisation) not specified.
  Using default value basis_acc =  0.1000000E-03.
  Species N                   : Using default innermost maximum threshold i_radial=  2 for radial functions.
  Species N                   : Default cutoff onset for free atom density etc. : 0.40000000E+01 AA.
  Species N                   : Basic radial grid will be enhanced according to radial_multiplier =   2, to contain    71 grid points.
 
  Reading configuration options for species O                   .
  | Found nuclear charge :   8.0000
  | Found atomic mass :    15.9994000000000      amu
  | Found l_max for Hartree potential  :   6
  | Found cutoff potl. onset [A], width [A], scale factor :    4.00000    2.00000    1.00000
  | Threshold for basis-dependent cutoff potential is   0.100000E-03
  | Found data for basic radial integration grid :    36 points, outermost radius =    7.000 A
  | Found multiplier for basic radial grid :   2
  | Found angular grid specification: user-specified.
  | Specified grid contains     6 separate shells.
  | Check grid settings after all constraints further below.
  | Found free-atom valence shell :  2 s   2.000
  | Found free-atom valence shell :  2 p   4.000
  | No ionic wave fns used. Skipping ion_occ.
  | No ionic wave fns used. Skipping ion_occ.
  | Found hydrogenic basis function :  2 p   1.800
  | Found hydrogenic basis function :  3 d   7.600
  | Found hydrogenic basis function :  3 s   6.400
  | Found hydrogenic basis function :  4 f  11.600
  | Found hydrogenic basis function :  3 p   6.200
  | Found hydrogenic basis function :  3 d   5.600
  | Found hydrogenic basis function :  5 g  17.600
  | Found hydrogenic basis function :  1 s   0.750
  Species O                   : Missing cutoff potential type.
  Defaulting to exp(1/x)/(1-x)^2 type cutoff potential.
  Species O : No 'logarithmic' tag. Using default grid for free atom:
  | Default logarithmic grid data [bohr] : 0.1000E-03 0.1000E+03 0.1012E+01
  Species O : On-site basis accuracy parameter (for Gram-Schmidt orthonormalisation) not specified.
  Using default value basis_acc =  0.1000000E-03.
  Species O                   : Using default innermost maximum threshold i_radial=  2 for radial functions.
  Species O                   : Default cutoff onset for free atom density etc. : 0.40000000E+01 AA.
  Species O                   : Basic radial grid will be enhanced according to radial_multiplier =   2, to contain    73 grid points.
 
  Finished reading input file 'control.in'. Consistency checks are next.
 
  Target number of points in a grid batch is not set. Defaulting to  100
  Method for grid partitioning is not set. Defaulting to parallel hash+maxmin partitioning.
  Batch size limit is not set. Defaulting to    200
  By default, will store active basis functions for each batch.
  If in need of memory, prune_basis_once .false. can be used to disable this option.
  communication_type for Hartree potential was not specified.
  Defaulting to calc_hartree .
  Pulay mixer: Number of initial linear mixing iterations not set.
  Defaulting to    0 iterations.
  Work space size for distributed Hartree potential not set.
  Defaulting to   0.200000E+03 MB.
  Algorithm-dependent basis array size parameters:
  | n_max_pulay                         :       10
  Geometry relaxation not requested: no relaxation will be performed.
  Handling of forces: Unphysical translation and rotation will be removed from forces.
  No accuracy limit for integral partition fn. given. Defaulting to  0.1000E-14.
  No threshold value for u(r) in integrations given. Defaulting to  0.1000E-05.
  No accuracy for occupation numbers given. Defaulting to  0.1000E-07.
  No threshold value for occupation numbers given. Defaulting to  0.0000E+00.
  No accuracy for fermi level given. Defaulting to  0.1000E-19.
  Maximum # of iterations to find E_F not set. Defaulting to  200.
  Preferred method for the eigenvalue solver ('KS_method') not specified in 'control.in'.
  Calling blacs routine to test compilation state
  Since scalapack support is enabled, defaulting to 'elpa'.
  Preferred method for the MBD eigenvalue solver ('mbd_eigensolver') not specified in 'control.in'.
  Calling blacs routine to test compilation state
  Since scalapack support is enabled, defaulting to 'scaLAPACK'.
  Will not use alltoall communication since running on < 1024 CPUs.
  Threshold for basis singularities not set.
  Default threshold for basis singularities:  0.1000E-04
  partition_type (choice of integration weights) for integrals was not specified.
  | Using a version of the partition function of Stratmann and coworkers ('stratmann_smoother').
  | At each grid point, the set of atoms used to build the partition table is smoothly restricted to
  | only those atoms whose free-atom density would be non-zero at that grid point.
  Partitioning for Hartree potential was not defined. Using partition_type for integrals.
  | Adjusted default value of keyword multip_moments_threshold to:       0.10000000E-11
  | This value may affect high angular momentum components of the Hartree potential in periodic systems.
  No q(lm)/r^(l+1) cutoff set for long-range Hartree potential.
  | Using default value of  0.100000E-09 .
  | Verify using the multipole_threshold keyword.
  Defaulting to new monopole extrapolation.
  Density update method: automatic selection selected.
------------------------------------------------------------


------------------------------------------------------------
          Reading geometry description geometry.in.
------------------------------------------------------------
 * Warning! You did not set the 'relativistic' flag in input file 'control.in'.
 * Since you are not attempting to treat any elements beyond Ca(Z=20), FHI-aims
 * will default to 'relativistic none'.
 * You must ensure that this is really what you want!!
 * For example, DO NOT compute total-energy differences between results from
 * different settings of the 'relativistic' flag.
  Input structure read successfully.
  The structure contains       32 atoms,  and a total of        116.000 electrons.

  Input geometry:
  | No unit cell requested.
  | Atomic structure:
  |       Atom                x [A]            y [A]            z [A]
  |    1: Species C             -1.822173        -0.171461        -0.353367
  |    2: Species C             -1.350313        -0.158970         1.086666
  |    3: Species O             -0.539841        -0.990184         1.510876
  |    4: Species H             -0.946382        -0.222714        -1.010916
  |    5: Species H             -2.428909         0.700461        -0.626321
  |    6: Species H             -2.414008        -1.080946        -0.521622
  |    7: Species N             -1.872780         0.829287         1.867430
  |    8: Species C             -1.613837         0.939914         3.301529
  |    9: Species C             -2.829844         0.348146         4.057359
  |   10: Species O             -3.886048         0.980204         4.102324
  |   11: Species H             -2.623916         1.400213         1.493482
  |   12: Species H             -0.702941         0.357854         3.478874
  |   13: Species C             -1.392815         2.393804         3.709918
  |   14: Species H             -1.146142         2.455220         4.777925
  |   15: Species H             -2.304447         2.982858         3.547445
  |   16: Species H             -0.566811         2.829145         3.133854
  |   17: Species N             -2.687077        -0.876461         4.626910
  |   18: Species C             -1.557012        -1.790305         4.548420
  |   19: Species C             -2.141152        -3.212843         4.542838
  |   20: Species O             -3.207690        -3.460623         5.108859
  |   21: Species H             -3.522510        -1.278073         5.057515
  |   22: Species H             -1.018654        -1.614186         3.608447
  |   23: Species C             -0.594965        -1.634918         5.740316
  |   24: Species H             -0.187397        -0.615691         5.765286
  |   25: Species H              0.246860        -2.336765         5.670705
  |   26: Species H             -1.125280        -1.818393         6.683740
  |   27: Species N             -1.410961        -4.178293         3.922531
  |   28: Species C             -0.162264        -4.035037         3.185200
  |   29: Species H             -1.807071        -5.108046         4.020750
  |   30: Species H              0.712080        -3.964131         3.851051
  |   31: Species H             -0.182120        -3.155346         2.530096
  |   32: Species H             -0.032911        -4.919548         2.551785
  |

  | The smallest distance between any two atoms is         1.01488897 AA.
  |
  | The first atom of this pair is atom number                      7 .
  | The second atom of this pair is atom number                    11 .

  Number of empty states per atom not set in control.in - providing a guess from actual geometry.
  | Total number of empty states used during s.c.f. cycle:       71
  If you use a very high smearing, use empty_states (per atom!) in control.in to increase this value.

  Structure-dependent array size parameters: 
  | Maximum number of distinct radial functions  :       40
  | Maximum number of basis functions            :      840
  | Number of Kohn-Sham states (occupied + empty):      129
------------------------------------------------------------

------------------------------------------------------------
          Preparing all fixed parts of the calculation.
------------------------------------------------------------
  Determining machine precision:
    2.225073858507201E-308
  Setting up grids for atomic and cluster calculations.

  Creating wave function, potential, and density for free atoms.

  Species: H

  List of occupied orbitals and eigenvalues:
    n    l              occ      energy [Ha]    energy [eV]
    1    0           1.0000        -0.238382        -6.4867


  Species: C

  List of occupied orbitals and eigenvalues:
    n    l              occ      energy [Ha]    energy [eV]
    1    0           2.0000       -10.041232      -273.2358
    2    0           2.0000        -0.504327       -13.7234
    2    1           2.0000        -0.193750        -5.2722


  Species: N

  List of occupied orbitals and eigenvalues:
    n    l              occ      energy [Ha]    energy [eV]
    1    0           2.0000       -14.129007      -384.4699
    2    0           2.0000        -0.681802       -18.5528
    2    1           3.0000        -0.260543        -7.0897


  Species: O

  List of occupied orbitals and eigenvalues:
    n    l              occ      energy [Ha]    energy [eV]
    1    0           2.0000       -18.898576      -514.2564
    2    0           2.0000        -0.878795       -23.9132
    2    1           4.0000        -0.332075        -9.0362

  Creating fixed part of basis set: Ionic, confined, hydrogenic.
 
  H                    hydrogenic:
 
  List of hydrogenic basis orbitals: 
    n    l      effective z      eigenvalue [eV]  inner max. [A]     outer max. [A]     outer radius [A]   
    2    0         2.100000       -14.9965           0.193243           1.317208           5.373006
    2    1         3.500000       -41.6672           0.602369           0.602369           4.056063
    1    0         0.850000        -9.8292           0.624871           0.624871           5.373006
    2    1         3.700000       -46.5653           0.573622           0.573622           3.910002
    2    0         1.200000        -4.5995           0.334980           2.228188           5.505995
    3    2         7.000000       -74.0753           0.680699           0.680699           3.769201
 
 
  C                    hydrogenic:
 
  List of hydrogenic basis orbitals: 
    n    l      effective z      eigenvalue [eV]  inner max. [A]     outer max. [A]     outer radius [A]   
    2    1         1.700000        -9.8152           1.245706           1.245706           5.401630
    3    2         6.000000       -54.4226           0.792453           0.792453           4.178599
    2    0         4.900000       -81.6681           0.082559           0.562749           3.353238
    4    3         9.800000       -81.6681           0.863254           0.863254           4.028125
    3    1         5.200000       -40.8774           0.305389           1.215618           4.898362
    3    0         4.300000       -27.9508           0.091041           1.610311           5.401630
    5    4        14.400000      -112.8510           0.917666           0.917666           3.883070
    3    2         6.200000       -58.1113           0.763917           0.763917           4.077671
 
 
  N                    hydrogenic:
 
  List of hydrogenic basis orbitals: 
    n    l      effective z      eigenvalue [eV]  inner max. [A]     outer max. [A]     outer radius [A]   
    2    1         1.800000       -11.0118           1.177451           1.177451           5.427479
    3    2         6.800000       -69.9029           0.704619           0.704619           3.854246
    3    0         5.800000       -50.8549           0.067388           1.191934           4.629968
    4    3        10.800000       -99.1854           0.786571           0.786571           3.761152
    3    1         5.800000       -50.8549           0.274880           1.094176           4.518138
    1    0         0.800000        -8.7059           0.662839           0.662839           5.361532
    5    4        16.000000      -139.3222           0.825990           0.825990           3.625711
    3    2         4.900000       -36.2967           0.968267           0.968267           4.862000
 
 
  O                    hydrogenic:
 
  List of hydrogenic basis orbitals: 
    n    l      effective z      eigenvalue [eV]  inner max. [A]     outer max. [A]     outer radius [A]   
    2    1         1.800000       -11.0118           1.178562           1.178562           5.432602
    3    2         7.600000       -87.3182           0.624125           0.624125           3.541477
    3    0         6.400000       -61.9209           0.061167           1.081902           4.306578
    4    3        11.600000      -114.4238           0.731631           0.731631           3.585037
    3    1         6.200000       -58.1113           0.255680           1.030270           4.306578
    3    2         5.600000       -47.4081           0.847233           0.847233           4.413171
    5    4        17.600000      -168.5799           0.749740           0.749740           3.372465
    1    0         0.750000        -7.6499           0.705284           0.705284           5.366593
 

  Adding cutoff potential to free-atom effective potential.
  Creating atomic-like basis functions for current effective potential.

  Species H                   :

  List of atomic basis orbitals and eigenvalues:
    n    l      energy [Ha]    energy [eV]    outer radius [A]
    1    0        -0.238382        -6.4867       5.373006


  Species C                   :

  List of atomic basis orbitals and eigenvalues:
    n    l      energy [Ha]    energy [eV]    outer radius [A]
    1    0       -10.041232      -273.2358       1.934409
    2    0        -0.504327       -13.7234       5.271162
    2    1        -0.193750        -5.2722       5.401630


  Species N                   :

  List of atomic basis orbitals and eigenvalues:
    n    l      energy [Ha]    energy [eV]    outer radius [A]
    1    0       -14.129007      -384.4699       1.637919
    2    0        -0.681802       -18.5528       5.168461
    2    1        -0.260543        -7.0897       5.361532


  Species O                   :

  List of atomic basis orbitals and eigenvalues:
    n    l      energy [Ha]    energy [eV]    outer radius [A]
    1    0       -18.898576      -514.2564       1.415765
    2    0        -0.878795       -23.9132       5.048385
    2    1        -0.332075        -9.0362       5.301386

  Assembling full basis from fixed parts.
  | Species H :   atomic orbital   1 s accepted.
  | Species H :    hydro orbital   2 s accepted.
  | Species H :    hydro orbital   1 s accepted.
  | Species H :    hydro orbital   2 s accepted.
  | Species H :    hydro orbital   2 p accepted.
  | Species H :    hydro orbital   2 p accepted.
  | Species H :    hydro orbital   3 d accepted.
  | Species C :   atomic orbital   1 s accepted.
  | Species C :    hydro orbital   2 s accepted.
  | Species C :   atomic orbital   2 s accepted.
  | Species C :    hydro orbital   3 s accepted.
  | Species C :    hydro orbital   3 p accepted.
  | Species C :   atomic orbital   2 p accepted.
  | Species C :    hydro orbital   2 p accepted.
  | Species C :    hydro orbital   3 d accepted.
  | Species C :    hydro orbital   3 d accepted.
  | Species C :    hydro orbital   4 f accepted.
  | Species C :    hydro orbital   5 g accepted.
  | Species N :   atomic orbital   1 s accepted.
  | Species N :    hydro orbital   3 s accepted.
  | Species N :   atomic orbital   2 s accepted.
  | Species N :    hydro orbital   1 s accepted.
  | Species N :    hydro orbital   3 p accepted.
  | Species N :   atomic orbital   2 p accepted.
  | Species N :    hydro orbital   2 p accepted.
  | Species N :    hydro orbital   3 d accepted.
  | Species N :    hydro orbital   3 d accepted.
  | Species N :    hydro orbital   4 f accepted.
  | Species N :    hydro orbital   5 g accepted.
  | Species O :   atomic orbital   1 s accepted.
  | Species O :    hydro orbital   3 s accepted.
  | Species O :   atomic orbital   2 s accepted.
  | Species O :    hydro orbital   1 s accepted.
  | Species O :    hydro orbital   3 p accepted.
  | Species O :   atomic orbital   2 p accepted.
  | Species O :    hydro orbital   2 p accepted.
  | Species O :    hydro orbital   3 d accepted.
  | Species O :    hydro orbital   3 d accepted.
  | Species O :    hydro orbital   4 f accepted.
  | Species O :    hydro orbital   5 g accepted.
 
  Basis size parameters after reduction:
  | Total number of radial functions:       40
  | Total number of basis functions :      840
 
  Testing on-site integration grid accuracy.
  |  Species  Function  <phi|h_atom|phi> (log., in eV)  <phi|h_atom|phi> (rad., in eV)
           1        1                 -6.4869821809                 -6.4870742227
           1        2                 13.5044133542                 13.5041049177
           1        3                 32.7854418792                 32.7779770519
           1        4                 33.7995553101                 33.7152624900 ***
           1        5                 28.8558651799                 28.8558652046
           1        6                 59.6361831893                 59.6362535845
           1        7                 60.2733718049                 60.2733715484
           2        8               -273.2358277112               -273.2358261765
           2        9                -10.7624923123                -10.7625144012
           2       10                 17.4634079027                 17.4634252127
           2       11                 53.0363661832                 53.0366180446
           2       12                 15.0981351967                 15.0981317714
           2       13                  3.8522181899                  3.8522770949
           2       14                 12.1181835661                 12.1206868578
           2       15                 29.4320778347                 29.4320780959
           2       16                 54.8753777694                 54.8752901936
           2       17                 59.3533975461                 59.3533974833
           2       18                 93.4537491195                 93.4537492066
           3       19               -384.4698526889               -384.4698499465
           3       20                 12.5691022037                 12.5690910168
           3       21                -15.7489097511                -15.7489165588
           3       22                 27.0978334940                 27.0985589490
           3       23                 18.5949116966                 18.5949125562
           3       24                  1.2212828291                  1.2212855301
           3       25                 13.4428926797                 13.4434051125
           3       26                 35.9380614500                 35.9380613666
           3       27                 39.9231532098                 39.9231654735
           3       28                 72.9957335806                 72.9957336833
           3       29                116.4231321147                116.4231321431
           4       30               -514.2564144315               -514.2564099626
           4       31                 15.1726678541                 15.1726530877
           4       32                -21.5447785304                -21.5447874973
           4       33                 14.4944558459                 14.4944698284
           4       34                 20.8882174564                 20.8882178906
           4       35                 -2.4850315908                 -2.4850322289
           4       36                 13.8600193195                 13.8599826966
           4       37                 45.8243383616                 45.8243383675
           4       38                 52.1840606465                 52.1840622440
           4       39                 85.4074185510                 85.4074185819
           4       40                142.0983717302                142.0983717339
 * Note: Onsite integrals marked "***" above are less accurate than
 * onsite_accuracy_threshold =    0.03000 eV. Usually, this is harmless.
 * When in doubt, tighten the "radial" and/or "radial_multiplier" flags to check.

  Preparing densities etc. for the partition functions (integrals / Hartree potential).

  Preparations completed.
  max(cpu_time)          :      0.232 s.
  Wall clock time (cpu1) :      0.234 s.
------------------------------------------------------------

------------------------------------------------------------
          Begin self-consistency loop: Initialization.

          Date     :  20170309, Time     :  184356.549
------------------------------------------------------------

  Initializing index lists of integration centers etc. from given atomic structure:
  | Number of centers in hartree potential         :        32
  | Number of centers in hartree multipole         :        32
  | Number of centers in electron density summation:        32
  | Number of centers in basis integrals           :        32
  | Number of centers in integrals                 :        32
  | Number of centers in hamiltonian               :        32
  Using modified Scalapack Eigenvalue solver (ELPA)
  * Using 32 tasks for Scalapack Eigenvalue solver.
  Detailed listing of tasks and assigned k-points:
  (for non-periodic systems, the "k-point" denotes an internal label only)
   Task     0 k-point     1 on eos366
   Task     1 k-point     1 on eos366
   Task     2 k-point     1 on eos366
   Task     3 k-point     1 on eos366
   Task     4 k-point     1 on eos366
   Task     5 k-point     1 on eos366
   Task     6 k-point     1 on eos366
   Task     7 k-point     1 on eos366
   Task     8 k-point     1 on eos366
   Task     9 k-point     1 on eos366
   Task    10 k-point     1 on eos366
   Task    11 k-point     1 on eos366
   Task    12 k-point     1 on eos366
   Task    13 k-point     1 on eos366
   Task    14 k-point     1 on eos366
   Task    15 k-point     1 on eos366
   Task    16 k-point     1 on eos366
   Task    17 k-point     1 on eos366
   Task    18 k-point     1 on eos366
   Task    19 k-point     1 on eos366
   Task    20 k-point     1 on eos366
   Task    21 k-point     1 on eos366
   Task    22 k-point     1 on eos366
   Task    23 k-point     1 on eos366
   Task    24 k-point     1 on eos366
   Task    25 k-point     1 on eos366
   Task    26 k-point     1 on eos366
   Task    27 k-point     1 on eos366
   Task    28 k-point     1 on eos366
   Task    29 k-point     1 on eos366
   Task    30 k-point     1 on eos366
   Task    31 k-point     1 on eos366
  Tasks:    32 split into      8 X      4 BLACS grid
  Calculating blocksize based on n_basis =          840 max_nprow =            8 max_npcol =            4
  Scalapack blocksize set to:           16
  Required Scalapack workspace - INTEGER:            1 REAL:             1
  Partitioning the integration grid into batches with parallel hashing+maxmin method.
  | Number of batches:     4778
  | Maximal batch size:     200
  | Minimal batch size:      28
  | Average batch size:     110.450
  | Standard deviation of batch sizes:      37.260

  Integration load balanced across    32 MPI tasks.
  Work distribution over tasks is as follows:
  Task     0 has      16422 integration points.
  Task     1 has      16572 integration points.
  Task     2 has      16517 integration points.
  Task     3 has      16583 integration points.
  Task     4 has      16562 integration points.
  Task     5 has      16423 integration points.
  Task     6 has      16419 integration points.
  Task     7 has      16425 integration points.
  Task     8 has      16517 integration points.
  Task     9 has      16529 integration points.
  Task    10 has      16421 integration points.
  Task    11 has      16426 integration points.
  Task    12 has      16552 integration points.
  Task    13 has      16565 integration points.
  Task    14 has      16520 integration points.
  Task    15 has      16429 integration points.
  Task    16 has      16420 integration points.
  Task    17 has      16424 integration points.
  Task    18 has      16510 integration points.
  Task    19 has      16419 integration points.
  Task    20 has      16513 integration points.
  Task    21 has      16526 integration points.
  Task    22 has      16579 integration points.
  Task    23 has      16566 integration points.
  Task    24 has      16528 integration points.
  Task    25 has      16417 integration points.
  Task    26 has      16455 integration points.
  Task    27 has      16450 integration points.
  Task    28 has      16561 integration points.
  Task    29 has      16506 integration points.
  Task    30 has      16552 integration points.
  Task    31 has      16420 integration points.
  Initializing partition tables, free-atom densities, potentials, etc. across the integration grid (initialize_grid_storage).
  | initialize_grid_storage: Actual outermost partition radius vs. multipole_radius_free
  | (-- VB: in principle, multipole_radius_free should be larger, hence this output)
  | Species        1: Confinement radius =              6.000000000000000 AA, multipole_radius_free =              6.071692442739658 AA.
  | Species        1: outer_partition_radius set to              6.071692442739658 AA .
  | Species        2: Confinement radius =              6.000000000000000 AA, multipole_radius_free =              6.029870734432609 AA.
  | Species        2: outer_partition_radius set to              6.029870734432609 AA .
  | Species        3: Confinement radius =              6.000000000000000 AA, multipole_radius_free =              6.058726835495003 AA.
  | Species        3: outer_partition_radius set to              6.058726835495003 AA .
  | Species        4: Confinement radius =              6.000000000000000 AA, multipole_radius_free =              6.064445521808699 AA.
  | Species        4: outer_partition_radius set to              6.064445521808699 AA .
  | Original list of interatomic distances with          32 x         32 entries is created.
  | Net number of integration points:   527728
  | of which are non-zero points    :   415422
  Obtaining max. number of non-zero basis functions in each batch (get_n_compute_maxes).
  | Maximal number of non-zero basis functions:      776 in task     0
  | Maximal number of non-zero basis functions:      789 in task     1
  | Maximal number of non-zero basis functions:      787 in task     2
  | Maximal number of non-zero basis functions:      795 in task     3
  | Maximal number of non-zero basis functions:      801 in task     4
  | Maximal number of non-zero basis functions:      783 in task     5
  | Maximal number of non-zero basis functions:      790 in task     6
  | Maximal number of non-zero basis functions:      805 in task     7
  | Maximal number of non-zero basis functions:      782 in task     8
  | Maximal number of non-zero basis functions:      815 in task     9
  | Maximal number of non-zero basis functions:      789 in task    10
  | Maximal number of non-zero basis functions:      796 in task    11
  | Maximal number of non-zero basis functions:      796 in task    12
  | Maximal number of non-zero basis functions:      773 in task    13
  | Maximal number of non-zero basis functions:      807 in task    14
  | Maximal number of non-zero basis functions:      775 in task    15
  | Maximal number of non-zero basis functions:      812 in task    16
  | Maximal number of non-zero basis functions:      778 in task    17
  | Maximal number of non-zero basis functions:      788 in task    18
  | Maximal number of non-zero basis functions:      793 in task    19
  | Maximal number of non-zero basis functions:      794 in task    20
  | Maximal number of non-zero basis functions:      788 in task    21
  | Maximal number of non-zero basis functions:      789 in task    22
  | Maximal number of non-zero basis functions:      808 in task    23
  | Maximal number of non-zero basis functions:      808 in task    24
  | Maximal number of non-zero basis functions:      804 in task    25
  | Maximal number of non-zero basis functions:      801 in task    26
  | Maximal number of non-zero basis functions:      788 in task    27
  | Maximal number of non-zero basis functions:      795 in task    28
  | Maximal number of non-zero basis functions:      800 in task    29
  | Maximal number of non-zero basis functions:      793 in task    30
  | Maximal number of non-zero basis functions:      796 in task    31
  Selecting the method for density update.
  Loop over occupied states selected for charge density update.
  Integrating Hamiltonian matrix: batch-based integration.
  Time summed over all CPUs for integration: real work       21.658 s, elapsed       22.829 s
  Integrating overlap matrix.
  Time summed over all CPUs for integration: real work       13.218 s, elapsed       13.895 s
  Deallocating overlap matrix.

  Updating Kohn-Sham eigenvalues, eigenvectors, occupation numbers, and Fermi level.
  Solving generalized eigenproblem
  Solving real symmetric generalised eigenvalue problem by standard ScaLAPACK.
  Transforming overlap matrix with ScaLAPACK and checking for singularities.
  : Overlap matrix is nonsingular, using Cholesky decomposition
  | Lowest eigenvalue:  0.945862E-04
  Factoring overlap matrix with Cholesky decomposition
  Using Cholesky factor for transformation
  Using 1-stage real ELPA solver
  Determining occupation numbers for Kohn-Sham eigenstates.
  | Chemical potential (Fermi level) in eV                 : -.95849264E+01
  | Error in electron count due to remaining E_F inaccuracy: 0.00000000E+00
  | Maximum occupation number of highest empty state:  0.00E+00

  Writing Kohn-Sham eigenvalues.

  State    Occupation    Eigenvalue [Ha]    Eigenvalue [eV]
      1       2.00000         -18.973551         -516.29658
      2       2.00000         -18.973277         -516.28914
      3       2.00000         -18.973241         -516.28815
      4       2.00000         -14.255433         -387.91008
      5       2.00000         -14.255195         -387.90358
      6       2.00000         -14.255123         -387.90163
      7       2.00000         -10.171327         -276.77589
      8       2.00000         -10.171104         -276.76981
      9       2.00000         -10.169967         -276.73887
     10       2.00000         -10.166384         -276.64138
     11       2.00000         -10.149411         -276.17953
     12       2.00000         -10.149218         -276.17427
     13       2.00000         -10.136158         -275.81889
     14       2.00000         -10.135201         -275.79285
     15       2.00000         -10.134070         -275.76209
     16       2.00000          -1.133110          -30.83350
     17       2.00000          -1.129470          -30.73445
     18       2.00000          -1.126273          -30.64745
     19       2.00000          -1.018410          -27.71234
     20       2.00000          -1.013259          -27.57217
     21       2.00000          -1.011371          -27.52080
     22       2.00000          -0.887531          -24.15095
     23       2.00000          -0.876914          -23.86205
     24       2.00000          -0.841996          -22.91189
     25       2.00000          -0.816978          -22.23110
     26       2.00000          -0.778691          -21.18926
     27       2.00000          -0.762723          -20.75476
     28       2.00000          -0.705535          -19.19858
     29       2.00000          -0.693545          -18.87233
     30       2.00000          -0.675829          -18.39024
     31       2.00000          -0.635737          -17.29928
     32       2.00000          -0.625342          -17.01642
     33       2.00000          -0.605423          -16.47440
     34       2.00000          -0.601054          -16.35551
     35       2.00000          -0.597924          -16.27034
     36       2.00000          -0.584296          -15.89951
     37       2.00000          -0.573188          -15.59725
     38       2.00000          -0.562807          -15.31476
     39       2.00000          -0.556316          -15.13813
     40       2.00000          -0.551697          -15.01243
     41       2.00000          -0.549294          -14.94705
     42       2.00000          -0.544657          -14.82086
     43       2.00000          -0.540155          -14.69836
     44       2.00000          -0.527815          -14.36259
     45       2.00000          -0.521455          -14.18952
     46       2.00000          -0.514115          -13.98979
     47       2.00000          -0.508453          -13.83571
     48       2.00000          -0.496888          -13.52101
     49       2.00000          -0.495690          -13.48841
     50       2.00000          -0.488562          -13.29446
     51       2.00000          -0.483253          -13.14999
     52       2.00000          -0.474653          -12.91597
     53       2.00000          -0.412808          -11.23308
     54       2.00000          -0.406760          -11.06851
     55       2.00000          -0.399903          -10.88192
     56       2.00000          -0.388798          -10.57974
     57       2.00000          -0.383126          -10.42538
     58       2.00000          -0.380093          -10.34287
     59       0.00000          -0.172781           -4.70160
     60       0.00000          -0.160220           -4.35981
     61       0.00000          -0.147527           -4.01441
     62       0.00000          -0.077625           -2.11229
     63       0.00000          -0.065687           -1.78743
     64       0.00000          -0.059366           -1.61542
     65       0.00000          -0.048911           -1.33094
     66       0.00000          -0.048296           -1.31420
     67       0.00000          -0.038695           -1.05294
     68       0.00000          -0.032419           -0.88216
     69       0.00000          -0.030295           -0.82436
     70       0.00000          -0.026124           -0.71087
     71       0.00000          -0.021094           -0.57400
     72       0.00000          -0.017004           -0.46270
     73       0.00000          -0.009935           -0.27035
     74       0.00000          -0.006097           -0.16591
     75       0.00000          -0.002286           -0.06221
     76       0.00000           0.001363            0.03710
     77       0.00000           0.003128            0.08512
     78       0.00000           0.006446            0.17540
     79       0.00000           0.011159            0.30365
     80       0.00000           0.019758            0.53765
     81       0.00000           0.023009            0.62610
     82       0.00000           0.028721            0.78153
     83       0.00000           0.031720            0.86313
     84       0.00000           0.037747            1.02715
     85       0.00000           0.041287            1.12347
     86       0.00000           0.048650            1.32383
     87       0.00000           0.051923            1.41291
     88       0.00000           0.056195            1.52915
     89       0.00000           0.063658            1.73221
     90       0.00000           0.071234            1.93837
     91       0.00000           0.078211            2.12822
     92       0.00000           0.081975            2.23064
     93       0.00000           0.086043            2.34134
     94       0.00000           0.091515            2.49026
     95       0.00000           0.095381            2.59545
     96       0.00000           0.098074            2.66873
     97       0.00000           0.104901            2.85450
     98       0.00000           0.113229            3.08111
     99       0.00000           0.118763            3.23171
    100       0.00000           0.126044            3.42983
    101       0.00000           0.134373            3.65648
    102       0.00000           0.138488            3.76845
    103       0.00000           0.142862            3.88749
    104       0.00000           0.143427            3.90284
    105       0.00000           0.147063            4.00178
    106       0.00000           0.153506            4.17712
    107       0.00000           0.158533            4.31389
    108       0.00000           0.158724            4.31910
    109       0.00000           0.165991            4.51686
    110       0.00000           0.168313            4.58002
    111       0.00000           0.176982            4.81593
    112       0.00000           0.179248            4.87757
    113       0.00000           0.186701            5.08039
    114       0.00000           0.190759            5.19081
    115       0.00000           0.197317            5.36927
    116       0.00000           0.204256            5.55810
    117       0.00000           0.209429            5.69884
    118       0.00000           0.214647            5.84084
    119       0.00000           0.217647            5.92248
    120       0.00000           0.224027            6.09610
    121       0.00000           0.225558            6.13773
    122       0.00000           0.235911            6.41946
    123       0.00000           0.236937            6.44738
    124       0.00000           0.241798            6.57966
    125       0.00000           0.244032            6.64044
    126       0.00000           0.248853            6.77165
    127       0.00000           0.254920            6.93672
    128       0.00000           0.257373            7.00347
    129       0.00000           0.270038            7.34812

  Highest occupied state (VBM) at    -10.34286829 eV
  | Occupation number:      2.00000000

  Lowest unoccupied state (CBM) at    -4.70159999 eV
  | Occupation number:      0.00000000

  Overall HOMO-LUMO gap:      5.64126831 eV.
  Calculating total energy contributions from superposition of free atom densities.

  Total energy components:
  | Sum of eigenvalues            :        -437.90112057 Ha      -11915.89576490 eV
  | XC energy correction          :         -98.82798736 Ha       -2689.24636352 eV
  | XC potential correction       :         127.03180604 Ha        3456.71131788 eV
  | Free-atom electrostatic energy:        -333.59227110 Ha       -9077.50755524 eV
  | Hartree energy correction     :           0.00000000 Ha           0.00000000 eV
  | vdW energy correction         :           0.00000000 Ha           0.00000000 eV
  | Entropy correction            :          -0.00000000 Ha          -0.00000000 eV
  | ---------------------------
  | Total energy                  :        -743.28957300 Ha      -20225.93836578 eV
  | Total energy, T -> 0          :        -743.28957300 Ha      -20225.93836578 eV  <-- do not rely on this value for anything but (periodic) metals
  | Electronic free energy        :        -743.28957300 Ha      -20225.93836578 eV

  Derived energy quantities:
  | Kinetic energy                :         735.17517828 Ha       20005.13445096 eV
  | Electrostatic energy          :       -1379.63676391 Ha      -37541.82645322 eV
  | Energy correction for multipole
  | error in Hartree potential    :           0.00000000 Ha           0.00000000 eV
  | Sum of eigenvalues per atom                           :        -372.37174265 eV
  | Total energy (T->0) per atom                          :        -632.06057393 eV  <-- do not rely on this value for anything but (periodic) metals
  | Electronic free energy per atom                       :        -632.06057393 eV
  Initialize hartree_potential_storage
  Max. number of atoms included in rho_multipole:           32

  End scf initialization - timings             :  max(cpu_time)    wall_clock(cpu1)
  | Time for scf. initialization               :        1.896 s           1.895 s
  | Boundary condition initialization          :        0.000 s           0.001 s
  | Integration                                :        1.172 s           1.169 s
  | Solution of K.-S. eqns.                    :        0.076 s           0.074 s
  | Grid partitioning                          :        0.296 s           0.282 s
  | Preloading free-atom quantities on grid    :        0.028 s           0.027 s
  | Free-atom superposition energy             :        0.040 s           0.040 s
  | Total energy evaluation                    :        0.000 s           0.001 s
------------------------------------------------------------

------------------------------------------------------------
          Begin self-consistency iteration #    1

  Date     :  20170309, Time     :  184358.445
------------------------------------------------------------
  Evaluating new KS density.
  Integration grid: deviation in total charge (<rho> - N_e) =  -2.842171E-14
  Pulay mixing of updated and previous charge densities.

  Evaluating partitioned Hartree potential by multipole expansion.
  | Analytical far-field extrapolation by fixed multipoles:
  | Hartree multipole sum: apparent total charge =  -0.193973E-04
  Summing up the Hartree potential.
  Time summed over all CPUs for potential: real work        9.589 s, elapsed        9.799 s
  | RMS charge density error from multipole expansion :   0.108850E-01

  Integrating Hamiltonian matrix: batch-based integration.
  Time summed over all CPUs for integration: real work       21.522 s, elapsed       22.583 s

  Updating Kohn-Sham eigenvalues, eigenvectors, occupation numbers, and Fermi level.
  Solving generalized eigenproblem
  Solving real symmetric generalised eigenvalue problem by standard ScaLAPACK.
  Using Cholesky factor for transformation
  Using 2-stage real ELPA solver
  K-Point:    1, Trafo times: 1-stage=     0.021 s, 2-stage=     0.019 s ==> Using 2-stage solver
  Determining occupation numbers for Kohn-Sham eigenstates.
  | Chemical potential (Fermi level) in eV                 : -.52980123E+01
  | Error in electron count due to remaining E_F inaccuracy: -.55422333E-12
  | Maximum occupation number of highest empty state:  0.00E+00

  Writing Kohn-Sham eigenvalues.

  State    Occupation    Eigenvalue [Ha]    Eigenvalue [eV]
      1       2.00000         -18.627199         -506.87189
      2       2.00000         -18.619418         -506.66014
      3       2.00000         -18.608299         -506.35759
      4       2.00000         -13.994341         -380.80539
      5       2.00000         -13.986710         -380.59775
      6       2.00000         -13.980215         -380.42100
      7       2.00000         -10.057319         -273.67359
      8       2.00000         -10.050685         -273.49305
      9       2.00000         -10.048220         -273.42599
     10       2.00000          -9.956586         -270.93249
     11       2.00000          -9.955413         -270.90058
     12       2.00000          -9.891523         -269.16203
     13       2.00000          -9.852069         -268.08843
     14       2.00000          -9.835089         -267.62639
     15       2.00000          -9.830656         -267.50577
     16       2.00000          -0.966268          -26.29349
     17       2.00000          -0.961981          -26.17684
     18       2.00000          -0.949971          -25.85002
     19       2.00000          -0.867574          -23.60788
     20       2.00000          -0.859607          -23.39110
     21       2.00000          -0.856632          -23.31014
     22       2.00000          -0.737385          -20.06527
     23       2.00000          -0.722254          -19.65352
     24       2.00000          -0.688000          -18.72143
     25       2.00000          -0.670853          -18.25485
     26       2.00000          -0.631448          -17.18256
     27       2.00000          -0.618790          -16.83814
     28       2.00000          -0.571967          -15.56402
     29       2.00000          -0.562403          -15.30376
     30       2.00000          -0.544301          -14.81119
     31       2.00000          -0.499727          -13.59827
     32       2.00000          -0.475866          -12.94898
     33       2.00000          -0.463105          -12.60172
     34       2.00000          -0.456260          -12.41546
     35       2.00000          -0.452464          -12.31216
     36       2.00000          -0.443499          -12.06822
     37       2.00000          -0.433020          -11.78306
     38       2.00000          -0.428727          -11.66626
     39       2.00000          -0.414527          -11.27985
     40       2.00000          -0.399596          -10.87357
     41       2.00000          -0.394255          -10.72824
     42       2.00000          -0.386293          -10.51157
     43       2.00000          -0.382271          -10.40212
     44       2.00000          -0.375968          -10.23062
     45       2.00000          -0.370820          -10.09052
     46       2.00000          -0.369399          -10.05185
     47       2.00000          -0.358867           -9.76525
     48       2.00000          -0.349615           -9.51351
     49       2.00000          -0.347652           -9.46010
     50       2.00000          -0.343468           -9.34625
     51       2.00000          -0.336445           -9.15514
     52       2.00000          -0.329759           -8.97320
     53       2.00000          -0.243803           -6.63422
     54       2.00000          -0.231071           -6.28777
     55       2.00000          -0.225801           -6.14435
     56       2.00000          -0.218468           -5.94481
     57       2.00000          -0.215303           -5.85870
     58       2.00000          -0.204067           -5.55294
     59       0.00000          -0.053926           -1.46740
     60       0.00000          -0.044349           -1.20681
     61       0.00000          -0.033015           -0.89839
     62       0.00000          -0.029166           -0.79364
     63       0.00000          -0.023133           -0.62948
     64       0.00000          -0.013233           -0.36008
     65       0.00000           0.000235            0.00638
     66       0.00000           0.006181            0.16820
     67       0.00000           0.007464            0.20311
     68       0.00000           0.021871            0.59513
     69       0.00000           0.027391            0.74535
     70       0.00000           0.028180            0.76682
     71       0.00000           0.036027            0.98034
     72       0.00000           0.042745            1.16316
     73       0.00000           0.045361            1.23433
     74       0.00000           0.054294            1.47742
     75       0.00000           0.061675            1.67825
     76       0.00000           0.066894            1.82028
     77       0.00000           0.071047            1.93329
     78       0.00000           0.076279            2.07567
     79       0.00000           0.081796            2.22579
     80       0.00000           0.086975            2.36671
     81       0.00000           0.093163            2.53509
     82       0.00000           0.095794            2.60670
     83       0.00000           0.099174            2.69866
     84       0.00000           0.101724            2.76804
     85       0.00000           0.109497            2.97956
     86       0.00000           0.116729            3.17635
     87       0.00000           0.119883            3.26217
     88       0.00000           0.133172            3.62379
     89       0.00000           0.137626            3.74499
     90       0.00000           0.138358            3.76491
     91       0.00000           0.146519            3.98699
     92       0.00000           0.152173            4.14084
     93       0.00000           0.154285            4.19831
     94       0.00000           0.160013            4.35417
     95       0.00000           0.168989            4.59843
     96       0.00000           0.171904            4.67776
     97       0.00000           0.174266            4.74203
     98       0.00000           0.178664            4.86170
     99       0.00000           0.189257            5.14993
    100       0.00000           0.192562            5.23987
    101       0.00000           0.196816            5.35562
    102       0.00000           0.200110            5.44527
    103       0.00000           0.203631            5.54109
    104       0.00000           0.204351            5.56068
    105       0.00000           0.210696            5.73332
    106       0.00000           0.216903            5.90224
    107       0.00000           0.222154            6.04513
    108       0.00000           0.223812            6.09024
    109       0.00000           0.233752            6.36072
    110       0.00000           0.235162            6.39909
    111       0.00000           0.238399            6.48717
    112       0.00000           0.240503            6.54442
    113       0.00000           0.248042            6.74957
    114       0.00000           0.251990            6.85699
    115       0.00000           0.260252            7.08181
    116       0.00000           0.272842            7.42440
    117       0.00000           0.276702            7.52945
    118       0.00000           0.282007            7.67381
    119       0.00000           0.283259            7.70786
    120       0.00000           0.289557            7.87924
    121       0.00000           0.292941            7.97133
    122       0.00000           0.297043            8.08295
    123       0.00000           0.302561            8.23311
    124       0.00000           0.311103            8.46554
    125       0.00000           0.312704            8.50912
    126       0.00000           0.327092            8.90063
    127       0.00000           0.331394            9.01769
    128       0.00000           0.337727            9.19001
    129       0.00000           0.350164            9.52844

  Highest occupied state (VBM) at     -5.55294314 eV
  | Occupation number:      2.00000000

  Lowest unoccupied state (CBM) at    -1.46740446 eV
  | Occupation number:      0.00000000

  Overall HOMO-LUMO gap:      4.08553868 eV.

  Total energy components:
  | Sum of eigenvalues            :        -417.30658827 Ha      -11355.49002781 eV
  | XC energy correction          :        -100.75947154 Ha       -2741.80472209 eV
  | XC potential correction       :         129.53686704 Ha        3524.87749592 eV
  | Free-atom electrostatic energy:        -333.59227110 Ha       -9077.50755524 eV
  | Hartree energy correction     :         -20.59984866 Ha        -560.55040263 eV
  | vdW energy correction         :           0.00000000 Ha           0.00000000 eV
  | Entropy correction            :          -0.00000000 Ha          -0.00000000 eV
  | ---------------------------
  | Total energy                  :        -742.72131254 Ha      -20210.47521184 eV
  | Total energy, T -> 0          :        -742.72131254 Ha      -20210.47521184 eV  <-- do not rely on this value for anything but (periodic) metals
  | Electronic free energy        :        -742.72131254 Ha      -20210.47521184 eV

  Derived energy quantities:
  | Kinetic energy                :         744.04613968 Ha       20246.52559251 eV
  | Electrostatic energy          :       -1386.00798068 Ha      -37715.19608227 eV
  | Energy correction for multipole
  | error in Hartree potential    :          -0.04185589 Ha          -1.13895671 eV
  | Sum of eigenvalues per atom                           :        -354.85906337 eV
  | Total energy (T->0) per atom                          :        -631.57735037 eV  <-- do not rely on this value for anything but (periodic) metals
  | Electronic free energy per atom                       :        -631.57735037 eV

  Self-consistency convergence accuracy:
  | Change of charge density      :  0.9019E+00
  | Change of sum of eigenvalues  :  0.5604E+03 eV
  | Change of total energy        :  0.1546E+02 eV

  End self-consistency iteration #     1       :  max(cpu_time)    wall_clock(cpu1)
  | Time for this iteration                    :        1.572 s           1.572 s
  | Charge density update                      :        0.496 s           0.495 s
[...]
   ----------------------------------------------------------------
   Total forces(  20)            : -0.366201E-02  0.732645E-03  0.981240E-03
  atom #   21
   Hellmann-Feynman              :  0.259023E-01  0.166085E-01 -0.299798E-01
   Ionic forces                  :  0.000000E+00  0.000000E+00  0.000000E+00
   Multipole                     :  0.100500E-01  0.759400E-02  0.595962E-02
   Pulay + GGA                   : -0.430013E-01 -0.284792E-01  0.292113E-01
   Van der Waals                 :  0.526926E-02  0.304755E-02 -0.457324E-02
   ----------------------------------------------------------------
   Total forces(  21)            : -0.177976E-02 -0.122914E-02  0.617855E-03
  atom #   22
   Hellmann-Feynman              : -0.364049E-01  0.148040E-02  0.270911E-01
   Ionic forces                  :  0.000000E+00  0.000000E+00  0.000000E+00
   Multipole                     :  0.151293E-01 -0.439115E-02  0.120040E-01
   Pulay + GGA                   :  0.245005E-01  0.612965E-02 -0.404317E-01
   Van der Waals                 : -0.237310E-02 -0.321063E-02  0.470602E-03
   ----------------------------------------------------------------
   Total forces(  22)            :  0.851735E-03  0.827479E-05 -0.865984E-03
  atom #   23
   Hellmann-Feynman              :  0.419860E+00  0.158890E+00  0.856542E+00
   Ionic forces                  :  0.000000E+00  0.000000E+00  0.000000E+00
   Multipole                     : -0.164959E+00 -0.265286E-01 -0.296292E+00
   Pulay + GGA                   : -0.267196E+00 -0.136077E+00 -0.549912E+00
   Van der Waals                 :  0.137967E-01  0.383126E-02 -0.881572E-02
   ----------------------------------------------------------------
   Total forces(  23)            :  0.150076E-02  0.115439E-03  0.152247E-02
  atom #   24
   Hellmann-Feynman              : -0.304995E-01 -0.385677E-01 -0.158321E-01
   Ionic forces                  :  0.000000E+00  0.000000E+00  0.000000E+00
   Multipole                     :  0.621931E-02 -0.222800E-01  0.206735E-01
   Pulay + GGA                   :  0.268599E-01  0.599370E-01 -0.446764E-02
   Van der Waals                 : -0.197744E-02  0.149952E-02 -0.544623E-03
   ----------------------------------------------------------------
   Total forces(  24)            :  0.602305E-03  0.588798E-03 -0.170894E-03
  atom #   25
   Hellmann-Feynman              : -0.386629E-01  0.159720E-01 -0.186046E-01
   Ionic forces                  :  0.000000E+00  0.000000E+00  0.000000E+00
   Multipole                     : -0.956832E-02  0.171273E-01  0.211790E-01
   Pulay + GGA                   :  0.493045E-01 -0.404834E-01 -0.795639E-02
   Van der Waals                 : -0.310636E-03  0.722463E-02  0.450229E-02
   ----------------------------------------------------------------
   Total forces(  25)            :  0.762636E-03 -0.159529E-03 -0.879773E-03
  atom #   26
   Hellmann-Feynman              : -0.136233E-01  0.937284E-04 -0.517453E-01
   Ionic forces                  :  0.000000E+00  0.000000E+00  0.000000E+00
   Multipole                     :  0.276651E-01  0.580343E-02 -0.492565E-02
   Pulay + GGA                   : -0.158389E-01 -0.734755E-02  0.587659E-01
   Van der Waals                 :  0.222643E-02  0.114704E-02 -0.165947E-02
   ----------------------------------------------------------------
   Total forces(  26)            :  0.429361E-03 -0.303351E-03  0.435512E-03
  atom #   27
   Hellmann-Feynman              : -0.140022E+01 -0.626592E-01  0.350984E+00
   Ionic forces                  :  0.000000E+00  0.000000E+00  0.000000E+00
   Multipole                     : -0.164433E+00  0.607140E-01  0.952805E-01
   Pulay + GGA                   :  0.157201E+01 -0.399894E-02 -0.444399E+00
   Van der Waals                 : -0.607071E-02  0.589648E-02 -0.120926E-02
   ----------------------------------------------------------------
   Total forces(  27)            :  0.128477E-02 -0.477048E-04  0.656249E-03
  atom #   28
   Hellmann-Feynman              :  0.190967E+01  0.296451E+00 -0.133695E+01
   Ionic forces                  :  0.000000E+00  0.000000E+00  0.000000E+00
   Multipole                     : -0.160949E+00 -0.440421E-01  0.573414E-01
   Pulay + GGA                   : -0.174668E+01 -0.259165E+00  0.128246E+01
   Van der Waals                 : -0.280211E-02  0.702368E-02 -0.289922E-02
   ----------------------------------------------------------------
   Total forces(  28)            : -0.763526E-03  0.267828E-03 -0.479268E-04
  atom #   29
   Hellmann-Feynman              : -0.250700E-01  0.570895E-01  0.199975E-01
   Ionic forces                  :  0.000000E+00  0.000000E+00  0.000000E+00
   Multipole                     :  0.369830E-01 -0.115861E-03 -0.213093E-01
   Pulay + GGA                   : -0.150277E-01 -0.672096E-01 -0.383516E-03
   Van der Waals                 :  0.154767E-02  0.892610E-02  0.181766E-02
   ----------------------------------------------------------------
   Total forces(  29)            : -0.156694E-02 -0.130985E-02  0.122340E-03
  atom #   30
   Hellmann-Feynman              : -0.454237E-01 -0.137799E-01 -0.113652E-01
   Ionic forces                  :  0.000000E+00  0.000000E+00  0.000000E+00
   Multipole                     : -0.126121E-01  0.291717E-02 -0.203773E-01
   Pulay + GGA                   :  0.611211E-01  0.556406E-02  0.338600E-01
   Van der Waals                 : -0.247528E-02  0.497117E-02 -0.133383E-02
   ----------------------------------------------------------------
   Total forces(  30)            :  0.610011E-03 -0.327508E-03  0.783698E-03
  atom #   31
   Hellmann-Feynman              : -0.313101E-01 -0.158709E-01  0.791401E-02
   Ionic forces                  :  0.000000E+00  0.000000E+00  0.000000E+00
   Multipole                     :  0.236572E-01 -0.194012E-01  0.171870E-01
   Pulay + GGA                   :  0.608368E-02  0.305062E-01 -0.230617E-01
   Van der Waals                 :  0.165188E-02  0.537824E-02 -0.218272E-02
   ----------------------------------------------------------------
   Total forces(  31)            :  0.826315E-04  0.612378E-03 -0.143395E-03
  atom #   32
   Hellmann-Feynman              : -0.420108E-01  0.271690E-01  0.314677E-01
   Ionic forces                  :  0.000000E+00  0.000000E+00  0.000000E+00
   Multipole                     :  0.370672E-01  0.240770E-01 -0.128738E-02
   Pulay + GGA                   :  0.614484E-02 -0.586320E-01 -0.319472E-01
   Van der Waals                 : -0.130956E-02  0.726435E-02  0.144498E-02
   ----------------------------------------------------------------
   Total forces(  32)            : -0.108372E-03 -0.121606E-03 -0.321916E-03

  Timings for VdW correction (Tkatchenko-Scheffler 2009 or later):
  | CPU time:        0.124 s, Wall clock time:        0.123 s.
  Removing unitary transformations (pure translations, rotations) from forces on atoms.
  Atomic forces before filtering:
  | Net force on center of mass :   0.247489E-03 -0.888637E-04 -0.723149E-04 eV/A
  | Net torque on center of mass:  -0.248109E-02  0.217509E-02  0.129695E-03 eV
  Atomic forces after filtering:
  | Net force on center of mass :   0.130669E-17 -0.370228E-18  0.479118E-18 eV/A
  | Net torque on center of mass:  -0.197068E-17 -0.921958E-18  0.165952E-17 eV

  Energy and forces in a compact form:
  | Total energy uncorrected      :         -0.202088714229877E+05 eV
  | Total energy corrected        :         -0.202088714229877E+05 eV  <-- do not rely on this value for anything but (periodic) metals
  | Electronic free energy        :         -0.202088714229877E+05 eV
  Total atomic forces (unitary forces cleaned) [eV/Ang]:
  |   1          0.750732569882774E-03         -0.945241815602226E-03         -0.381278661983043E-03
  |   2         -0.113113237688463E-02          0.331139965276763E-02         -0.243202380215807E-02
  |   3          0.277694448343315E-02         -0.250645036299330E-02          0.117384354183905E-02
  |   4         -0.730945854633767E-03          0.112777456779809E-02         -0.155205461760973E-03
  |   5         -0.126015707444109E-02         -0.964592073071378E-03          0.735771532944636E-03
  |   6          0.115950927895427E-02         -0.435111598913734E-03          0.438195630723885E-03
  |   7         -0.129164887391404E-03         -0.944043004158384E-03          0.126697944556864E-02
  |   8         -0.626079729178024E-03          0.873899029984820E-03         -0.980981168619590E-03
  |   9          0.170708612762287E-02         -0.295436280284433E-02         -0.124042206716663E-02
  |  10         -0.345069108607366E-02          0.263686874485005E-02         -0.242786851347927E-03
  |  11         -0.269321834009320E-03          0.113099469355139E-02         -0.350382960733840E-03
  |  12          0.666739695967499E-03         -0.695957966696292E-03         -0.178765008693032E-03
  |  13          0.868711467011719E-03          0.643730327887987E-03         -0.502606267048589E-03
  |  14          0.123502245135564E-03         -0.106483473037344E-02          0.850896553307515E-03
  |  15         -0.101500524115465E-02         -0.184626326484457E-03          0.971874962079534E-03
  |  16          0.763743091846199E-04          0.215468739330216E-03          0.167500864552951E-03
  |  17          0.336887575731579E-02          0.448343126613869E-03         -0.111157101615589E-03
  |  18         -0.360357667341555E-02          0.161319497884604E-02         -0.811235053547479E-03
  |  19          0.275820764870107E-02         -0.289790087891568E-04         -0.780576338023870E-03
  |  20         -0.369316230869378E-02          0.713803421582280E-03          0.931595642316958E-03
  |  21         -0.181402575060964E-02         -0.124802803622868E-02          0.585514786427354E-03
  |  22          0.840179352103314E-03          0.853805010911226E-05         -0.863526046303897E-03
  |  23          0.145671320243474E-02          0.948645263467942E-04          0.153117847388153E-02
  |  24          0.556059349217857E-03          0.568698288778210E-03         -0.145639089331491E-03
  |  25          0.720905194003940E-03         -0.177895850293394E-03         -0.865324820652386E-03
  |  26          0.371248294790505E-03         -0.334428284455457E-03          0.434275359519706E-03
  |  27          0.127299922493193E-02         -0.513231384070244E-04          0.626749316846180E-03
  |  28         -0.764302999855100E-03          0.273906686385994E-03         -0.569231970856101E-04
  |  29         -0.157854514866992E-02         -0.131517409551454E-02          0.773793988521816E-04
  |  30          0.598948686185926E-03         -0.326612530825640E-03          0.788760407543142E-03
  |  31          0.902798272455928E-04          0.625056968765423E-03         -0.143783797743131E-03
  |  32         -0.979057491125843E-04         -0.108880177946476E-03         -0.337898222588114E-03

  ------------------------------------ 
  Start decomposition of the XC Energy 
  ------------------------------------ 
  Hartree-Fock part   :          0.000000000 Ha              0.000000000 eV
  ------------------------------------ 
  X Energy            :        -96.995052115 Ha          -2639.369657692 eV
  C Energy GGA        :         -3.870109375 Ha           -105.311034262 eV
  Total XC Energy     :       -100.865161490 Ha          -2744.680691954 eV
  LDA X and C from self-consistent density 
  X Energy LDA        :        -88.013536395 Ha          -2394.970180058 eV
  C Energy LDA        :         -7.532775689 Ha           -204.977255622 eV
  ------------------------------------ 
  End decomposition of the XC Energy 
  ------------------------------------ 
   
  ESP charge fitting starts.
  | Calculation :  00000001  of  00000001
  | Full density
  Computing multipole expansion for total density.
  Generating points for esp charges.
  Partitioning the integration grid into batches with parallel hashing+maxmin method.
  | Number of batches:     3871
  | Maximal batch size:     200
  | Minimal batch size:      55
  | Average batch size:     125.885
  | Standard deviation of batch sizes:      18.561

  Integration load balanced across    32 MPI tasks.
  Work distribution over tasks is as follows:
  Initializing partition tables, free-atom densities, potentials, etc. across the integration grid (initialize_grid_storage).
  | Original list of interatomic distances with          32 x         32 entries is created.
  | Net number of integration points:   487302
  | of which are non-zero points    :   487302
  Summing up potential from multipole expanded  density.
  Summing up the Hartree potential.
  Time summed over all CPUs for potential: real work        6.415 s, elapsed        6.800 s
  Fitting esp charges to potential.
  |
  | ESP charges fitted to the electrostatic potential :
  |
  | Atom         1: C, ESP charge:      0.72251928
  |
  | Atom         2: C, ESP charge:     -0.72701301
  |
  | Atom         3: O, ESP charge:      0.55272014
  |
  | Atom         4: H, ESP charge:     -0.20650785
  |
  | Atom         5: H, ESP charge:     -0.19413508
  |
  | Atom         6: H, ESP charge:     -0.20159415
  |
  | Atom         7: N, ESP charge:      0.66864624
  |
  | Atom         8: C, ESP charge:     -0.65151615
  |
  | Atom         9: C, ESP charge:     -0.47963645
  |
  | Atom        10: O, ESP charge:      0.54540897
  |
  | Atom        11: H, ESP charge:     -0.30659383
  |
  | Atom        12: H, ESP charge:      0.12295281
  |
  | Atom        13: C, ESP charge:      0.50352876
  |
  | Atom        14: H, ESP charge:     -0.12154313
  |
  | Atom        15: H, ESP charge:     -0.12349505
  |
  | Atom        16: H, ESP charge:     -0.11932455
  |
  | Atom        17: N, ESP charge:      0.77021812
  |
  | Atom        18: C, ESP charge:     -0.67583800
  |
  | Atom        19: C, ESP charge:     -0.20178054
  |
  | Atom        20: O, ESP charge:      0.49130708
  |
  | Atom        21: H, ESP charge:     -0.38401563
  |
  | Atom        22: H, ESP charge:     -0.08853201
  |
  | Atom        23: C, ESP charge:      0.53093464
  |
  | Atom        24: H, ESP charge:     -0.09869362
  |
  | Atom        25: H, ESP charge:     -0.13285312
  |
  | Atom        26: H, ESP charge:     -0.14901585
  |
  | Atom        27: N, ESP charge:      0.33678945
  |
  | Atom        28: C, ESP charge:      0.18445509
  |
  | Atom        29: H, ESP charge:     -0.31329314
  |
  | Atom        30: H, ESP charge:     -0.07232950
  |
  | Atom        31: H, ESP charge:     -0.05319245
  |
  | Atom        32: H, ESP charge:     -0.12857746

  RRMS:       0.00321096

  Done.

------------------------------------------------------------------------------
  Final output of selected total energy values:

  The following output summarizes some interesting total energy values
  at the end of a run (AFTER all relaxation, molecular dynamics, etc.).

  | Total energy of the DFT / Hartree-Fock s.c.f. calculation      :         -20208.871422988 eV
  | Final zero-broadening corrected energy (caution - metals only) :         -20208.871422988 eV
  | For reference only, the value of 1 Hartree used in FHI-aims is :             27.211384500 eV

  Before relying on these values, please be sure to understand exactly which
  total energy value is referred to by a given number. Different objects may
  all carry the same name 'total energy'. Definitions:

  Total energy of the DFT / Hartree-Fock s.c.f. calculation:
  | Note that this energy does not include ANY quantities calculated after the
  | s.c.f. cycle, in particular not ANY RPA, MP2, etc. many-body perturbation terms.

  Final zero-broadening corrected energy:
  | For metallic systems only, a broadening of the occupation numbers at the Fermi
  | level can be extrapolated back to zero broadening by an electron-gas inspired
  | formula. For all systems that are not real metals, this value can be
  | meaningless and should be avoided.

------------------------------------------------------------------------------
  Methods described in the following list of references were used in this FHI-aims run.
  If you publish the results, please make sure to cite these reference if they apply.
  FHI-aims is an academic code, and for our developers (often, Ph.D. students
  and postdocs), scientific credit in the community is essential.
  Thank you for helping us!

  For any use of FHI-aims, please cite:

    Volker Blum, Ralf Gehrke, Felix Hanke, Paula Havu, Ville Havu,
    Xinguo Ren, Karsten Reuter, and Matthias Scheffler
    'Ab initio molecular simulations with numeric atom-centered orbitals'
    Computer Physics Communications 180, 2175-2196 (2009)
    http://dx.doi.org/10.1016/j.cpc.2009.06.022


  The scalable eigensolver library ELPA was used in your run.
  ELPA is essential especially for large systems on hundreds or thousands of CPUs.
  For ELPA, please cite:

    Andreas Marek, Volker Blum, Rainer Johanni, Ville Havu, Bruno Lang,
    Thomas Auckenthaler, Alexander Heinecke, Hans-Joachim Bungartz, and Hermann Lederer,
    'The ELPA Library - Scalable Parallel Eigenvalue Solutions
    for Electronic Structure Theory and Computational Science'
    The Journal of Physics: Condensed Matter 26, 213201 (2014).
    http://dx.doi.org/10.1088/0953-8984/26/21/213201


  For ELPA's efficient two-stage tridiagonalization used in your run, please cite:

    T. Auckenthaler, V. Blum, H.-J. Bungartz, T. Huckle, R. Johanni, L. Kraemer,
    B. Lang, H. Lederer, and P. R. Willems,
    'Parallel solution of partial symmetric eigenvalue problems'
    'from  electronic structure calculations'
    Parallel Computing 37, 783-794 (2011).
    http://dx.doi.org/10.1016/j.parco.2011.05.002


  For the real-space grid partitioning and parallelization used in this calculation, please cite:

    Ville Havu, Volker Blum, Paula Havu, and Matthias Scheffler,
    'Efficient O(N) integration for all-electron electronic structure calculation'
    'using numerically tabulated basis functions'
    Journal of Computational Physics 228, 8367-8379 (2009).
    http://dx.doi.org/10.1016/j.jcp.2009.08.008

  Of course, there are many other important community references, e.g., those cited in the
  above references. Our list is limited to references that describe implementations in the
  FHI-aims code. The reason is purely practical (length of this list) - please credit others as well.

------------------------------------------------------------
          Leaving FHI-aims.
          Date     :  20170309, Time     :  184422.830

          Computational steps:
          | Number of self-consistency cycles          :           13

          Detailed time accounting                     :  max(cpu_time)    wall_clock(cpu1)
          | Total time                                 :       27.190 s          27.326 s
          | Preparation time                           :        0.232 s           0.234 s
          | Grid partitioning                          :        0.296 s           0.282 s
          | Preloading free-atom quantities on grid    :        0.028 s           0.027 s
          | Free-atom superposition energy             :        0.040 s           0.040 s
          | Total time for integrations                :       10.525 s          10.505 s
          | Total time for solution of K.-S. equations :        0.496 s           0.463 s
          | Total time for density & force components  :        7.889 s           7.856 s
          | Total time for mixing                      :        0.120 s           0.095 s
          | Total time for Hartree multipole update    :        0.068 s           0.054 s
          | Total time for Hartree multipole sum       :        5.400 s           5.383 s
          | Total time for total energy evaluation     :        0.032 s           0.015 s
          | Total time for vdW correction              :        0.124 s           0.123 s

          Have a nice day.
------------------------------------------------------------
