  MPI-parallelism will be employed.
------------------------------------------------------------
          Invoking FHI-aims ...
          Version 150427
          Git rev.: 9dd23e0 BL: Update Version stamp
          Compiled on 2015/11/03 at 22:05:20 on host eos03.

          When using FHI-aims, please cite the following reference:

          Volker Blum, Ralf Gehrke, Felix Hanke, Paula Havu,
          Ville Havu, Xinguo Ren, Karsten Reuter, and Matthias Scheffler,
          'Ab Initio Molecular Simulations with Numeric Atom-Centered Orbitals: FHI-aims',
          Computer Physics Communications 180, 2175-2196 (2009)

          For any questions about FHI-aims, please visit the aimsclub website
          with its forums and wiki. Contributions to both the forums and the
          wiki are warmly encouraged - they are for you, and everyone is welcome there.

------------------------------------------------------------

  Date     :  20170309, Time     :  180655.334
  Time zero on CPU 1             :   0.376023000000000E+00  s.
  Internal wall clock time zero  :           258314815.334  s.

  Using       32 parallel tasks.
  Task        0 on host eos026 reporting.
  Task        1 on host eos026 reporting.
  Task        2 on host eos026 reporting.
  Task        3 on host eos026 reporting.
  Task        4 on host eos026 reporting.
  Task        5 on host eos026 reporting.
  Task        6 on host eos026 reporting.
  Task        7 on host eos026 reporting.
  Task        8 on host eos026 reporting.
  Task        9 on host eos026 reporting.
  Task       10 on host eos026 reporting.
  Task       11 on host eos026 reporting.
  Task       12 on host eos026 reporting.
  Task       13 on host eos026 reporting.
  Task       14 on host eos026 reporting.
  Task       15 on host eos026 reporting.
  Task       16 on host eos026 reporting.
  Task       17 on host eos026 reporting.
  Task       18 on host eos026 reporting.
  Task       19 on host eos026 reporting.
  Task       20 on host eos026 reporting.
  Task       21 on host eos026 reporting.
  Task       22 on host eos026 reporting.
  Task       23 on host eos026 reporting.
  Task       24 on host eos026 reporting.
  Task       25 on host eos026 reporting.
  Task       26 on host eos026 reporting.
  Task       27 on host eos026 reporting.
  Task       28 on host eos026 reporting.
  Task       29 on host eos026 reporting.
  Task       30 on host eos026 reporting.
  Task       31 on host eos026 reporting.

  Performing system and environment tests:
  | Environment variable OMP_NUM_THREADS correctly set to 1.
  | Stacksize not measured: no C compiler
  | Checking for scalapack...
  | Testing pdtran()...
  | All pdtran() tests passed.

  Obtaining array dimensions for all initial allocations:
  
  -----------------------------------------------------------------------
  Parsing control.in (first pass over file, find array dimensions only).
  The contents of control.in will be repeated verbatim below
  unless switched off by setting 'verbatim_writeout .false.' .
  in the first line of control.in .
  -----------------------------------------------------------------------
  
  #########################################################################################
  #
  # Input for System
  #
  #########################################################################################
  #
  #
  #  Physical model
  #
    xc                 pbe
    vdw_correction_hirshfeld
    spin               none
    charge             0.
  #
  #  SCF convergence
  #
    occupation_type    gaussian 0.05
    mixer              pulay
      n_max_pulay        10
      charge_mix_param   0.5
    sc_accuracy_rho    1E-4
    sc_accuracy_eev    1E-2
    sc_accuracy_etot   1E-5
    sc_accuracy_forces 1E-4
    sc_iter_limit      1000
  #
  #  ESP charge
  #
    output esp
    esp equal_grid_n 80 80 80
  #
  #
  ################################################################################
  #
  #  FHI-aims code project
  # Volker Blum, Fritz Haber Institute Berlin, 2009
  #
  #  Suggested "tight" defaults for H atom (to be pasted into control.in file)
  #
  ################################################################################
    species        H
  #     global species definitions
      nucleus             1
      mass                1.00794
  #
      l_hartree           6
  #
      cut_pot             4.0  2.0  1.0
      basis_dep_cutoff    1e-4
  #
      radial_base         24 7.0
      radial_multiplier   2
      angular_grids       specified
        division   0.1930   50
        division   0.3175  110
        division   0.4293  194
        division   0.5066  302
        division   0.5626  434
  #      division   0.5922  590
  #      division   0.6227  974
  #      division   0.6868 1202
  #      outer_grid  770
        outer_grid  434
  ################################################################################
  #
  #  Definition of "minimal" basis
  #
  ################################################################################
  #     valence basis states
      valence      1  s   1.
  #     ion occupancy
      ion_occ      1  s   0.5
  ################################################################################
  #
  #  Suggested additional basis functions. For production calculations,
  #  uncomment them one after another (the most important basis functions are
  #  listed first).
  #
  #  Basis constructed for dimers: 0.5 A, 0.7 A, 1.0 A, 1.5 A, 2.5 A
  #
  ################################################################################
  #  "First tier" - improvements: -1014.90 meV to -62.69 meV
       hydro 2 s 2.1
       hydro 2 p 3.5
  #  "Second tier" - improvements: -12.89 meV to -1.83 meV
       hydro 1 s 0.85
       hydro 2 p 3.7
       hydro 2 s 1.2
       hydro 3 d 7
  #  "Third tier" - improvements: -0.25 meV to -0.12 meV
  #     hydro 4 f 11.2
  #     hydro 3 p 4.8
  #     hydro 4 d 9
  #     hydro 3 s 3.2
  ################################################################################
  #
  # For methods that use the localized form of the "resolution of identity" for
  # the two-electron Coulomb operator (RI_method LVL), particularly Hartree-Fock and
  # hybrid density functional calculations, the highest accuracy can be obtained by
  # uncommenting the line beginning with "for_aux"  below, thus adding an extra g radial
  # function to the construction of the product basis set for the expansion.
  # See Ref. New J. Phys. 17, 093020 (2015) for more information, particularly Figs. 1 and 6.
  #
  ################################################################################
  #
  # for_aux hydro 5 g 6.0
  ################################################################################
  #
  #  FHI-aims code project
  # Volker Blum, Fritz Haber Institute Berlin, 2009
  #
  #  Suggested "tight" defaults for C atom (to be pasted into control.in file)
  #
  ################################################################################
    species        C
  #     global species definitions
      nucleus             6
      mass                12.0107
  #
      l_hartree           6
  #
      cut_pot             4.0  2.0  1.0
      basis_dep_cutoff    1e-4
  #
      radial_base         34 7.0
      radial_multiplier   2
      angular_grids specified
        division   0.2187   50
        division   0.4416  110
        division   0.6335  194
        division   0.7727  302
        division   0.8772  434
  #      division   0.9334  590
  #      division   0.9924  770
  #      division   1.0230  974
  #      division   1.5020 1202
  #     outer_grid  974
        outer_grid  434
  ################################################################################
  #
  #  Definition of "minimal" basis
  #
  ################################################################################
  #     valence basis states
      valence      2  s   2.
      valence      2  p   2.
  #     ion occupancy
      ion_occ      2  s   1.
      ion_occ      2  p   1.
  ################################################################################
  #
  #  Suggested additional basis functions. For production calculations,
  #  uncomment them one after another (the most important basis functions are
  #  listed first).
  #
  #  Constructed for dimers: 1.0 A, 1.25 A, 1.5 A, 2.0 A, 3.0 A
  #
  ################################################################################
  #  "First tier" - improvements: -1214.57 meV to -155.61 meV
       hydro 2 p 1.7
       hydro 3 d 6
       hydro 2 s 4.9
  #  "Second tier" - improvements: -67.75 meV to -5.23 meV
       hydro 4 f 9.8
       hydro 3 p 5.2
       hydro 3 s 4.3
       hydro 5 g 14.4
       hydro 3 d 6.2
  #  "Third tier" - improvements: -2.43 meV to -0.60 meV
  #     hydro 2 p 5.6
  #     hydro 2 s 1.4
  #     hydro 3 d 4.9
  #     hydro 4 f 11.2
  #  "Fourth tier" - improvements: -0.39 meV to -0.18 meV
  #     hydro 2 p 2.1
  #     hydro 5 g 16.4
  #     hydro 4 d 13.2
  #     hydro 3 s 13.6
  #     hydro 4 f 17.6
  #  Further basis functions - improvements: -0.08 meV and below
  #     hydro 3 s 2
  #     hydro 3 p 6
  #     hydro 4 d 20
  ################################################################################
  #
  # For methods that use the localized form of the "resolution of identity" for
  # the two-electron Coulomb operator (RI_method LVL), particularly Hartree-Fock and
  # hybrid density functional calculations, the highest accuracy can be obtained by
  # uncommenting the line beginning with "for_aux"  below, thus adding an extra g radial
  # function to the construction of the product basis set for the expansion.
  # See Ref. New J. Phys. 17, 093020 (2015) for more information, particularly Figs. 1 and 6.
  #
  ################################################################################
  #
  # for_aux hydro 5 g 6.0
  ################################################################################
  #
  #  FHI-aims code project
  # Volker Blum, Fritz Haber Institute Berlin, 2009
  #
  #  Suggested "tight" defaults for N atom (to be pasted into control.in file)
  #
  ################################################################################
    species        N
  #     global species definitions
      nucleus             7
      mass                14.0067
  #
      l_hartree           6
  #
      cut_pot             4.0  2.0  1.0
      basis_dep_cutoff    1e-4
  #
      radial_base         35 7.0
      radial_multiplier   2
      angular_grids       specified
        division   0.1841   50
        division   0.3514  110
        division   0.5126  194
        division   0.6292  302
        division   0.6939  434
  #      division   0.7396  590
  #      division   0.7632  770
  #      division   0.8122  974
  #      division   1.1604 1202
  #      outer_grid  974
        outer_grid  434
  ################################################################################
  #
  #  Definition of "minimal" basis
  #
  ################################################################################
  #     valence basis states
      valence      2  s   2.
      valence      2  p   3.
  #     ion occupancy
      ion_occ      2  s   1.
      ion_occ      2  p   2.
  ################################################################################
  #
  #  Suggested additional basis functions. For production calculations,
  #  uncomment them one after another (the most important basis functions are
  #  listed first).
  #
  #  Constructed for dimers: 1.0 A, 1.1 A, 1.5 A, 2.0 A, 3.0 A
  #
  ################################################################################
  #  "First tier" - improvements: -1193.42 meV to -220.60 meV
       hydro 2 p 1.8
       hydro 3 d 6.8
       hydro 3 s 5.8
  #  "Second tier" - improvements: -80.21 meV to -6.86 meV
       hydro 4 f 10.8
       hydro 3 p 5.8
       hydro 1 s 0.8
       hydro 5 g 16
       hydro 3 d 4.9
  #  "Third tier" - improvements: -4.29 meV to -0.53 meV
  #     hydro 3 s 16
  #     ionic 2 p auto
  #     hydro 3 d 6.6
  #     hydro 4 f 11.6
  #  "Fourth tier" - improvements: -0.75 meV to -0.25 meV
  #     hydro 2 p 4.5
  #     hydro 2 s 2.4
  #     hydro 5 g 14.4
  #     hydro 4 d 14.4
  #     hydro 4 f 16.8
  # Further basis functions - -0.21 meV and below
  #     hydro 3 p 14.8
  #     hydro 3 s 4.4
  #     hydro 3 d 19.6
  #     hydro 5 g 12.8
  ################################################################################
  #
  # For methods that use the localized form of the "resolution of identity" for
  # the two-electron Coulomb operator (RI_method LVL), particularly Hartree-Fock and
  # hybrid density functional calculations, the highest accuracy can be obtained by
  # uncommenting the line beginning with "for_aux"  below, thus adding an extra g radial
  # function to the construction of the product basis set for the expansion.
  # See Ref. New J. Phys. 17, 093020 (2015) for more information, particularly Figs. 1 and 6.
  #
  ################################################################################
  #
  # for_aux hydro 5 g 6.0
  ################################################################################
  #
  #  FHI-aims code project
  # Volker Blum, Fritz Haber Institute Berlin, 2009
  #
  #  Suggested "tight" defaults for O atom (to be pasted into control.in file)
  #
  ################################################################################
    species        O
  #     global species definitions
      nucleus             8
      mass                15.9994
  #
      l_hartree           6
  #
      cut_pot             4.0  2.0  1.0
      basis_dep_cutoff    1e-4
  #
      radial_base         36 7.0
      radial_multiplier   2
       angular_grids specified
        division   0.1817   50
        division   0.3417  110
        division   0.4949  194
        division   0.6251  302
        division   0.8014  434
  #      division   0.8507  590
  #      division   0.8762  770
  #      division   0.9023  974
  #      division   1.2339 1202
  #      outer_grid 974
        outer_grid  434
  ################################################################################
  #
  #  Definition of "minimal" basis
  #
  ################################################################################
  #     valence basis states
      valence      2  s   2.
      valence      2  p   4.
  #     ion occupancy
      ion_occ      2  s   1.
      ion_occ      2  p   3.
  ################################################################################
  #
  #  Suggested additional basis functions. For production calculations,
  #  uncomment them one after another (the most important basis functions are
  #  listed first).
  #
  #  Constructed for dimers: 1.0 A, 1.208 A, 1.5 A, 2.0 A, 3.0 A
  #
  ################################################################################
  #  "First tier" - improvements: -699.05 meV to -159.38 meV
       hydro 2 p 1.8
       hydro 3 d 7.6
       hydro 3 s 6.4
  #  "Second tier" - improvements: -49.91 meV to -5.39 meV
       hydro 4 f 11.6
       hydro 3 p 6.2
       hydro 3 d 5.6
       hydro 5 g 17.6
       hydro 1 s 0.75
  #  "Third tier" - improvements: -2.83 meV to -0.50 meV
  #     ionic 2 p auto
  #     hydro 4 f 10.8
  #     hydro 4 d 4.7
  #     hydro 2 s 6.8
  #  "Fourth tier" - improvements: -0.40 meV to -0.12 meV
  #     hydro 3 p 5
  #     hydro 3 s 3.3
  #     hydro 5 g 15.6
  #     hydro 4 f 17.6
  #     hydro 4 d 14
  # Further basis functions - -0.08 meV and below
  #     hydro 3 s 2.1
  #     hydro 4 d 11.6
  #     hydro 3 p 16
  #     hydro 2 s 17.2
  ################################################################################
  #
  # For methods that use the localized form of the "resolution of identity" for
  # the two-electron Coulomb operator (RI_method LVL), particularly Hartree-Fock and
  # hybrid density functional calculations, the highest accuracy can be obtained by
  # uncommenting the line beginning with "for_aux"  below, thus adding an extra g radial
  # function to the construction of the product basis set for the expansion.
  # See Ref. New J. Phys. 17, 093020 (2015) for more information, particularly Figs. 1 and 6.
  #
  ################################################################################
  #
  # for_aux hydro 5 g 6.0
  
  -----------------------------------------------------------------------
  Completed first pass over input file control.in .
  -----------------------------------------------------------------------
  
  
  -----------------------------------------------------------------------
  Parsing geometry.in (first pass over file, find array dimensions only).
  The contents of geometry.in will be repeated verbatim below
  unless switched off by setting 'verbatim_writeout .false.' .
  in the first line of geometry.in .
  -----------------------------------------------------------------------
  
  #
  # This is the geometry file that corresponds to the current relaxation step.
  # If you do not want this file to be written, set the "write_restart_geometry" flag to .false.
  #
  atom      -1.42851848     -0.18858931      0.16185344 C
  atom      -0.76668236     -0.42544988      1.50715356 C
  atom       0.39226500     -0.80858756      1.61289308 O
  atom      -1.01821508     -0.89521457     -0.56641400 H
  atom      -1.17654779      0.82850447     -0.17054493 H
  atom      -2.52166309     -0.28402229      0.19106772 H
  atom      -1.58148090     -0.18566797      2.59568879 N
  atom      -1.05086851     -0.03987788      3.94457260 C
  atom      -0.24463209      1.29358689      4.02898609 C
  atom      -0.20477229      2.06678042      3.07793440 O
  atom      -2.42400623      0.34242633      2.39749681 H
  atom      -1.93033038      0.10455050      4.59359683 H
  atom      -0.32754628     -1.31422027      4.42135476 C
  atom      -0.39558391     -1.42913773      5.50872545 H
  atom       0.71939717     -1.33190556      4.10456115 H
  atom      -0.82352142     -2.18222127      3.97188934 H
  atom       0.36559074      1.64893527      5.21314024 N
  atom       0.43325972      0.98708984      6.51233980 C
  atom      -0.91951811      0.87629316      7.25255418 C
  atom      -1.08728200      0.01323007      8.11038637 O
  atom       0.87325396      2.52572705      5.11850386 H
  atom       0.78691191     -0.04535377      6.40316599 H
  atom       1.42795063      1.73749874      7.40449002 C
  atom       1.47718180      1.25736180      8.38796515 H
  atom       1.11942897      2.78341970      7.54726638 H
  atom       2.43118017      1.72235258      6.95860357 H
  atom      -1.85167111      1.80691383      6.90785287 N
  atom      -3.15429341      1.88795065      7.53895080 C
  atom      -1.60527052      2.46181717      6.17312225 H
  atom      -3.28342416      2.84303497      8.06740420 H
  atom      -3.22214848      1.06940442      8.26385672 H
  atom      -3.96132747      1.78103522      6.80058752 H
  
  -----------------------------------------------------------------------
  Completed first pass over input file geometry.in .
  -----------------------------------------------------------------------
  

  Basic array size parameters:
  | Number of species                 :        4
  | Number of atoms                   :       32
  | Max. basis fn. angular momentum   :        4
  | Max. atomic/ionic basis occupied n:        2
  | Max. number of basis fn. types    :        2
  | Max. radial fns per species/type  :        8
  | Max. logarithmic grid size        :     1301
  | Max. radial integration grid size :       73
  | Max. angular integration grid size:      434
  | Max. angular grid division number :        8
  | Radial grid for Hartree potential :     1301
  | Number of spin channels           :        1

------------------------------------------------------------
          Reading file control.in.
------------------------------------------------------------
  XC: Using PBE gradient-corrected functionals.
  Spin treatment: No spin polarisation.
  Charge =   0.000000E+00: Neutral system requested explicitly.
  Occupation type: Gaussian broadening, width =   0.500000E-01 eV.
  Using pulay charge density mixing.
  Pulay mixing - number of memorized iterations:   10
  Charge density mixing - mixing parameter:     0.5000
  Convergence accuracy of self-consistent charge density:  0.1000E-03
  Convergence accuracy of sum of eigenvalues:  0.1000E-01
  Convergence accuracy of total energy:  0.1000E-04
  Convergence accuracy of forces:  0.1000E-03
  Maximum number of s.-c. iterations  :  1000
  Fitting ESP-charges to Potential. 
  | Esp charge output options: 
  | ESP Grid method: 3, cubic grid
  | Number of points in x, ,y, z:  0080 0080 0080
  |
 
  Reading configuration options for species H                   .
  | Found nuclear charge :   1.0000
  | Found atomic mass :    1.00794000000000      amu
  | Found l_max for Hartree potential  :   6
  | Found cutoff potl. onset [A], width [A], scale factor :    4.00000    2.00000    1.00000
  | Threshold for basis-dependent cutoff potential is   0.100000E-03
  | Found data for basic radial integration grid :    24 points, outermost radius =    7.000 A
  | Found multiplier for basic radial grid :   2
  | Found angular grid specification: user-specified.
  | Specified grid contains     6 separate shells.
  | Check grid settings after all constraints further below.
  | Found free-atom valence shell :  1 s   1.000
  | No ionic wave fns used. Skipping ion_occ.
  | Found hydrogenic basis function :  2 s   2.100
  | Found hydrogenic basis function :  2 p   3.500
  | Found hydrogenic basis function :  1 s   0.850
  | Found hydrogenic basis function :  2 p   3.700
  | Found hydrogenic basis function :  2 s   1.200
  | Found hydrogenic basis function :  3 d   7.000
  Species H                   : Missing cutoff potential type.
  Defaulting to exp(1/x)/(1-x)^2 type cutoff potential.
  Species H : No 'logarithmic' tag. Using default grid for free atom:
  | Default logarithmic grid data [bohr] : 0.1000E-03 0.1000E+03 0.1012E+01
  Species H : On-site basis accuracy parameter (for Gram-Schmidt orthonormalisation) not specified.
  Using default value basis_acc =  0.1000000E-03.
  Species H                   : Using default innermost maximum threshold i_radial=  2 for radial functions.
  Species H                   : Default cutoff onset for free atom density etc. : 0.40000000E+01 AA.
  Species H                   : Basic radial grid will be enhanced according to radial_multiplier =   2, to contain    49 grid points.
 
  Reading configuration options for species C                   .
  | Found nuclear charge :   6.0000
  | Found atomic mass :    12.0107000000000      amu
  | Found l_max for Hartree potential  :   6
  | Found cutoff potl. onset [A], width [A], scale factor :    4.00000    2.00000    1.00000
  | Threshold for basis-dependent cutoff potential is   0.100000E-03
  | Found data for basic radial integration grid :    34 points, outermost radius =    7.000 A
  | Found multiplier for basic radial grid :   2
  | Found angular grid specification: user-specified.
  | Specified grid contains     6 separate shells.
  | Check grid settings after all constraints further below.
  | Found free-atom valence shell :  2 s   2.000
  | Found free-atom valence shell :  2 p   2.000
  | No ionic wave fns used. Skipping ion_occ.
  | No ionic wave fns used. Skipping ion_occ.
  | Found hydrogenic basis function :  2 p   1.700
  | Found hydrogenic basis function :  3 d   6.000
  | Found hydrogenic basis function :  2 s   4.900
  | Found hydrogenic basis function :  4 f   9.800
  | Found hydrogenic basis function :  3 p   5.200
  | Found hydrogenic basis function :  3 s   4.300
  | Found hydrogenic basis function :  5 g  14.400
  | Found hydrogenic basis function :  3 d   6.200
  Species C                   : Missing cutoff potential type.
  Defaulting to exp(1/x)/(1-x)^2 type cutoff potential.
  Species C : No 'logarithmic' tag. Using default grid for free atom:
  | Default logarithmic grid data [bohr] : 0.1000E-03 0.1000E+03 0.1012E+01
  Species C : On-site basis accuracy parameter (for Gram-Schmidt orthonormalisation) not specified.
  Using default value basis_acc =  0.1000000E-03.
  Species C                   : Using default innermost maximum threshold i_radial=  2 for radial functions.
  Species C                   : Default cutoff onset for free atom density etc. : 0.40000000E+01 AA.
  Species C                   : Basic radial grid will be enhanced according to radial_multiplier =   2, to contain    69 grid points.
 
  Reading configuration options for species N                   .
  | Found nuclear charge :   7.0000
  | Found atomic mass :    14.0067000000000      amu
  | Found l_max for Hartree potential  :   6
  | Found cutoff potl. onset [A], width [A], scale factor :    4.00000    2.00000    1.00000
  | Threshold for basis-dependent cutoff potential is   0.100000E-03
  | Found data for basic radial integration grid :    35 points, outermost radius =    7.000 A
  | Found multiplier for basic radial grid :   2
  | Found angular grid specification: user-specified.
  | Specified grid contains     6 separate shells.
  | Check grid settings after all constraints further below.
  | Found free-atom valence shell :  2 s   2.000
  | Found free-atom valence shell :  2 p   3.000
  | No ionic wave fns used. Skipping ion_occ.
  | No ionic wave fns used. Skipping ion_occ.
  | Found hydrogenic basis function :  2 p   1.800
  | Found hydrogenic basis function :  3 d   6.800
  | Found hydrogenic basis function :  3 s   5.800
  | Found hydrogenic basis function :  4 f  10.800
  | Found hydrogenic basis function :  3 p   5.800
  | Found hydrogenic basis function :  1 s   0.800
  | Found hydrogenic basis function :  5 g  16.000
  | Found hydrogenic basis function :  3 d   4.900
  Species N                   : Missing cutoff potential type.
  Defaulting to exp(1/x)/(1-x)^2 type cutoff potential.
  Species N : No 'logarithmic' tag. Using default grid for free atom:
  | Default logarithmic grid data [bohr] : 0.1000E-03 0.1000E+03 0.1012E+01
  Species N : On-site basis accuracy parameter (for Gram-Schmidt orthonormalisation) not specified.
  Using default value basis_acc =  0.1000000E-03.
  Species N                   : Using default innermost maximum threshold i_radial=  2 for radial functions.
  Species N                   : Default cutoff onset for free atom density etc. : 0.40000000E+01 AA.
  Species N                   : Basic radial grid will be enhanced according to radial_multiplier =   2, to contain    71 grid points.
 
  Reading configuration options for species O                   .
  | Found nuclear charge :   8.0000
  | Found atomic mass :    15.9994000000000      amu
  | Found l_max for Hartree potential  :   6
  | Found cutoff potl. onset [A], width [A], scale factor :    4.00000    2.00000    1.00000
  | Threshold for basis-dependent cutoff potential is   0.100000E-03
  | Found data for basic radial integration grid :    36 points, outermost radius =    7.000 A
  | Found multiplier for basic radial grid :   2
  | Found angular grid specification: user-specified.
  | Specified grid contains     6 separate shells.
  | Check grid settings after all constraints further below.
  | Found free-atom valence shell :  2 s   2.000
  | Found free-atom valence shell :  2 p   4.000
  | No ionic wave fns used. Skipping ion_occ.
  | No ionic wave fns used. Skipping ion_occ.
  | Found hydrogenic basis function :  2 p   1.800
  | Found hydrogenic basis function :  3 d   7.600
  | Found hydrogenic basis function :  3 s   6.400
  | Found hydrogenic basis function :  4 f  11.600
  | Found hydrogenic basis function :  3 p   6.200
  | Found hydrogenic basis function :  3 d   5.600
  | Found hydrogenic basis function :  5 g  17.600
  | Found hydrogenic basis function :  1 s   0.750
  Species O                   : Missing cutoff potential type.
  Defaulting to exp(1/x)/(1-x)^2 type cutoff potential.
  Species O : No 'logarithmic' tag. Using default grid for free atom:
  | Default logarithmic grid data [bohr] : 0.1000E-03 0.1000E+03 0.1012E+01
  Species O : On-site basis accuracy parameter (for Gram-Schmidt orthonormalisation) not specified.
  Using default value basis_acc =  0.1000000E-03.
  Species O                   : Using default innermost maximum threshold i_radial=  2 for radial functions.
  Species O                   : Default cutoff onset for free atom density etc. : 0.40000000E+01 AA.
  Species O                   : Basic radial grid will be enhanced according to radial_multiplier =   2, to contain    73 grid points.
 
  Finished reading input file 'control.in'. Consistency checks are next.
 
  Target number of points in a grid batch is not set. Defaulting to  100
  Method for grid partitioning is not set. Defaulting to parallel hash+maxmin partitioning.
  Batch size limit is not set. Defaulting to    200
  By default, will store active basis functions for each batch.
  If in need of memory, prune_basis_once .false. can be used to disable this option.
  communication_type for Hartree potential was not specified.
  Defaulting to calc_hartree .
  Pulay mixer: Number of initial linear mixing iterations not set.
  Defaulting to    0 iterations.
  Work space size for distributed Hartree potential not set.
  Defaulting to   0.200000E+03 MB.
  Algorithm-dependent basis array size parameters:
  | n_max_pulay                         :       10
  Geometry relaxation not requested: no relaxation will be performed.
  Handling of forces: Unphysical translation and rotation will be removed from forces.
  No accuracy limit for integral partition fn. given. Defaulting to  0.1000E-14.
  No threshold value for u(r) in integrations given. Defaulting to  0.1000E-05.
  No accuracy for occupation numbers given. Defaulting to  0.1000E-07.
  No threshold value for occupation numbers given. Defaulting to  0.0000E+00.
  No accuracy for fermi level given. Defaulting to  0.1000E-19.
  Maximum # of iterations to find E_F not set. Defaulting to  200.
  Preferred method for the eigenvalue solver ('KS_method') not specified in 'control.in'.
  Calling blacs routine to test compilation state
  Since scalapack support is enabled, defaulting to 'elpa'.
  Preferred method for the MBD eigenvalue solver ('mbd_eigensolver') not specified in 'control.in'.
  Calling blacs routine to test compilation state
  Since scalapack support is enabled, defaulting to 'scaLAPACK'.
  Will not use alltoall communication since running on < 1024 CPUs.
  Threshold for basis singularities not set.
  Default threshold for basis singularities:  0.1000E-04
  partition_type (choice of integration weights) for integrals was not specified.
  | Using a version of the partition function of Stratmann and coworkers ('stratmann_smoother').
  | At each grid point, the set of atoms used to build the partition table is smoothly restricted to
  | only those atoms whose free-atom density would be non-zero at that grid point.
  Partitioning for Hartree potential was not defined. Using partition_type for integrals.
  | Adjusted default value of keyword multip_moments_threshold to:       0.10000000E-11
  | This value may affect high angular momentum components of the Hartree potential in periodic systems.
  No q(lm)/r^(l+1) cutoff set for long-range Hartree potential.
  | Using default value of  0.100000E-09 .
  | Verify using the multipole_threshold keyword.
  Defaulting to new monopole extrapolation.
  Density update method: automatic selection selected.
------------------------------------------------------------


------------------------------------------------------------
          Reading geometry description geometry.in.
------------------------------------------------------------
 * Warning! You did not set the 'relativistic' flag in input file 'control.in'.
 * Since you are not attempting to treat any elements beyond Ca(Z=20), FHI-aims
 * will default to 'relativistic none'.
 * You must ensure that this is really what you want!!
 * For example, DO NOT compute total-energy differences between results from
 * different settings of the 'relativistic' flag.
  Input structure read successfully.
  The structure contains       32 atoms,  and a total of        116.000 electrons.

  Input geometry:
  | No unit cell requested.
  | Atomic structure:
  |       Atom                x [A]            y [A]            z [A]
  |    1: Species C             -1.428518        -0.188589         0.161853
  |    2: Species C             -0.766682        -0.425450         1.507154
  |    3: Species O              0.392265        -0.808588         1.612893
  |    4: Species H             -1.018215        -0.895215        -0.566414
  |    5: Species H             -1.176548         0.828504        -0.170545
  |    6: Species H             -2.521663        -0.284022         0.191068
  |    7: Species N             -1.581481        -0.185668         2.595689
  |    8: Species C             -1.050869        -0.039878         3.944573
  |    9: Species C             -0.244632         1.293587         4.028986
  |   10: Species O             -0.204772         2.066780         3.077934
  |   11: Species H             -2.424006         0.342426         2.397497
  |   12: Species H             -1.930330         0.104551         4.593597
  |   13: Species C             -0.327546        -1.314220         4.421355
  |   14: Species H             -0.395584        -1.429138         5.508725
  |   15: Species H              0.719397        -1.331906         4.104561
  |   16: Species H             -0.823521        -2.182221         3.971889
  |   17: Species N              0.365591         1.648935         5.213140
  |   18: Species C              0.433260         0.987090         6.512340
  |   19: Species C             -0.919518         0.876293         7.252554
  |   20: Species O             -1.087282         0.013230         8.110386
  |   21: Species H              0.873254         2.525727         5.118504
  |   22: Species H              0.786912        -0.045354         6.403166
  |   23: Species C              1.427951         1.737499         7.404490
  |   24: Species H              1.477182         1.257362         8.387965
  |   25: Species H              1.119429         2.783420         7.547266
  |   26: Species H              2.431180         1.722353         6.958604
  |   27: Species N             -1.851671         1.806914         6.907853
  |   28: Species C             -3.154293         1.887951         7.538951
  |   29: Species H             -1.605271         2.461817         6.173122
  |   30: Species H             -3.283424         2.843035         8.067404
  |   31: Species H             -3.222148         1.069404         8.263857
  |   32: Species H             -3.961327         1.781035         6.800588
  |

  | The smallest distance between any two atoms is         1.01390955 AA.
  |
  | The first atom of this pair is atom number                      7 .
  | The second atom of this pair is atom number                    11 .

  Number of empty states per atom not set in control.in - providing a guess from actual geometry.
  | Total number of empty states used during s.c.f. cycle:       71
  If you use a very high smearing, use empty_states (per atom!) in control.in to increase this value.

  Structure-dependent array size parameters: 
  | Maximum number of distinct radial functions  :       40
  | Maximum number of basis functions            :      840
  | Number of Kohn-Sham states (occupied + empty):      129
------------------------------------------------------------

------------------------------------------------------------
          Preparing all fixed parts of the calculation.
------------------------------------------------------------
  Determining machine precision:
    2.225073858507201E-308
  Setting up grids for atomic and cluster calculations.

  Creating wave function, potential, and density for free atoms.

  Species: H

  List of occupied orbitals and eigenvalues:
    n    l              occ      energy [Ha]    energy [eV]
    1    0           1.0000        -0.238382        -6.4867


  Species: C

  List of occupied orbitals and eigenvalues:
    n    l              occ      energy [Ha]    energy [eV]
    1    0           2.0000       -10.041232      -273.2358
    2    0           2.0000        -0.504327       -13.7234
    2    1           2.0000        -0.193750        -5.2722


  Species: N

  List of occupied orbitals and eigenvalues:
    n    l              occ      energy [Ha]    energy [eV]
    1    0           2.0000       -14.129007      -384.4699
    2    0           2.0000        -0.681802       -18.5528
    2    1           3.0000        -0.260543        -7.0897


  Species: O

  List of occupied orbitals and eigenvalues:
    n    l              occ      energy [Ha]    energy [eV]
    1    0           2.0000       -18.898576      -514.2564
    2    0           2.0000        -0.878795       -23.9132
    2    1           4.0000        -0.332075        -9.0362

  Creating fixed part of basis set: Ionic, confined, hydrogenic.
 
  H                    hydrogenic:
 
  List of hydrogenic basis orbitals: 
    n    l      effective z      eigenvalue [eV]  inner max. [A]     outer max. [A]     outer radius [A]   
    2    0         2.100000       -14.9965           0.193243           1.317208           5.373006
    2    1         3.500000       -41.6672           0.602369           0.602369           4.056063
    1    0         0.850000        -9.8292           0.624871           0.624871           5.373006
    2    1         3.700000       -46.5653           0.573622           0.573622           3.910002
    2    0         1.200000        -4.5995           0.334980           2.228188           5.505995
    3    2         7.000000       -74.0753           0.680699           0.680699           3.769201
 
 
  C                    hydrogenic:
 
  List of hydrogenic basis orbitals: 
    n    l      effective z      eigenvalue [eV]  inner max. [A]     outer max. [A]     outer radius [A]   
    2    1         1.700000        -9.8152           1.245706           1.245706           5.401630
    3    2         6.000000       -54.4226           0.792453           0.792453           4.178599
    2    0         4.900000       -81.6681           0.082559           0.562749           3.353238
    4    3         9.800000       -81.6681           0.863254           0.863254           4.028125
    3    1         5.200000       -40.8774           0.305389           1.215618           4.898362
    3    0         4.300000       -27.9508           0.091041           1.610311           5.401630
    5    4        14.400000      -112.8510           0.917666           0.917666           3.883070
    3    2         6.200000       -58.1113           0.763917           0.763917           4.077671
 
 
  N                    hydrogenic:
 
  List of hydrogenic basis orbitals: 
    n    l      effective z      eigenvalue [eV]  inner max. [A]     outer max. [A]     outer radius [A]   
    2    1         1.800000       -11.0118           1.177451           1.177451           5.427479
    3    2         6.800000       -69.9029           0.704619           0.704619           3.854246
    3    0         5.800000       -50.8549           0.067388           1.191934           4.629968
    4    3        10.800000       -99.1854           0.786571           0.786571           3.761152
    3    1         5.800000       -50.8549           0.274880           1.094176           4.518138
    1    0         0.800000        -8.7059           0.662839           0.662839           5.361532
    5    4        16.000000      -139.3222           0.825990           0.825990           3.625711
    3    2         4.900000       -36.2967           0.968267           0.968267           4.862000
 
 
  O                    hydrogenic:
 
  List of hydrogenic basis orbitals: 
    n    l      effective z      eigenvalue [eV]  inner max. [A]     outer max. [A]     outer radius [A]   
    2    1         1.800000       -11.0118           1.178562           1.178562           5.432602
    3    2         7.600000       -87.3182           0.624125           0.624125           3.541477
    3    0         6.400000       -61.9209           0.061167           1.081902           4.306578
    4    3        11.600000      -114.4238           0.731631           0.731631           3.585037
    3    1         6.200000       -58.1113           0.255680           1.030270           4.306578
    3    2         5.600000       -47.4081           0.847233           0.847233           4.413171
    5    4        17.600000      -168.5799           0.749740           0.749740           3.372465
    1    0         0.750000        -7.6499           0.705284           0.705284           5.366593
 

  Adding cutoff potential to free-atom effective potential.
  Creating atomic-like basis functions for current effective potential.

  Species H                   :

  List of atomic basis orbitals and eigenvalues:
    n    l      energy [Ha]    energy [eV]    outer radius [A]
    1    0        -0.238382        -6.4867       5.373006


  Species C                   :

  List of atomic basis orbitals and eigenvalues:
    n    l      energy [Ha]    energy [eV]    outer radius [A]
    1    0       -10.041232      -273.2358       1.934409
    2    0        -0.504327       -13.7234       5.271162
    2    1        -0.193750        -5.2722       5.401630


  Species N                   :

  List of atomic basis orbitals and eigenvalues:
    n    l      energy [Ha]    energy [eV]    outer radius [A]
    1    0       -14.129007      -384.4699       1.637919
    2    0        -0.681802       -18.5528       5.168461
    2    1        -0.260543        -7.0897       5.361532


  Species O                   :

  List of atomic basis orbitals and eigenvalues:
    n    l      energy [Ha]    energy [eV]    outer radius [A]
    1    0       -18.898576      -514.2564       1.415765
    2    0        -0.878795       -23.9132       5.048385
    2    1        -0.332075        -9.0362       5.301386

  Assembling full basis from fixed parts.
  | Species H :   atomic orbital   1 s accepted.
  | Species H :    hydro orbital   2 s accepted.
  | Species H :    hydro orbital   1 s accepted.
  | Species H :    hydro orbital   2 s accepted.
  | Species H :    hydro orbital   2 p accepted.
  | Species H :    hydro orbital   2 p accepted.
  | Species H :    hydro orbital   3 d accepted.
  | Species C :   atomic orbital   1 s accepted.
  | Species C :    hydro orbital   2 s accepted.
  | Species C :   atomic orbital   2 s accepted.
  | Species C :    hydro orbital   3 s accepted.
  | Species C :    hydro orbital   3 p accepted.
  | Species C :   atomic orbital   2 p accepted.
  | Species C :    hydro orbital   2 p accepted.
  | Species C :    hydro orbital   3 d accepted.
  | Species C :    hydro orbital   3 d accepted.
  | Species C :    hydro orbital   4 f accepted.
  | Species C :    hydro orbital   5 g accepted.
  | Species N :   atomic orbital   1 s accepted.
  | Species N :    hydro orbital   3 s accepted.
  | Species N :   atomic orbital   2 s accepted.
  | Species N :    hydro orbital   1 s accepted.
  | Species N :    hydro orbital   3 p accepted.
  | Species N :   atomic orbital   2 p accepted.
  | Species N :    hydro orbital   2 p accepted.
  | Species N :    hydro orbital   3 d accepted.
  | Species N :    hydro orbital   3 d accepted.
  | Species N :    hydro orbital   4 f accepted.
  | Species N :    hydro orbital   5 g accepted.
  | Species O :   atomic orbital   1 s accepted.
  | Species O :    hydro orbital   3 s accepted.
  | Species O :   atomic orbital   2 s accepted.
  | Species O :    hydro orbital   1 s accepted.
  | Species O :    hydro orbital   3 p accepted.
  | Species O :   atomic orbital   2 p accepted.
  | Species O :    hydro orbital   2 p accepted.
  | Species O :    hydro orbital   3 d accepted.
  | Species O :    hydro orbital   3 d accepted.
  | Species O :    hydro orbital   4 f accepted.
  | Species O :    hydro orbital   5 g accepted.
 
  Basis size parameters after reduction:
  | Total number of radial functions:       40
  | Total number of basis functions :      840
 
  Testing on-site integration grid accuracy.
  |  Species  Function  <phi|h_atom|phi> (log., in eV)  <phi|h_atom|phi> (rad., in eV)
           1        1                 -6.4869821809                 -6.4870742227
           1        2                 13.5044133542                 13.5041049177
           1        3                 32.7854418792                 32.7779770519
           1        4                 33.7995553101                 33.7152624900 ***
           1        5                 28.8558651799                 28.8558652046
           1        6                 59.6361831893                 59.6362535845
           1        7                 60.2733718049                 60.2733715484
           2        8               -273.2358277112               -273.2358261765
           2        9                -10.7624923123                -10.7625144012
           2       10                 17.4634079027                 17.4634252127
           2       11                 53.0363661832                 53.0366180446
           2       12                 15.0981351967                 15.0981317714
           2       13                  3.8522181899                  3.8522770949
           2       14                 12.1181835661                 12.1206868578
           2       15                 29.4320778347                 29.4320780959
           2       16                 54.8753777694                 54.8752901936
           2       17                 59.3533975461                 59.3533974833
           2       18                 93.4537491195                 93.4537492066
           3       19               -384.4698526889               -384.4698499465
           3       20                 12.5691022037                 12.5690910168
           3       21                -15.7489097511                -15.7489165588
           3       22                 27.0978334940                 27.0985589490
           3       23                 18.5949116966                 18.5949125562
           3       24                  1.2212828291                  1.2212855301
           3       25                 13.4428926797                 13.4434051125
           3       26                 35.9380614500                 35.9380613666
           3       27                 39.9231532098                 39.9231654735
           3       28                 72.9957335806                 72.9957336833
           3       29                116.4231321147                116.4231321431
           4       30               -514.2564144315               -514.2564099626
           4       31                 15.1726678541                 15.1726530877
           4       32                -21.5447785304                -21.5447874973
           4       33                 14.4944558459                 14.4944698284
           4       34                 20.8882174564                 20.8882178906
           4       35                 -2.4850315908                 -2.4850322289
           4       36                 13.8600193195                 13.8599826966
           4       37                 45.8243383616                 45.8243383675
           4       38                 52.1840606465                 52.1840622440
           4       39                 85.4074185510                 85.4074185819
           4       40                142.0983717302                142.0983717339
 * Note: Onsite integrals marked "***" above are less accurate than
 * onsite_accuracy_threshold =    0.03000 eV. Usually, this is harmless.
 * When in doubt, tighten the "radial" and/or "radial_multiplier" flags to check.

  Preparing densities etc. for the partition functions (integrals / Hartree potential).

  Preparations completed.
  max(cpu_time)          :      0.236 s.
  Wall clock time (cpu1) :      0.233 s.
------------------------------------------------------------

------------------------------------------------------------
          Begin self-consistency loop: Initialization.

          Date     :  20170309, Time     :  180656.360
------------------------------------------------------------

  Initializing index lists of integration centers etc. from given atomic structure:
  | Number of centers in hartree potential         :        32
  | Number of centers in hartree multipole         :        32
  | Number of centers in electron density summation:        32
  | Number of centers in basis integrals           :        32
  | Number of centers in integrals                 :        32
  | Number of centers in hamiltonian               :        32
  Using modified Scalapack Eigenvalue solver (ELPA)
  * Using 32 tasks for Scalapack Eigenvalue solver.
  Detailed listing of tasks and assigned k-points:
  (for non-periodic systems, the "k-point" denotes an internal label only)
   Task     0 k-point     1 on eos026
   Task     1 k-point     1 on eos026
   Task     2 k-point     1 on eos026
   Task     3 k-point     1 on eos026
   Task     4 k-point     1 on eos026
   Task     5 k-point     1 on eos026
   Task     6 k-point     1 on eos026
   Task     7 k-point     1 on eos026
   Task     8 k-point     1 on eos026
   Task     9 k-point     1 on eos026
   Task    10 k-point     1 on eos026
   Task    11 k-point     1 on eos026
   Task    12 k-point     1 on eos026
   Task    13 k-point     1 on eos026
   Task    14 k-point     1 on eos026
   Task    15 k-point     1 on eos026
   Task    16 k-point     1 on eos026
   Task    17 k-point     1 on eos026
   Task    18 k-point     1 on eos026
   Task    19 k-point     1 on eos026
   Task    20 k-point     1 on eos026
   Task    21 k-point     1 on eos026
   Task    22 k-point     1 on eos026
   Task    23 k-point     1 on eos026
   Task    24 k-point     1 on eos026
   Task    25 k-point     1 on eos026
   Task    26 k-point     1 on eos026
   Task    27 k-point     1 on eos026
   Task    28 k-point     1 on eos026
   Task    29 k-point     1 on eos026
   Task    30 k-point     1 on eos026
   Task    31 k-point     1 on eos026
  Tasks:    32 split into      8 X      4 BLACS grid
  Calculating blocksize based on n_basis =          840 max_nprow =            8 max_npcol =            4
  Scalapack blocksize set to:           16
  Required Scalapack workspace - INTEGER:            1 REAL:             1
  Partitioning the integration grid into batches with parallel hashing+maxmin method.
  | Number of batches:     4866
  | Maximal batch size:     200
  | Minimal batch size:      25
  | Average batch size:     108.452
  | Standard deviation of batch sizes:      32.644

  Integration load balanced across    32 MPI tasks.
  Work distribution over tasks is as follows:
  Task     0 has      16428 integration points.
  Task     1 has      16476 integration points.
  Task     2 has      16495 integration points.
  Task     3 has      16551 integration points.
  Task     4 has      16502 integration points.
  Task     5 has      16506 integration points.
  Task     6 has      16500 integration points.
  Task     7 has      16491 integration points.
  Task     8 has      16494 integration points.
  Task     9 has      16509 integration points.
  Task    10 has      16499 integration points.
  Task    11 has      16510 integration points.
  Task    12 has      16430 integration points.
  Task    13 has      16494 integration points.
  Task    14 has      16467 integration points.
  Task    15 has      16494 integration points.
  Task    16 has      16504 integration points.
  Task    17 has      16430 integration points.
  Task    18 has      16468 integration points.
  Task    19 has      16506 integration points.
  Task    20 has      16499 integration points.
  Task    21 has      16547 integration points.
  Task    22 has      16433 integration points.
  Task    23 has      16547 integration points.
  Task    24 has      16497 integration points.
  Task    25 has      16538 integration points.
  Task    26 has      16543 integration points.
  Task    27 has      16486 integration points.
  Task    28 has      16441 integration points.
  Task    29 has      16483 integration points.
  Task    30 has      16473 integration points.
  Task    31 has      16487 integration points.
  Initializing partition tables, free-atom densities, potentials, etc. across the integration grid (initialize_grid_storage).
  | initialize_grid_storage: Actual outermost partition radius vs. multipole_radius_free
  | (-- VB: in principle, multipole_radius_free should be larger, hence this output)
  | Species        1: Confinement radius =              6.000000000000000 AA, multipole_radius_free =              6.071692442739658 AA.
  | Species        1: outer_partition_radius set to              6.071692442739658 AA .
  | Species        2: Confinement radius =              6.000000000000000 AA, multipole_radius_free =              6.029870734432609 AA.
  | Species        2: outer_partition_radius set to              6.029870734432609 AA .
  | Species        3: Confinement radius =              6.000000000000000 AA, multipole_radius_free =              6.058726835495003 AA.
  | Species        3: outer_partition_radius set to              6.058726835495003 AA .
  | Species        4: Confinement radius =              6.000000000000000 AA, multipole_radius_free =              6.064445521808699 AA.
  | Species        4: outer_partition_radius set to              6.064445521808699 AA .
  | Original list of interatomic distances with          32 x         32 entries is created.
  | Net number of integration points:   527728
  | of which are non-zero points    :   414336
  Obtaining max. number of non-zero basis functions in each batch (get_n_compute_maxes).
  | Maximal number of non-zero basis functions:      747 in task     0
  | Maximal number of non-zero basis functions:      743 in task     1
  | Maximal number of non-zero basis functions:      745 in task     2
  | Maximal number of non-zero basis functions:      742 in task     3
  | Maximal number of non-zero basis functions:      743 in task     4
  | Maximal number of non-zero basis functions:      745 in task     5
  | Maximal number of non-zero basis functions:      752 in task     6
  | Maximal number of non-zero basis functions:      737 in task     7
  | Maximal number of non-zero basis functions:      737 in task     8
  | Maximal number of non-zero basis functions:      742 in task     9
  | Maximal number of non-zero basis functions:      752 in task    10
  | Maximal number of non-zero basis functions:      745 in task    11
  | Maximal number of non-zero basis functions:      745 in task    12
  | Maximal number of non-zero basis functions:      731 in task    13
  | Maximal number of non-zero basis functions:      746 in task    14
  | Maximal number of non-zero basis functions:      742 in task    15
  | Maximal number of non-zero basis functions:      745 in task    16
  | Maximal number of non-zero basis functions:      732 in task    17
  | Maximal number of non-zero basis functions:      728 in task    18
  | Maximal number of non-zero basis functions:      732 in task    19
  | Maximal number of non-zero basis functions:      734 in task    20
  | Maximal number of non-zero basis functions:      737 in task    21
  | Maximal number of non-zero basis functions:      746 in task    22
  | Maximal number of non-zero basis functions:      757 in task    23
  | Maximal number of non-zero basis functions:      719 in task    24
  | Maximal number of non-zero basis functions:      734 in task    25
  | Maximal number of non-zero basis functions:      726 in task    26
  | Maximal number of non-zero basis functions:      742 in task    27
  | Maximal number of non-zero basis functions:      754 in task    28
  | Maximal number of non-zero basis functions:      752 in task    29
  | Maximal number of non-zero basis functions:      740 in task    30
  | Maximal number of non-zero basis functions:      739 in task    31
  Selecting the method for density update.
  Loop over occupied states selected for charge density update.
  Integrating Hamiltonian matrix: batch-based integration.
  Time summed over all CPUs for integration: real work       20.966 s, elapsed       22.210 s
  Integrating overlap matrix.
  Time summed over all CPUs for integration: real work       12.574 s, elapsed       13.078 s
  Deallocating overlap matrix.

  Updating Kohn-Sham eigenvalues, eigenvectors, occupation numbers, and Fermi level.
  Solving generalized eigenproblem
  Solving real symmetric generalised eigenvalue problem by standard ScaLAPACK.
  Transforming overlap matrix with ScaLAPACK and checking for singularities.
  : Overlap matrix is nonsingular, using Cholesky decomposition
  | Lowest eigenvalue:  0.910687E-04
  Factoring overlap matrix with Cholesky decomposition
  Using Cholesky factor for transformation
  Using 1-stage real ELPA solver
  Determining occupation numbers for Kohn-Sham eigenstates.
  | Chemical potential (Fermi level) in eV                 : -.96570123E+01
  | Error in electron count due to remaining E_F inaccuracy: 0.00000000E+00
  | Maximum occupation number of highest empty state:  0.00E+00

  Writing Kohn-Sham eigenvalues.

  State    Occupation    Eigenvalue [Ha]    Eigenvalue [eV]
      1       2.00000         -18.975203         -516.34153
      2       2.00000         -18.974810         -516.33084
      3       2.00000         -18.974388         -516.31937
      4       2.00000         -14.256444         -387.93758
      5       2.00000         -14.252982         -387.84337
      6       2.00000         -14.252272         -387.82405
      7       2.00000         -10.171007         -276.76718
      8       2.00000         -10.170957         -276.76581
      9       2.00000         -10.170871         -276.76348
     10       2.00000         -10.166786         -276.65232
     11       2.00000         -10.148798         -276.16284
     12       2.00000         -10.146214         -276.09253
     13       2.00000         -10.135724         -275.80708
     14       2.00000         -10.135013         -275.78772
     15       2.00000         -10.131551         -275.69353
     16       2.00000          -1.136824          -30.93455
     17       2.00000          -1.131870          -30.79974
     18       2.00000          -1.129287          -30.72946
     19       2.00000          -1.021064          -27.78457
     20       2.00000          -1.013623          -27.58208
     21       2.00000          -1.003192          -27.29824
     22       2.00000          -0.885887          -24.10621
     23       2.00000          -0.877013          -23.86473
     24       2.00000          -0.840495          -22.87104
     25       2.00000          -0.820763          -22.33410
     26       2.00000          -0.769732          -20.94546
     27       2.00000          -0.757534          -20.61356
     28       2.00000          -0.705171          -19.18868
     29       2.00000          -0.686230          -18.67326
     30       2.00000          -0.669043          -18.20558
     31       2.00000          -0.643290          -17.50482
     32       2.00000          -0.626757          -17.05493
     33       2.00000          -0.617370          -16.79948
     34       2.00000          -0.599312          -16.30811
     35       2.00000          -0.589129          -16.03101
     36       2.00000          -0.577522          -15.71516
     37       2.00000          -0.569432          -15.49502
     38       2.00000          -0.563846          -15.34302
     39       2.00000          -0.557763          -15.17750
     40       2.00000          -0.554771          -15.09609
     41       2.00000          -0.549394          -14.94977
     42       2.00000          -0.535670          -14.57633
     43       2.00000          -0.535122          -14.56141
     44       2.00000          -0.528617          -14.38439
     45       2.00000          -0.522677          -14.22276
     46       2.00000          -0.515643          -14.03135
     47       2.00000          -0.511938          -13.93054
     48       2.00000          -0.507634          -13.81342
     49       2.00000          -0.495941          -13.49523
     50       2.00000          -0.482812          -13.13799
     51       2.00000          -0.476851          -12.97578
     52       2.00000          -0.475494          -12.93886
     53       2.00000          -0.414006          -11.26567
     54       2.00000          -0.406003          -11.04791
     55       2.00000          -0.402883          -10.96299
     56       2.00000          -0.387586          -10.54674
     57       2.00000          -0.386244          -10.51023
     58       2.00000          -0.376618          -10.24830
     59       0.00000          -0.162886           -4.43235
     60       0.00000          -0.159478           -4.33963
     61       0.00000          -0.157193           -4.27745
     62       0.00000          -0.082082           -2.23355
     63       0.00000          -0.068454           -1.86274
     64       0.00000          -0.054880           -1.49336
     65       0.00000          -0.050873           -1.38432
     66       0.00000          -0.046465           -1.26437
     67       0.00000          -0.042582           -1.15872
     68       0.00000          -0.032899           -0.89523
     69       0.00000          -0.031214           -0.84937
     70       0.00000          -0.025252           -0.68715
     71       0.00000          -0.020079           -0.54637
     72       0.00000          -0.014065           -0.38272
     73       0.00000          -0.012173           -0.33125
     74       0.00000          -0.008443           -0.22975
     75       0.00000          -0.005259           -0.14312
     76       0.00000          -0.004042           -0.11000
     77       0.00000           0.000420            0.01142
     78       0.00000           0.003968            0.10798
     79       0.00000           0.005838            0.15887
     80       0.00000           0.009724            0.26459
     81       0.00000           0.015946            0.43390
     82       0.00000           0.023761            0.64657
     83       0.00000           0.034290            0.93309
     84       0.00000           0.037580            1.02260
     85       0.00000           0.043990            1.19702
     86       0.00000           0.053509            1.45606
     87       0.00000           0.054904            1.49401
     88       0.00000           0.059370            1.61553
     89       0.00000           0.066533            1.81045
     90       0.00000           0.071551            1.94701
     91       0.00000           0.073713            2.00584
     92       0.00000           0.080837            2.19968
     93       0.00000           0.089798            2.44352
     94       0.00000           0.093478            2.54366
     95       0.00000           0.097583            2.65537
     96       0.00000           0.103008            2.80299
     97       0.00000           0.104469            2.84275
     98       0.00000           0.113651            3.09261
     99       0.00000           0.120703            3.28449
    100       0.00000           0.122729            3.33962
    101       0.00000           0.128806            3.50500
    102       0.00000           0.135200            3.67898
    103       0.00000           0.142848            3.88710
    104       0.00000           0.145801            3.96745
    105       0.00000           0.151520            4.12306
    106       0.00000           0.152625            4.15313
    107       0.00000           0.157355            4.28186
    108       0.00000           0.160683            4.37240
    109       0.00000           0.164141            4.46650
    110       0.00000           0.172193            4.68562
    111       0.00000           0.173811            4.72963
    112       0.00000           0.178330            4.85260
    113       0.00000           0.184507            5.02070
    114       0.00000           0.184903            5.03146
    115       0.00000           0.191988            5.22426
    116       0.00000           0.197145            5.36458
    117       0.00000           0.203017            5.52438
    118       0.00000           0.209552            5.70221
    119       0.00000           0.212782            5.79010
    120       0.00000           0.215209            5.85612
    121       0.00000           0.220332            5.99553
    122       0.00000           0.228220            6.21019
    123       0.00000           0.228942            6.22982
    124       0.00000           0.232797            6.33472
    125       0.00000           0.236983            6.44863
    126       0.00000           0.241770            6.57889
    127       0.00000           0.249974            6.80213
    128       0.00000           0.256460            6.97863
    129       0.00000           0.266538            7.25286

  Highest occupied state (VBM) at    -10.24830448 eV
  | Occupation number:      2.00000000

  Lowest unoccupied state (CBM) at    -4.43234884 eV
  | Occupation number:      0.00000000

  Overall HOMO-LUMO gap:      5.81595564 eV.
  Calculating total energy contributions from superposition of free atom densities.

  Total energy components:
  | Sum of eigenvalues            :        -437.84213434 Ha      -11914.29066781 eV
  | XC energy correction          :         -98.81121980 Ha       -2688.79009488 eV
  | XC potential correction       :         127.00924869 Ha        3456.09750106 eV
  | Free-atom electrostatic energy:        -333.64158218 Ha       -9078.84937801 eV
  | Hartree energy correction     :           0.00000000 Ha           0.00000000 eV
  | vdW energy correction         :           0.00000000 Ha           0.00000000 eV
  | Entropy correction            :          -0.00000000 Ha          -0.00000000 eV
  | ---------------------------
  | Total energy                  :        -743.28568764 Ha      -20225.83263964 eV
  | Total energy, T -> 0          :        -743.28568764 Ha      -20225.83263964 eV  <-- do not rely on this value for anything but (periodic) metals
  | Electronic free energy        :        -743.28568764 Ha      -20225.83263964 eV

  Derived energy quantities:
  | Kinetic energy                :         735.13847098 Ha       20004.13559462 eV
  | Electrostatic energy          :       -1379.61293882 Ha      -37541.17813938 eV
  | Energy correction for multipole
  | error in Hartree potential    :           0.00000000 Ha           0.00000000 eV
  | Sum of eigenvalues per atom                           :        -372.32158337 eV
  | Total energy (T->0) per atom                          :        -632.05726999 eV  <-- do not rely on this value for anything but (periodic) metals
  | Electronic free energy per atom                       :        -632.05726999 eV
  Initialize hartree_potential_storage
  Max. number of atoms included in rho_multipole:           32

  End scf initialization - timings             :  max(cpu_time)    wall_clock(cpu1)
  | Time for scf. initialization               :        1.880 s           1.876 s
  | Boundary condition initialization          :        0.004 s           0.000 s
  | Integration                                :        1.124 s           1.124 s
  | Solution of K.-S. eqns.                    :        0.076 s           0.075 s
  | Grid partitioning                          :        0.344 s           0.331 s
  | Preloading free-atom quantities on grid    :        0.028 s           0.028 s
  | Free-atom superposition energy             :        0.040 s           0.038 s
  | Total energy evaluation                    :        0.004 s           0.001 s
------------------------------------------------------------

------------------------------------------------------------
          Begin self-consistency iteration #    1

  Date     :  20170309, Time     :  180658.236
------------------------------------------------------------
  Evaluating new KS density.
  Integration grid: deviation in total charge (<rho> - N_e) =   2.842171E-14
  Pulay mixing of updated and previous charge densities.

  Evaluating partitioned Hartree potential by multipole expansion.
  | Analytical far-field extrapolation by fixed multipoles:
  | Hartree multipole sum: apparent total charge =  -0.435189E-04
  Summing up the Hartree potential.
  Time summed over all CPUs for potential: real work        9.509 s, elapsed        9.792 s
  | RMS charge density error from multipole expansion :   0.107301E-01

  Integrating Hamiltonian matrix: batch-based integration.
  Time summed over all CPUs for integration: real work       20.634 s, elapsed       21.795 s

  Updating Kohn-Sham eigenvalues, eigenvectors, occupation numbers, and Fermi level.
  Solving generalized eigenproblem
  Solving real symmetric generalised eigenvalue problem by standard ScaLAPACK.
  Using Cholesky factor for transformation
  Using 2-stage real ELPA solver
  K-Point:    1, Trafo times: 1-stage=     0.021 s, 2-stage=     0.019 s ==> Using 2-stage solver
  Determining occupation numbers for Kohn-Sham eigenstates.
  | Chemical potential (Fermi level) in eV                 : -.39469141E+01
  | Error in electron count due to remaining E_F inaccuracy: 0.00000000E+00
  | Maximum occupation number of highest empty state:  0.00E+00

  Writing Kohn-Sham eigenvalues.

  State    Occupation    Eigenvalue [Ha]    Eigenvalue [eV]
      1       2.00000         -18.622492         -506.74378
      2       2.00000         -18.617578         -506.61009
      3       2.00000         -18.600501         -506.14539
      4       2.00000         -14.002643         -381.03131
      5       2.00000         -13.995561         -380.83859
      6       2.00000         -13.974954         -380.27784
      7       2.00000         -10.067422         -273.94848
      8       2.00000         -10.053240         -273.56257
      9       2.00000         -10.035751         -273.08668
     10       2.00000          -9.972551         -271.36691
     11       2.00000          -9.964549         -271.14918
     12       2.00000          -9.889014         -269.09376
     13       2.00000          -9.848315         -267.98629
     14       2.00000          -9.838886         -267.72971
     15       2.00000          -9.828400         -267.44438
     16       2.00000          -0.973987          -26.50353
     17       2.00000          -0.961629          -26.16726
     18       2.00000          -0.941595          -25.62211
     19       2.00000          -0.878385          -23.90206
     20       2.00000          -0.861170          -23.43364
     21       2.00000          -0.855172          -23.27041
     22       2.00000          -0.740855          -20.15968
     23       2.00000          -0.728507          -19.82368
     24       2.00000          -0.680327          -18.51265
     25       2.00000          -0.676559          -18.41011
     26       2.00000          -0.626108          -17.03726
     27       2.00000          -0.621912          -16.92309
     28       2.00000          -0.579194          -15.76068
     29       2.00000          -0.562168          -15.29738
     30       2.00000          -0.536346          -14.59473
     31       2.00000          -0.515214          -14.01970
     32       2.00000          -0.493971          -13.44163
     33       2.00000          -0.481779          -13.10988
     34       2.00000          -0.464143          -12.62998
     35       2.00000          -0.442057          -12.02898
     36       2.00000          -0.432246          -11.76201
     37       2.00000          -0.429278          -11.68124
     38       2.00000          -0.416237          -11.32640
     39       2.00000          -0.409567          -11.14488
     40       2.00000          -0.405669          -11.03882
     41       2.00000          -0.394327          -10.73020
     42       2.00000          -0.389403          -10.59618
     43       2.00000          -0.384689          -10.46792
     44       2.00000          -0.378156          -10.29014
     45       2.00000          -0.368710          -10.03311
     46       2.00000          -0.365233           -9.93850
     47       2.00000          -0.359594           -9.78506
     48       2.00000          -0.353909           -9.63034
     49       2.00000          -0.345701           -9.40699
     50       2.00000          -0.342175           -9.31106
     51       2.00000          -0.338000           -9.19745
     52       2.00000          -0.322331           -8.77107
     53       2.00000          -0.251102           -6.83283
     54       2.00000          -0.237372           -6.45921
     55       2.00000          -0.231117           -6.28902
     56       2.00000          -0.219566           -5.97471
     57       2.00000          -0.212063           -5.77052
     58       2.00000          -0.193756           -5.27236
     59       0.00000          -0.059010           -1.60575
     60       0.00000          -0.047519           -1.29305
     61       0.00000          -0.039315           -1.06982
     62       0.00000          -0.032656           -0.88862
     63       0.00000          -0.025563           -0.69561
     64       0.00000          -0.013670           -0.37199
     65       0.00000          -0.002807           -0.07639
     66       0.00000           0.002021            0.05498
     67       0.00000           0.010559            0.28732
     68       0.00000           0.012809            0.34854
     69       0.00000           0.021164            0.57591
     70       0.00000           0.028929            0.78719
     71       0.00000           0.034224            0.93128
     72       0.00000           0.044732            1.21722
     73       0.00000           0.045302            1.23274
     74       0.00000           0.048505            1.31990
     75       0.00000           0.050430            1.37227
     76       0.00000           0.055161            1.50101
     77       0.00000           0.057313            1.55956
     78       0.00000           0.064822            1.76390
     79       0.00000           0.075363            2.05074
     80       0.00000           0.088520            2.40876
     81       0.00000           0.091580            2.49201
     82       0.00000           0.095398            2.59592
     83       0.00000           0.100035            2.72208
     84       0.00000           0.104884            2.85403
     85       0.00000           0.109429            2.97770
     86       0.00000           0.112001            3.04771
     87       0.00000           0.119039            3.23923
     88       0.00000           0.124360            3.38402
     89       0.00000           0.125620            3.41830
     90       0.00000           0.129430            3.52196
     91       0.00000           0.137833            3.75064
     92       0.00000           0.143775            3.91231
     93       0.00000           0.149982            4.08123
     94       0.00000           0.160538            4.36846
     95       0.00000           0.163097            4.43809
     96       0.00000           0.171152            4.65729
     97       0.00000           0.174199            4.74019
     98       0.00000           0.183221            4.98571
     99       0.00000           0.190031            5.17101
    100       0.00000           0.191852            5.22056
    101       0.00000           0.195755            5.32676
    102       0.00000           0.200544            5.45707
    103       0.00000           0.205213            5.58413
    104       0.00000           0.207547            5.64763
    105       0.00000           0.210782            5.73566
    106       0.00000           0.219141            5.96313
    107       0.00000           0.219981            5.98599
    108       0.00000           0.225555            6.13765
    109       0.00000           0.229091            6.23387
    110       0.00000           0.231190            6.29101
    111       0.00000           0.235579            6.41044
    112       0.00000           0.237970            6.47550
    113       0.00000           0.245290            6.67469
    114       0.00000           0.247725            6.74093
    115       0.00000           0.253512            6.89842
    116       0.00000           0.256671            6.98437
    117       0.00000           0.265232            7.21733
    118       0.00000           0.269647            7.33746
    119       0.00000           0.276493            7.52376
    120       0.00000           0.284111            7.73105
    121       0.00000           0.286735            7.80247
    122       0.00000           0.295098            8.03002
    123       0.00000           0.296439            8.06652
    124       0.00000           0.301958            8.21670
    125       0.00000           0.307902            8.37845
    126       0.00000           0.311743            8.48295
    127       0.00000           0.322074            8.76408
    128       0.00000           0.330590            8.99581
    129       0.00000           0.336868            9.16665

  Highest occupied state (VBM) at     -5.27235749 eV
  | Occupation number:      2.00000000

  Lowest unoccupied state (CBM) at    -1.60575421 eV
  | Occupation number:      0.00000000

  Overall HOMO-LUMO gap:      3.66660328 eV.

  Total energy components:
  | Sum of eigenvalues            :        -417.42627157 Ha      -11358.74677608 eV
  | XC energy correction          :        -100.74926444 Ha       -2741.52697288 eV
  | XC potential correction       :         129.52297863 Ha        3524.49957311 eV
  | Free-atom electrostatic energy:        -333.64158218 Ha       -9078.84937801 eV
  | Hartree energy correction     :         -20.42043637 Ha        -555.66834575 eV
  | vdW energy correction         :           0.00000000 Ha           0.00000000 eV
  | Entropy correction            :          -0.00000000 Ha          -0.00000000 eV
  | ---------------------------
  | Total energy                  :        -742.71457594 Ha      -20210.29189961 eV
  | Total energy, T -> 0          :        -742.71457594 Ha      -20210.29189961 eV  <-- do not rely on this value for anything but (periodic) metals
  | Electronic free energy        :        -742.71457594 Ha      -20210.29189961 eV

  Derived energy quantities:
  | Kinetic energy                :         744.03385083 Ha       20246.19119594 eV
  | Electrostatic energy          :       -1385.99916232 Ha      -37714.95612268 eV
  | Energy correction for multipole
  | error in Hartree potential    :          -0.04153267 Ha          -1.13016146 eV
  | Sum of eigenvalues per atom                           :        -354.96083675 eV
  | Total energy (T->0) per atom                          :        -631.57162186 eV  <-- do not rely on this value for anything but (periodic) metals
  | Electronic free energy per atom                       :        -631.57162186 eV

  Self-consistency convergence accuracy:
  | Change of charge density      :  0.9034E+00
  | Change of sum of eigenvalues  :  0.5555E+03 eV
  | Change of total energy        :  0.1554E+02 eV

  End self-consistency iteration #     1       :  max(cpu_time)    wall_clock(cpu1)
  | Time for this iteration                    :        1.528 s           1.525 s
  | Charge density update                      :        0.488 s           0.484 s
[...]
   ----------------------------------------------------------------
   Total forces(  20)            : -0.272832E-03  0.121347E-02 -0.107262E-03
  atom #   21
   Hellmann-Feynman              : -0.277911E-01 -0.381851E-01 -0.374603E-01
   Ionic forces                  :  0.000000E+00  0.000000E+00  0.000000E+00
   Multipole                     :  0.599944E-02 -0.549413E-02  0.357587E-01
   Pulay + GGA                   :  0.310639E-01  0.507630E-01  0.104492E-01
   Van der Waals                 : -0.101323E-01 -0.833177E-02 -0.844568E-02
   ----------------------------------------------------------------
   Total forces(  21)            : -0.860115E-03 -0.124801E-02  0.301899E-03
  atom #   22
   Hellmann-Feynman              : -0.112622E-01  0.520041E-01  0.152723E-01
   Ionic forces                  :  0.000000E+00  0.000000E+00  0.000000E+00
   Multipole                     : -0.661163E-02  0.653088E-02 -0.863124E-02
   Pulay + GGA                   :  0.199687E-01 -0.589228E-01 -0.129030E-01
   Van der Waals                 : -0.259767E-02  0.131419E-02  0.640265E-02
   ----------------------------------------------------------------
   Total forces(  22)            : -0.502816E-03  0.926290E-03  0.140736E-03
  atom #   23
   Hellmann-Feynman              :  0.761185E+00  0.439055E+00  0.759295E+00
   Ionic forces                  :  0.000000E+00  0.000000E+00  0.000000E+00
   Multipole                     : -0.142724E+00 -0.218007E+00 -0.159031E+00
   Pulay + GGA                   : -0.616372E+00 -0.221746E+00 -0.589527E+00
   Van der Waals                 : -0.261960E-02  0.855243E-03 -0.117562E-01
   ----------------------------------------------------------------
   Total forces(  23)            : -0.531336E-03  0.156912E-03 -0.101996E-02
  atom #   24
   Hellmann-Feynman              : -0.427188E-01 -0.250120E-01 -0.464936E-01
   Ionic forces                  :  0.000000E+00  0.000000E+00  0.000000E+00
   Multipole                     :  0.213533E-01  0.341853E-01 -0.924303E-02
   Pulay + GGA                   :  0.164097E-01 -0.158198E-01  0.560379E-01
   Van der Waals                 :  0.504292E-02  0.612019E-02 -0.280188E-03
   ----------------------------------------------------------------
   Total forces(  24)            :  0.871806E-04 -0.526286E-03  0.210834E-04
  atom #   25
   Hellmann-Feynman              : -0.184267E-02 -0.415745E-01  0.373070E-02
   Ionic forces                  :  0.000000E+00  0.000000E+00  0.000000E+00
   Multipole                     :  0.203450E-01 -0.196129E-01  0.896329E-03
   Pulay + GGA                   : -0.148501E-01  0.592499E-01 -0.103733E-01
   Van der Waals                 : -0.289910E-02  0.170093E-02  0.653429E-02
   ----------------------------------------------------------------
   Total forces(  25)            :  0.753067E-03 -0.236560E-03  0.787999E-03
  atom #   26
   Hellmann-Feynman              : -0.431721E-01 -0.297438E-01 -0.616745E-02
   Ionic forces                  :  0.000000E+00  0.000000E+00  0.000000E+00
   Multipole                     : -0.117753E-01  0.221291E-01  0.275563E-01
   Pulay + GGA                   :  0.509904E-01  0.780518E-02 -0.277662E-01
   Van der Waals                 :  0.403874E-02 -0.156004E-03  0.703351E-02
   ----------------------------------------------------------------
   Total forces(  26)            :  0.818367E-04  0.344364E-04  0.656170E-03
  atom #   27
   Hellmann-Feynman              :  0.101491E+01 -0.178350E+00 -0.271672E+00
   Ionic forces                  :  0.000000E+00  0.000000E+00  0.000000E+00
   Multipole                     :  0.182500E+00 -0.245944E+00  0.668757E-01
   Pulay + GGA                   : -0.120559E+01  0.427041E+00  0.206737E+00
   Van der Waals                 :  0.836944E-02 -0.279319E-02 -0.190720E-02
   ----------------------------------------------------------------
   Total forces(  27)            :  0.181285E-03 -0.466456E-04  0.340290E-04
  atom #   28
   Hellmann-Feynman              : -0.204682E+01 -0.125680E+00  0.126181E+01
   Ionic forces                  :  0.000000E+00  0.000000E+00  0.000000E+00
   Multipole                     :  0.161725E+00 -0.562217E-02 -0.825958E-01
   Pulay + GGA                   :  0.187380E+01  0.132098E+00 -0.116502E+01
   Van der Waals                 :  0.117123E-01 -0.836681E-03 -0.136890E-01
   ----------------------------------------------------------------
   Total forces(  28)            :  0.417209E-03 -0.402254E-04  0.510126E-03
  atom #   29
   Hellmann-Feynman              :  0.165936E-01 -0.350855E-01  0.162379E-01
   Ionic forces                  :  0.000000E+00  0.000000E+00  0.000000E+00
   Multipole                     : -0.426743E-01  0.697844E-02  0.241583E-01
   Pulay + GGA                   :  0.188133E-01  0.334390E-01 -0.397405E-01
   Van der Waals                 :  0.765260E-02 -0.571889E-02  0.402536E-03
   ----------------------------------------------------------------
   Total forces(  29)            :  0.385194E-03 -0.387027E-03  0.105826E-02
  atom #   30
   Hellmann-Feynman              :  0.378065E-01 -0.293140E-01 -0.181773E-01
   Ionic forces                  :  0.000000E+00  0.000000E+00  0.000000E+00
   Multipole                     : -0.210727E-01 -0.272909E-01 -0.135028E-01
   Pulay + GGA                   : -0.188173E-01  0.588372E-01  0.291720E-01
   Van der Waals                 :  0.198144E-02 -0.270925E-02  0.227073E-02
   ----------------------------------------------------------------
   Total forces(  30)            : -0.102087E-03 -0.476981E-03 -0.237282E-03
  atom #   31
   Hellmann-Feynman              :  0.605476E-01  0.603852E-03 -0.309034E-01
   Ionic forces                  :  0.000000E+00  0.000000E+00  0.000000E+00
   Multipole                     : -0.355663E-01  0.345653E-01 -0.682311E-02
   Pulay + GGA                   : -0.250715E-01 -0.363197E-01  0.406216E-01
   Van der Waals                 :  0.564392E-03  0.151300E-02 -0.307064E-02
   ----------------------------------------------------------------
   Total forces(  31)            :  0.474170E-03  0.362489E-03 -0.175472E-03
  atom #   32
   Hellmann-Feynman              :  0.459138E-01 -0.232874E-02  0.153239E-01
   Ionic forces                  :  0.000000E+00  0.000000E+00  0.000000E+00
   Multipole                     :  0.407324E-02  0.878271E-02  0.304460E-01
   Pulay + GGA                   : -0.524693E-01 -0.140176E-02 -0.443207E-01
   Van der Waals                 :  0.292589E-02 -0.515433E-02 -0.958446E-03
   ----------------------------------------------------------------
   Total forces(  32)            :  0.443632E-03 -0.102117E-03  0.490765E-03

  Timings for VdW correction (Tkatchenko-Scheffler 2009 or later):
  | CPU time:        0.124 s, Wall clock time:        0.122 s.
  Removing unitary transformations (pure translations, rotations) from forces on atoms.
  Atomic forces before filtering:
  | Net force on center of mass :  -0.770626E-04 -0.532090E-04  0.471442E-03 eV/A
  | Net torque on center of mass:  -0.125273E-02 -0.269766E-03 -0.160428E-02 eV
  Atomic forces after filtering:
  | Net force on center of mass :  -0.174225E-17  0.128491E-17 -0.958236E-18 eV/A
  | Net torque on center of mass:   0.567004E-17  0.368783E-18 -0.276587E-17 eV

  Energy and forces in a compact form:
  | Total energy uncorrected      :         -0.202085255948467E+05 eV
  | Total energy corrected        :         -0.202085255948467E+05 eV  <-- do not rely on this value for anything but (periodic) metals
  | Electronic free energy        :         -0.202085255948467E+05 eV
  Total atomic forces (unitary forces cleaned) [eV/Ang]:
  |   1         -0.406147948780650E-03          0.144190404564774E-03          0.137467308135239E-03
  |   2          0.371542300872239E-02         -0.269449355887254E-02         -0.145424577724278E-02
  |   3         -0.318747423234291E-02          0.170399464493976E-02         -0.101702680361174E-03
  |   4         -0.415562752597565E-03          0.236960563199186E-03         -0.483779689626126E-03
  |   5          0.306259746101899E-03         -0.252135462764151E-07         -0.549198600763582E-03
  |   6          0.254730889882411E-03          0.686248275942991E-03         -0.842067485682525E-03
  |   7         -0.188938079718578E-02          0.484404357837819E-03         -0.625659093610339E-03
  |   8          0.176933846807895E-02          0.251036611854600E-04          0.213947139306104E-02
  |   9         -0.194157204996570E-02         -0.621690167688788E-03         -0.306361821529602E-02
  |  10          0.850892038514773E-04         -0.186464235344169E-02          0.194754065159627E-02
  |  11          0.124990282026299E-02         -0.129559385814760E-02          0.180306333676688E-03
  |  12          0.903498481449216E-04         -0.238793875180399E-03         -0.102378811261137E-02
  |  13         -0.140433935872339E-02          0.947982625628868E-03         -0.144642086662860E-02
  |  14          0.562526442039789E-04         -0.852632935997101E-04          0.581600285478770E-04
  |  15         -0.275762316835058E-03          0.628039603686404E-04          0.128284127413663E-02
  |  16          0.970457428809929E-03          0.320330675831714E-03          0.223169737962996E-03
  |  17          0.486624288964327E-03          0.213123846232888E-02         -0.261908520455376E-03
  |  18          0.107536994004909E-03         -0.657919825609567E-03          0.146918393266160E-02
  |  19         -0.792703181470661E-04          0.121649660233290E-02          0.789206400607047E-04
  |  20         -0.249423909083940E-03          0.119443112509427E-02         -0.124054384618123E-03
  |  21         -0.883287172498206E-03         -0.122430337626934E-02          0.290476368250154E-03
  |  22         -0.484724717425585E-03          0.942409822085964E-03          0.116900094023894E-03
  |  23         -0.535039554247262E-03          0.177209770287300E-03         -0.103727869212504E-02
  |  24          0.938621794085492E-04         -0.510153945588593E-03          0.120724961421975E-05
  |  25          0.734974911652845E-03         -0.221364957339771E-03          0.776964478348436E-03
  |  26          0.767420778691904E-04          0.712359318272134E-04          0.635157706652457E-03
  |  27          0.174802298906909E-03         -0.706198149238395E-04          0.288681457468902E-04
  |  28          0.411846466071109E-03         -0.858837584080686E-04          0.510059871991753E-03
  |  29          0.366732054669982E-03         -0.403854232759328E-03          0.105544799578898E-02
  |  30         -0.119154504316628E-03         -0.527094815290291E-03         -0.232155124972020E-03
  |  31          0.483082676134501E-03          0.312276506672696E-03         -0.179344004371387E-03
  |  32          0.437131626408480E-03         -0.155620343462625E-03          0.493078038108627E-03

  ------------------------------------ 
  Start decomposition of the XC Energy 
  ------------------------------------ 
  Hartree-Fock part   :          0.000000000 Ha              0.000000000 eV
  ------------------------------------ 
  X Energy            :        -96.981418669 Ha          -2638.998672760 eV
  C Energy GGA        :         -3.868661688 Ha           -105.271640688 eV
  Total XC Energy     :       -100.850080357 Ha          -2744.270313448 eV
  LDA X and C from self-consistent density 
  X Energy LDA        :        -87.997774112 Ha          -2394.541266495 eV
  C Energy LDA        :         -7.531712672 Ha           -204.948329467 eV
  ------------------------------------ 
  End decomposition of the XC Energy 
  ------------------------------------ 
   
  ESP charge fitting starts.
  | Calculation :  00000001  of  00000001
  | Full density
  Computing multipole expansion for total density.
  Generating points for esp charges.
  Partitioning the integration grid into batches with parallel hashing+maxmin method.
  | Number of batches:     3981
  | Maximal batch size:     175
  | Minimal batch size:      54
  | Average batch size:     122.312
  | Standard deviation of batch sizes:      12.110

  Integration load balanced across    32 MPI tasks.
  Work distribution over tasks is as follows:
  Initializing partition tables, free-atom densities, potentials, etc. across the integration grid (initialize_grid_storage).
  | Original list of interatomic distances with          32 x         32 entries is created.
  | Net number of integration points:   486924
  | of which are non-zero points    :   486924
  Summing up potential from multipole expanded  density.
  Summing up the Hartree potential.
  Time summed over all CPUs for potential: real work        6.294 s, elapsed        6.476 s
  Fitting esp charges to potential.
  |
  | ESP charges fitted to the electrostatic potential :
  |
  | Atom         1: C, ESP charge:      0.75554882
  |
  | Atom         2: C, ESP charge:     -0.90248251
  |
  | Atom         3: O, ESP charge:      0.59656474
  |
  | Atom         4: H, ESP charge:     -0.19996921
  |
  | Atom         5: H, ESP charge:     -0.20915540
  |
  | Atom         6: H, ESP charge:     -0.18569751
  |
  | Atom         7: N, ESP charge:      0.77637788
  |
  | Atom         8: C, ESP charge:     -0.38135184
  |
  | Atom         9: C, ESP charge:     -0.59817230
  |
  | Atom        10: O, ESP charge:      0.57721677
  |
  | Atom        11: H, ESP charge:     -0.32140092
  |
  | Atom        12: H, ESP charge:     -0.00907035
  |
  | Atom        13: C, ESP charge:      0.37715902
  |
  | Atom        14: H, ESP charge:     -0.06552058
  |
  | Atom        15: H, ESP charge:     -0.13905815
  |
  | Atom        16: H, ESP charge:     -0.12390216
  |
  | Atom        17: N, ESP charge:      0.49169427
  |
  | Atom        18: C, ESP charge:     -0.14001165
  |
  | Atom        19: C, ESP charge:     -0.25656037
  |
  | Atom        20: O, ESP charge:      0.47133818
  |
  | Atom        21: H, ESP charge:     -0.29209730
  |
  | Atom        22: H, ESP charge:     -0.07008326
  |
  | Atom        23: C, ESP charge:      0.44958960
  |
  | Atom        24: H, ESP charge:     -0.16370178
  |
  | Atom        25: H, ESP charge:     -0.11481190
  |
  | Atom        26: H, ESP charge:     -0.14069721
  |
  | Atom        27: N, ESP charge:     -0.03479943
  |
  | Atom        28: C, ESP charge:      0.31020641
  |
  | Atom        29: H, ESP charge:     -0.10735329
  |
  | Atom        30: H, ESP charge:     -0.10810283
  |
  | Atom        31: H, ESP charge:     -0.13897973
  |
  | Atom        32: H, ESP charge:     -0.10271599

  RRMS:       0.00464291

  Done.

------------------------------------------------------------------------------
  Final output of selected total energy values:

  The following output summarizes some interesting total energy values
  at the end of a run (AFTER all relaxation, molecular dynamics, etc.).

  | Total energy of the DFT / Hartree-Fock s.c.f. calculation      :         -20208.525594847 eV
  | Final zero-broadening corrected energy (caution - metals only) :         -20208.525594847 eV
  | For reference only, the value of 1 Hartree used in FHI-aims is :             27.211384500 eV

  Before relying on these values, please be sure to understand exactly which
  total energy value is referred to by a given number. Different objects may
  all carry the same name 'total energy'. Definitions:

  Total energy of the DFT / Hartree-Fock s.c.f. calculation:
  | Note that this energy does not include ANY quantities calculated after the
  | s.c.f. cycle, in particular not ANY RPA, MP2, etc. many-body perturbation terms.

  Final zero-broadening corrected energy:
  | For metallic systems only, a broadening of the occupation numbers at the Fermi
  | level can be extrapolated back to zero broadening by an electron-gas inspired
  | formula. For all systems that are not real metals, this value can be
  | meaningless and should be avoided.

------------------------------------------------------------------------------
  Methods described in the following list of references were used in this FHI-aims run.
  If you publish the results, please make sure to cite these reference if they apply.
  FHI-aims is an academic code, and for our developers (often, Ph.D. students
  and postdocs), scientific credit in the community is essential.
  Thank you for helping us!

  For any use of FHI-aims, please cite:

    Volker Blum, Ralf Gehrke, Felix Hanke, Paula Havu, Ville Havu,
    Xinguo Ren, Karsten Reuter, and Matthias Scheffler
    'Ab initio molecular simulations with numeric atom-centered orbitals'
    Computer Physics Communications 180, 2175-2196 (2009)
    http://dx.doi.org/10.1016/j.cpc.2009.06.022


  The scalable eigensolver library ELPA was used in your run.
  ELPA is essential especially for large systems on hundreds or thousands of CPUs.
  For ELPA, please cite:

    Andreas Marek, Volker Blum, Rainer Johanni, Ville Havu, Bruno Lang,
    Thomas Auckenthaler, Alexander Heinecke, Hans-Joachim Bungartz, and Hermann Lederer,
    'The ELPA Library - Scalable Parallel Eigenvalue Solutions
    for Electronic Structure Theory and Computational Science'
    The Journal of Physics: Condensed Matter 26, 213201 (2014).
    http://dx.doi.org/10.1088/0953-8984/26/21/213201


  For ELPA's efficient two-stage tridiagonalization used in your run, please cite:

    T. Auckenthaler, V. Blum, H.-J. Bungartz, T. Huckle, R. Johanni, L. Kraemer,
    B. Lang, H. Lederer, and P. R. Willems,
    'Parallel solution of partial symmetric eigenvalue problems'
    'from  electronic structure calculations'
    Parallel Computing 37, 783-794 (2011).
    http://dx.doi.org/10.1016/j.parco.2011.05.002


  For the real-space grid partitioning and parallelization used in this calculation, please cite:

    Ville Havu, Volker Blum, Paula Havu, and Matthias Scheffler,
    'Efficient O(N) integration for all-electron electronic structure calculation'
    'using numerically tabulated basis functions'
    Journal of Computational Physics 228, 8367-8379 (2009).
    http://dx.doi.org/10.1016/j.jcp.2009.08.008

  Of course, there are many other important community references, e.g., those cited in the
  above references. Our list is limited to references that describe implementations in the
  FHI-aims code. The reason is purely practical (length of this list) - please credit others as well.

------------------------------------------------------------
          Leaving FHI-aims.
          Date     :  20170309, Time     :  180725.859

          Computational steps:
          | Number of self-consistency cycles          :           14

          Detailed time accounting                     :  max(cpu_time)    wall_clock(cpu1)
          | Total time                                 :       30.370 s          30.525 s
          | Preparation time                           :        0.236 s           0.233 s
          | Grid partitioning                          :        0.344 s           0.331 s
          | Preloading free-atom quantities on grid    :        0.028 s           0.028 s
          | Free-atom superposition energy             :        0.040 s           0.038 s
          | Total time for integrations                :       10.853 s          10.832 s
          | Total time for solution of K.-S. equations :        0.528 s           0.495 s
          | Total time for density & force components  :        9.709 s           9.680 s
          | Total time for mixing                      :        0.128 s           0.103 s
          | Total time for Hartree multipole update    :        0.060 s           0.058 s
          | Total time for Hartree multipole sum       :        6.384 s           6.374 s
          | Total time for total energy evaluation     :        0.032 s           0.021 s
          | Total time for vdW correction              :        0.124 s           0.122 s

          Have a nice day.
------------------------------------------------------------
