  MPI-parallelism will be employed.
------------------------------------------------------------
          Invoking FHI-aims ...
          Version 150427
          Git rev.: 9dd23e0 BL: Update Version stamp
          Compiled on 2015/11/03 at 22:05:20 on host eos03.

          When using FHI-aims, please cite the following reference:

          Volker Blum, Ralf Gehrke, Felix Hanke, Paula Havu,
          Ville Havu, Xinguo Ren, Karsten Reuter, and Matthias Scheffler,
          'Ab Initio Molecular Simulations with Numeric Atom-Centered Orbitals: FHI-aims',
          Computer Physics Communications 180, 2175-2196 (2009)

          For any questions about FHI-aims, please visit the aimsclub website
          with its forums and wiki. Contributions to both the forums and the
          wiki are warmly encouraged - they are for you, and everyone is welcome there.

------------------------------------------------------------

  Date     :  20170309, Time     :  180540.439
  Time zero on CPU 1             :   0.360022000000000E+00  s.
  Internal wall clock time zero  :           258314740.439  s.

  Using       32 parallel tasks.
  Task        0 on host eos383 reporting.
  Task        1 on host eos383 reporting.
  Task        2 on host eos383 reporting.
  Task        3 on host eos383 reporting.
  Task        4 on host eos383 reporting.
  Task        5 on host eos383 reporting.
  Task        6 on host eos383 reporting.
  Task        7 on host eos383 reporting.
  Task        8 on host eos383 reporting.
  Task        9 on host eos383 reporting.
  Task       10 on host eos383 reporting.
  Task       11 on host eos383 reporting.
  Task       12 on host eos383 reporting.
  Task       13 on host eos383 reporting.
  Task       14 on host eos383 reporting.
  Task       15 on host eos383 reporting.
  Task       16 on host eos383 reporting.
  Task       17 on host eos383 reporting.
  Task       18 on host eos383 reporting.
  Task       19 on host eos383 reporting.
  Task       20 on host eos383 reporting.
  Task       21 on host eos383 reporting.
  Task       22 on host eos383 reporting.
  Task       23 on host eos383 reporting.
  Task       24 on host eos383 reporting.
  Task       25 on host eos383 reporting.
  Task       26 on host eos383 reporting.
  Task       27 on host eos383 reporting.
  Task       28 on host eos383 reporting.
  Task       29 on host eos383 reporting.
  Task       30 on host eos383 reporting.
  Task       31 on host eos383 reporting.

  Performing system and environment tests:
  | Environment variable OMP_NUM_THREADS correctly set to 1.
  | Stacksize not measured: no C compiler
  | Checking for scalapack...
  | Testing pdtran()...
  | All pdtran() tests passed.

  Obtaining array dimensions for all initial allocations:
  
  -----------------------------------------------------------------------
  Parsing control.in (first pass over file, find array dimensions only).
  The contents of control.in will be repeated verbatim below
  unless switched off by setting 'verbatim_writeout .false.' .
  in the first line of control.in .
  -----------------------------------------------------------------------
  
  #########################################################################################
  #
  # Input for System
  #
  #########################################################################################
  #
  #
  #  Physical model
  #
    xc                 pbe
    vdw_correction_hirshfeld
    spin               none
    charge             0.
  #
  #  SCF convergence
  #
    occupation_type    gaussian 0.05
    mixer              pulay
      n_max_pulay        10
      charge_mix_param   0.5
    sc_accuracy_rho    1E-4
    sc_accuracy_eev    1E-2
    sc_accuracy_etot   1E-5
    sc_accuracy_forces 1E-4
    sc_iter_limit      1000
  #
  #  ESP charge
  #
    output esp
    esp equal_grid_n 80 80 80
  #
  #
  ################################################################################
  #
  #  FHI-aims code project
  # Volker Blum, Fritz Haber Institute Berlin, 2009
  #
  #  Suggested "tight" defaults for H atom (to be pasted into control.in file)
  #
  ################################################################################
    species        H
  #     global species definitions
      nucleus             1
      mass                1.00794
  #
      l_hartree           6
  #
      cut_pot             4.0  2.0  1.0
      basis_dep_cutoff    1e-4
  #
      radial_base         24 7.0
      radial_multiplier   2
      angular_grids       specified
        division   0.1930   50
        division   0.3175  110
        division   0.4293  194
        division   0.5066  302
        division   0.5626  434
  #      division   0.5922  590
  #      division   0.6227  974
  #      division   0.6868 1202
  #      outer_grid  770
        outer_grid  434
  ################################################################################
  #
  #  Definition of "minimal" basis
  #
  ################################################################################
  #     valence basis states
      valence      1  s   1.
  #     ion occupancy
      ion_occ      1  s   0.5
  ################################################################################
  #
  #  Suggested additional basis functions. For production calculations,
  #  uncomment them one after another (the most important basis functions are
  #  listed first).
  #
  #  Basis constructed for dimers: 0.5 A, 0.7 A, 1.0 A, 1.5 A, 2.5 A
  #
  ################################################################################
  #  "First tier" - improvements: -1014.90 meV to -62.69 meV
       hydro 2 s 2.1
       hydro 2 p 3.5
  #  "Second tier" - improvements: -12.89 meV to -1.83 meV
       hydro 1 s 0.85
       hydro 2 p 3.7
       hydro 2 s 1.2
       hydro 3 d 7
  #  "Third tier" - improvements: -0.25 meV to -0.12 meV
  #     hydro 4 f 11.2
  #     hydro 3 p 4.8
  #     hydro 4 d 9
  #     hydro 3 s 3.2
  ################################################################################
  #
  # For methods that use the localized form of the "resolution of identity" for
  # the two-electron Coulomb operator (RI_method LVL), particularly Hartree-Fock and
  # hybrid density functional calculations, the highest accuracy can be obtained by
  # uncommenting the line beginning with "for_aux"  below, thus adding an extra g radial
  # function to the construction of the product basis set for the expansion.
  # See Ref. New J. Phys. 17, 093020 (2015) for more information, particularly Figs. 1 and 6.
  #
  ################################################################################
  #
  # for_aux hydro 5 g 6.0
  ################################################################################
  #
  #  FHI-aims code project
  # Volker Blum, Fritz Haber Institute Berlin, 2009
  #
  #  Suggested "tight" defaults for C atom (to be pasted into control.in file)
  #
  ################################################################################
    species        C
  #     global species definitions
      nucleus             6
      mass                12.0107
  #
      l_hartree           6
  #
      cut_pot             4.0  2.0  1.0
      basis_dep_cutoff    1e-4
  #
      radial_base         34 7.0
      radial_multiplier   2
      angular_grids specified
        division   0.2187   50
        division   0.4416  110
        division   0.6335  194
        division   0.7727  302
        division   0.8772  434
  #      division   0.9334  590
  #      division   0.9924  770
  #      division   1.0230  974
  #      division   1.5020 1202
  #     outer_grid  974
        outer_grid  434
  ################################################################################
  #
  #  Definition of "minimal" basis
  #
  ################################################################################
  #     valence basis states
      valence      2  s   2.
      valence      2  p   2.
  #     ion occupancy
      ion_occ      2  s   1.
      ion_occ      2  p   1.
  ################################################################################
  #
  #  Suggested additional basis functions. For production calculations,
  #  uncomment them one after another (the most important basis functions are
  #  listed first).
  #
  #  Constructed for dimers: 1.0 A, 1.25 A, 1.5 A, 2.0 A, 3.0 A
  #
  ################################################################################
  #  "First tier" - improvements: -1214.57 meV to -155.61 meV
       hydro 2 p 1.7
       hydro 3 d 6
       hydro 2 s 4.9
  #  "Second tier" - improvements: -67.75 meV to -5.23 meV
       hydro 4 f 9.8
       hydro 3 p 5.2
       hydro 3 s 4.3
       hydro 5 g 14.4
       hydro 3 d 6.2
  #  "Third tier" - improvements: -2.43 meV to -0.60 meV
  #     hydro 2 p 5.6
  #     hydro 2 s 1.4
  #     hydro 3 d 4.9
  #     hydro 4 f 11.2
  #  "Fourth tier" - improvements: -0.39 meV to -0.18 meV
  #     hydro 2 p 2.1
  #     hydro 5 g 16.4
  #     hydro 4 d 13.2
  #     hydro 3 s 13.6
  #     hydro 4 f 17.6
  #  Further basis functions - improvements: -0.08 meV and below
  #     hydro 3 s 2
  #     hydro 3 p 6
  #     hydro 4 d 20
  ################################################################################
  #
  # For methods that use the localized form of the "resolution of identity" for
  # the two-electron Coulomb operator (RI_method LVL), particularly Hartree-Fock and
  # hybrid density functional calculations, the highest accuracy can be obtained by
  # uncommenting the line beginning with "for_aux"  below, thus adding an extra g radial
  # function to the construction of the product basis set for the expansion.
  # See Ref. New J. Phys. 17, 093020 (2015) for more information, particularly Figs. 1 and 6.
  #
  ################################################################################
  #
  # for_aux hydro 5 g 6.0
  ################################################################################
  #
  #  FHI-aims code project
  # Volker Blum, Fritz Haber Institute Berlin, 2009
  #
  #  Suggested "tight" defaults for N atom (to be pasted into control.in file)
  #
  ################################################################################
    species        N
  #     global species definitions
      nucleus             7
      mass                14.0067
  #
      l_hartree           6
  #
      cut_pot             4.0  2.0  1.0
      basis_dep_cutoff    1e-4
  #
      radial_base         35 7.0
      radial_multiplier   2
      angular_grids       specified
        division   0.1841   50
        division   0.3514  110
        division   0.5126  194
        division   0.6292  302
        division   0.6939  434
  #      division   0.7396  590
  #      division   0.7632  770
  #      division   0.8122  974
  #      division   1.1604 1202
  #      outer_grid  974
        outer_grid  434
  ################################################################################
  #
  #  Definition of "minimal" basis
  #
  ################################################################################
  #     valence basis states
      valence      2  s   2.
      valence      2  p   3.
  #     ion occupancy
      ion_occ      2  s   1.
      ion_occ      2  p   2.
  ################################################################################
  #
  #  Suggested additional basis functions. For production calculations,
  #  uncomment them one after another (the most important basis functions are
  #  listed first).
  #
  #  Constructed for dimers: 1.0 A, 1.1 A, 1.5 A, 2.0 A, 3.0 A
  #
  ################################################################################
  #  "First tier" - improvements: -1193.42 meV to -220.60 meV
       hydro 2 p 1.8
       hydro 3 d 6.8
       hydro 3 s 5.8
  #  "Second tier" - improvements: -80.21 meV to -6.86 meV
       hydro 4 f 10.8
       hydro 3 p 5.8
       hydro 1 s 0.8
       hydro 5 g 16
       hydro 3 d 4.9
  #  "Third tier" - improvements: -4.29 meV to -0.53 meV
  #     hydro 3 s 16
  #     ionic 2 p auto
  #     hydro 3 d 6.6
  #     hydro 4 f 11.6
  #  "Fourth tier" - improvements: -0.75 meV to -0.25 meV
  #     hydro 2 p 4.5
  #     hydro 2 s 2.4
  #     hydro 5 g 14.4
  #     hydro 4 d 14.4
  #     hydro 4 f 16.8
  # Further basis functions - -0.21 meV and below
  #     hydro 3 p 14.8
  #     hydro 3 s 4.4
  #     hydro 3 d 19.6
  #     hydro 5 g 12.8
  ################################################################################
  #
  # For methods that use the localized form of the "resolution of identity" for
  # the two-electron Coulomb operator (RI_method LVL), particularly Hartree-Fock and
  # hybrid density functional calculations, the highest accuracy can be obtained by
  # uncommenting the line beginning with "for_aux"  below, thus adding an extra g radial
  # function to the construction of the product basis set for the expansion.
  # See Ref. New J. Phys. 17, 093020 (2015) for more information, particularly Figs. 1 and 6.
  #
  ################################################################################
  #
  # for_aux hydro 5 g 6.0
  ################################################################################
  #
  #  FHI-aims code project
  # Volker Blum, Fritz Haber Institute Berlin, 2009
  #
  #  Suggested "tight" defaults for O atom (to be pasted into control.in file)
  #
  ################################################################################
    species        O
  #     global species definitions
      nucleus             8
      mass                15.9994
  #
      l_hartree           6
  #
      cut_pot             4.0  2.0  1.0
      basis_dep_cutoff    1e-4
  #
      radial_base         36 7.0
      radial_multiplier   2
       angular_grids specified
        division   0.1817   50
        division   0.3417  110
        division   0.4949  194
        division   0.6251  302
        division   0.8014  434
  #      division   0.8507  590
  #      division   0.8762  770
  #      division   0.9023  974
  #      division   1.2339 1202
  #      outer_grid 974
        outer_grid  434
  ################################################################################
  #
  #  Definition of "minimal" basis
  #
  ################################################################################
  #     valence basis states
      valence      2  s   2.
      valence      2  p   4.
  #     ion occupancy
      ion_occ      2  s   1.
      ion_occ      2  p   3.
  ################################################################################
  #
  #  Suggested additional basis functions. For production calculations,
  #  uncomment them one after another (the most important basis functions are
  #  listed first).
  #
  #  Constructed for dimers: 1.0 A, 1.208 A, 1.5 A, 2.0 A, 3.0 A
  #
  ################################################################################
  #  "First tier" - improvements: -699.05 meV to -159.38 meV
       hydro 2 p 1.8
       hydro 3 d 7.6
       hydro 3 s 6.4
  #  "Second tier" - improvements: -49.91 meV to -5.39 meV
       hydro 4 f 11.6
       hydro 3 p 6.2
       hydro 3 d 5.6
       hydro 5 g 17.6
       hydro 1 s 0.75
  #  "Third tier" - improvements: -2.83 meV to -0.50 meV
  #     ionic 2 p auto
  #     hydro 4 f 10.8
  #     hydro 4 d 4.7
  #     hydro 2 s 6.8
  #  "Fourth tier" - improvements: -0.40 meV to -0.12 meV
  #     hydro 3 p 5
  #     hydro 3 s 3.3
  #     hydro 5 g 15.6
  #     hydro 4 f 17.6
  #     hydro 4 d 14
  # Further basis functions - -0.08 meV and below
  #     hydro 3 s 2.1
  #     hydro 4 d 11.6
  #     hydro 3 p 16
  #     hydro 2 s 17.2
  ################################################################################
  #
  # For methods that use the localized form of the "resolution of identity" for
  # the two-electron Coulomb operator (RI_method LVL), particularly Hartree-Fock and
  # hybrid density functional calculations, the highest accuracy can be obtained by
  # uncommenting the line beginning with "for_aux"  below, thus adding an extra g radial
  # function to the construction of the product basis set for the expansion.
  # See Ref. New J. Phys. 17, 093020 (2015) for more information, particularly Figs. 1 and 6.
  #
  ################################################################################
  #
  # for_aux hydro 5 g 6.0
  
  -----------------------------------------------------------------------
  Completed first pass over input file control.in .
  -----------------------------------------------------------------------
  
  
  -----------------------------------------------------------------------
  Parsing geometry.in (first pass over file, find array dimensions only).
  The contents of geometry.in will be repeated verbatim below
  unless switched off by setting 'verbatim_writeout .false.' .
  in the first line of geometry.in .
  -----------------------------------------------------------------------
  
  #
  # This is the geometry file that corresponds to the current relaxation step.
  # If you do not want this file to be written, set the "write_restart_geometry" flag to .false.
  #
  atom      -0.06931226     -0.50700958      0.49680430 C
  atom      -0.22249895     -0.07771273      1.94056578 C
  atom       0.60712200     -0.38583252      2.79324327 O
  atom       0.80469211     -1.16167539      0.44163111 H
  atom       0.09552974      0.35871689     -0.15852930 H
  atom      -0.96057395     -1.04285623      0.14734710 H
  atom      -1.29558586      0.71517723      2.31533584 N
  atom      -2.55729594      1.05011726      1.64527292 C
  atom      -3.51040253     -0.16638059      1.67921396 C
  atom      -3.31338949     -1.15249411      0.97456724 O
  atom      -1.35033022      0.77174921      3.33220518 H
  atom      -2.97449564      1.86089255      2.25815262 H
  atom      -2.43650551      1.59717994      0.22244896 C
  atom      -3.39358195      2.04539600     -0.07710861 H
  atom      -2.20050438      0.81000329     -0.49964295 H
  atom      -1.66237551      2.37360113      0.17950459 H
  atom      -4.57512149     -0.12510422      2.54355494 N
  atom      -5.00945369      0.92939042      3.44167482 C
  atom      -3.92142708      1.31897033      4.47540554 C
  atom      -3.10102617      0.51381512      4.90280532 O
  atom      -5.08559023     -1.00350853      2.58166007 H
  atom      -5.27520744      1.82991763      2.85782283 H
  atom      -6.25927633      0.45330099      4.19308659 C
  atom      -6.63858679      1.23948832      4.85668875 H
  atom      -6.01875050     -0.42504805      4.80711681 H
  atom      -7.05645356      0.18782559      3.48609036 H
  atom      -3.98176888      2.62242030      4.87325236 N
  atom      -3.10161947      3.17853889      5.88570364 C
  atom      -4.67726523      3.22443144      4.44762652 H
  atom      -3.67011100      3.53550866      6.75556169 H
  atom      -2.50846816      4.00965068      5.48059574 H
  atom      -2.42312265      2.38103110      6.20638102 H
  
  -----------------------------------------------------------------------
  Completed first pass over input file geometry.in .
  -----------------------------------------------------------------------
  

  Basic array size parameters:
  | Number of species                 :        4
  | Number of atoms                   :       32
  | Max. basis fn. angular momentum   :        4
  | Max. atomic/ionic basis occupied n:        2
  | Max. number of basis fn. types    :        2
  | Max. radial fns per species/type  :        8
  | Max. logarithmic grid size        :     1301
  | Max. radial integration grid size :       73
  | Max. angular integration grid size:      434
  | Max. angular grid division number :        8
  | Radial grid for Hartree potential :     1301
  | Number of spin channels           :        1

------------------------------------------------------------
          Reading file control.in.
------------------------------------------------------------
  XC: Using PBE gradient-corrected functionals.
  Spin treatment: No spin polarisation.
  Charge =   0.000000E+00: Neutral system requested explicitly.
  Occupation type: Gaussian broadening, width =   0.500000E-01 eV.
  Using pulay charge density mixing.
  Pulay mixing - number of memorized iterations:   10
  Charge density mixing - mixing parameter:     0.5000
  Convergence accuracy of self-consistent charge density:  0.1000E-03
  Convergence accuracy of sum of eigenvalues:  0.1000E-01
  Convergence accuracy of total energy:  0.1000E-04
  Convergence accuracy of forces:  0.1000E-03
  Maximum number of s.-c. iterations  :  1000
  Fitting ESP-charges to Potential. 
  | Esp charge output options: 
  | ESP Grid method: 3, cubic grid
  | Number of points in x, ,y, z:  0080 0080 0080
  |
 
  Reading configuration options for species H                   .
  | Found nuclear charge :   1.0000
  | Found atomic mass :    1.00794000000000      amu
  | Found l_max for Hartree potential  :   6
  | Found cutoff potl. onset [A], width [A], scale factor :    4.00000    2.00000    1.00000
  | Threshold for basis-dependent cutoff potential is   0.100000E-03
  | Found data for basic radial integration grid :    24 points, outermost radius =    7.000 A
  | Found multiplier for basic radial grid :   2
  | Found angular grid specification: user-specified.
  | Specified grid contains     6 separate shells.
  | Check grid settings after all constraints further below.
  | Found free-atom valence shell :  1 s   1.000
  | No ionic wave fns used. Skipping ion_occ.
  | Found hydrogenic basis function :  2 s   2.100
  | Found hydrogenic basis function :  2 p   3.500
  | Found hydrogenic basis function :  1 s   0.850
  | Found hydrogenic basis function :  2 p   3.700
  | Found hydrogenic basis function :  2 s   1.200
  | Found hydrogenic basis function :  3 d   7.000
  Species H                   : Missing cutoff potential type.
  Defaulting to exp(1/x)/(1-x)^2 type cutoff potential.
  Species H : No 'logarithmic' tag. Using default grid for free atom:
  | Default logarithmic grid data [bohr] : 0.1000E-03 0.1000E+03 0.1012E+01
  Species H : On-site basis accuracy parameter (for Gram-Schmidt orthonormalisation) not specified.
  Using default value basis_acc =  0.1000000E-03.
  Species H                   : Using default innermost maximum threshold i_radial=  2 for radial functions.
  Species H                   : Default cutoff onset for free atom density etc. : 0.40000000E+01 AA.
  Species H                   : Basic radial grid will be enhanced according to radial_multiplier =   2, to contain    49 grid points.
 
  Reading configuration options for species C                   .
  | Found nuclear charge :   6.0000
  | Found atomic mass :    12.0107000000000      amu
  | Found l_max for Hartree potential  :   6
  | Found cutoff potl. onset [A], width [A], scale factor :    4.00000    2.00000    1.00000
  | Threshold for basis-dependent cutoff potential is   0.100000E-03
  | Found data for basic radial integration grid :    34 points, outermost radius =    7.000 A
  | Found multiplier for basic radial grid :   2
  | Found angular grid specification: user-specified.
  | Specified grid contains     6 separate shells.
  | Check grid settings after all constraints further below.
  | Found free-atom valence shell :  2 s   2.000
  | Found free-atom valence shell :  2 p   2.000
  | No ionic wave fns used. Skipping ion_occ.
  | No ionic wave fns used. Skipping ion_occ.
  | Found hydrogenic basis function :  2 p   1.700
  | Found hydrogenic basis function :  3 d   6.000
  | Found hydrogenic basis function :  2 s   4.900
  | Found hydrogenic basis function :  4 f   9.800
  | Found hydrogenic basis function :  3 p   5.200
  | Found hydrogenic basis function :  3 s   4.300
  | Found hydrogenic basis function :  5 g  14.400
  | Found hydrogenic basis function :  3 d   6.200
  Species C                   : Missing cutoff potential type.
  Defaulting to exp(1/x)/(1-x)^2 type cutoff potential.
  Species C : No 'logarithmic' tag. Using default grid for free atom:
  | Default logarithmic grid data [bohr] : 0.1000E-03 0.1000E+03 0.1012E+01
  Species C : On-site basis accuracy parameter (for Gram-Schmidt orthonormalisation) not specified.
  Using default value basis_acc =  0.1000000E-03.
  Species C                   : Using default innermost maximum threshold i_radial=  2 for radial functions.
  Species C                   : Default cutoff onset for free atom density etc. : 0.40000000E+01 AA.
  Species C                   : Basic radial grid will be enhanced according to radial_multiplier =   2, to contain    69 grid points.
 
  Reading configuration options for species N                   .
  | Found nuclear charge :   7.0000
  | Found atomic mass :    14.0067000000000      amu
  | Found l_max for Hartree potential  :   6
  | Found cutoff potl. onset [A], width [A], scale factor :    4.00000    2.00000    1.00000
  | Threshold for basis-dependent cutoff potential is   0.100000E-03
  | Found data for basic radial integration grid :    35 points, outermost radius =    7.000 A
  | Found multiplier for basic radial grid :   2
  | Found angular grid specification: user-specified.
  | Specified grid contains     6 separate shells.
  | Check grid settings after all constraints further below.
  | Found free-atom valence shell :  2 s   2.000
  | Found free-atom valence shell :  2 p   3.000
  | No ionic wave fns used. Skipping ion_occ.
  | No ionic wave fns used. Skipping ion_occ.
  | Found hydrogenic basis function :  2 p   1.800
  | Found hydrogenic basis function :  3 d   6.800
  | Found hydrogenic basis function :  3 s   5.800
  | Found hydrogenic basis function :  4 f  10.800
  | Found hydrogenic basis function :  3 p   5.800
  | Found hydrogenic basis function :  1 s   0.800
  | Found hydrogenic basis function :  5 g  16.000
  | Found hydrogenic basis function :  3 d   4.900
  Species N                   : Missing cutoff potential type.
  Defaulting to exp(1/x)/(1-x)^2 type cutoff potential.
  Species N : No 'logarithmic' tag. Using default grid for free atom:
  | Default logarithmic grid data [bohr] : 0.1000E-03 0.1000E+03 0.1012E+01
  Species N : On-site basis accuracy parameter (for Gram-Schmidt orthonormalisation) not specified.
  Using default value basis_acc =  0.1000000E-03.
  Species N                   : Using default innermost maximum threshold i_radial=  2 for radial functions.
  Species N                   : Default cutoff onset for free atom density etc. : 0.40000000E+01 AA.
  Species N                   : Basic radial grid will be enhanced according to radial_multiplier =   2, to contain    71 grid points.
 
  Reading configuration options for species O                   .
  | Found nuclear charge :   8.0000
  | Found atomic mass :    15.9994000000000      amu
  | Found l_max for Hartree potential  :   6
  | Found cutoff potl. onset [A], width [A], scale factor :    4.00000    2.00000    1.00000
  | Threshold for basis-dependent cutoff potential is   0.100000E-03
  | Found data for basic radial integration grid :    36 points, outermost radius =    7.000 A
  | Found multiplier for basic radial grid :   2
  | Found angular grid specification: user-specified.
  | Specified grid contains     6 separate shells.
  | Check grid settings after all constraints further below.
  | Found free-atom valence shell :  2 s   2.000
  | Found free-atom valence shell :  2 p   4.000
  | No ionic wave fns used. Skipping ion_occ.
  | No ionic wave fns used. Skipping ion_occ.
  | Found hydrogenic basis function :  2 p   1.800
  | Found hydrogenic basis function :  3 d   7.600
  | Found hydrogenic basis function :  3 s   6.400
  | Found hydrogenic basis function :  4 f  11.600
  | Found hydrogenic basis function :  3 p   6.200
  | Found hydrogenic basis function :  3 d   5.600
  | Found hydrogenic basis function :  5 g  17.600
  | Found hydrogenic basis function :  1 s   0.750
  Species O                   : Missing cutoff potential type.
  Defaulting to exp(1/x)/(1-x)^2 type cutoff potential.
  Species O : No 'logarithmic' tag. Using default grid for free atom:
  | Default logarithmic grid data [bohr] : 0.1000E-03 0.1000E+03 0.1012E+01
  Species O : On-site basis accuracy parameter (for Gram-Schmidt orthonormalisation) not specified.
  Using default value basis_acc =  0.1000000E-03.
  Species O                   : Using default innermost maximum threshold i_radial=  2 for radial functions.
  Species O                   : Default cutoff onset for free atom density etc. : 0.40000000E+01 AA.
  Species O                   : Basic radial grid will be enhanced according to radial_multiplier =   2, to contain    73 grid points.
 
  Finished reading input file 'control.in'. Consistency checks are next.
 
  Target number of points in a grid batch is not set. Defaulting to  100
  Method for grid partitioning is not set. Defaulting to parallel hash+maxmin partitioning.
  Batch size limit is not set. Defaulting to    200
  By default, will store active basis functions for each batch.
  If in need of memory, prune_basis_once .false. can be used to disable this option.
  communication_type for Hartree potential was not specified.
  Defaulting to calc_hartree .
  Pulay mixer: Number of initial linear mixing iterations not set.
  Defaulting to    0 iterations.
  Work space size for distributed Hartree potential not set.
  Defaulting to   0.200000E+03 MB.
  Algorithm-dependent basis array size parameters:
  | n_max_pulay                         :       10
  Geometry relaxation not requested: no relaxation will be performed.
  Handling of forces: Unphysical translation and rotation will be removed from forces.
  No accuracy limit for integral partition fn. given. Defaulting to  0.1000E-14.
  No threshold value for u(r) in integrations given. Defaulting to  0.1000E-05.
  No accuracy for occupation numbers given. Defaulting to  0.1000E-07.
  No threshold value for occupation numbers given. Defaulting to  0.0000E+00.
  No accuracy for fermi level given. Defaulting to  0.1000E-19.
  Maximum # of iterations to find E_F not set. Defaulting to  200.
  Preferred method for the eigenvalue solver ('KS_method') not specified in 'control.in'.
  Calling blacs routine to test compilation state
  Since scalapack support is enabled, defaulting to 'elpa'.
  Preferred method for the MBD eigenvalue solver ('mbd_eigensolver') not specified in 'control.in'.
  Calling blacs routine to test compilation state
  Since scalapack support is enabled, defaulting to 'scaLAPACK'.
  Will not use alltoall communication since running on < 1024 CPUs.
  Threshold for basis singularities not set.
  Default threshold for basis singularities:  0.1000E-04
  partition_type (choice of integration weights) for integrals was not specified.
  | Using a version of the partition function of Stratmann and coworkers ('stratmann_smoother').
  | At each grid point, the set of atoms used to build the partition table is smoothly restricted to
  | only those atoms whose free-atom density would be non-zero at that grid point.
  Partitioning for Hartree potential was not defined. Using partition_type for integrals.
  | Adjusted default value of keyword multip_moments_threshold to:       0.10000000E-11
  | This value may affect high angular momentum components of the Hartree potential in periodic systems.
  No q(lm)/r^(l+1) cutoff set for long-range Hartree potential.
  | Using default value of  0.100000E-09 .
  | Verify using the multipole_threshold keyword.
  Defaulting to new monopole extrapolation.
  Density update method: automatic selection selected.
------------------------------------------------------------


------------------------------------------------------------
          Reading geometry description geometry.in.
------------------------------------------------------------
 * Warning! You did not set the 'relativistic' flag in input file 'control.in'.
 * Since you are not attempting to treat any elements beyond Ca(Z=20), FHI-aims
 * will default to 'relativistic none'.
 * You must ensure that this is really what you want!!
 * For example, DO NOT compute total-energy differences between results from
 * different settings of the 'relativistic' flag.
  Input structure read successfully.
  The structure contains       32 atoms,  and a total of        116.000 electrons.

  Input geometry:
  | No unit cell requested.
  | Atomic structure:
  |       Atom                x [A]            y [A]            z [A]
  |    1: Species C             -0.069312        -0.507010         0.496804
  |    2: Species C             -0.222499        -0.077713         1.940566
  |    3: Species O              0.607122        -0.385833         2.793243
  |    4: Species H              0.804692        -1.161675         0.441631
  |    5: Species H              0.095530         0.358717        -0.158529
  |    6: Species H             -0.960574        -1.042856         0.147347
  |    7: Species N             -1.295586         0.715177         2.315336
  |    8: Species C             -2.557296         1.050117         1.645273
  |    9: Species C             -3.510403        -0.166381         1.679214
  |   10: Species O             -3.313389        -1.152494         0.974567
  |   11: Species H             -1.350330         0.771749         3.332205
  |   12: Species H             -2.974496         1.860893         2.258153
  |   13: Species C             -2.436506         1.597180         0.222449
  |   14: Species H             -3.393582         2.045396        -0.077109
  |   15: Species H             -2.200504         0.810003        -0.499643
  |   16: Species H             -1.662376         2.373601         0.179505
  |   17: Species N             -4.575121        -0.125104         2.543555
  |   18: Species C             -5.009454         0.929390         3.441675
  |   19: Species C             -3.921427         1.318970         4.475406
  |   20: Species O             -3.101026         0.513815         4.902805
  |   21: Species H             -5.085590        -1.003509         2.581660
  |   22: Species H             -5.275207         1.829918         2.857823
  |   23: Species C             -6.259276         0.453301         4.193087
  |   24: Species H             -6.638587         1.239488         4.856689
  |   25: Species H             -6.018751        -0.425048         4.807117
  |   26: Species H             -7.056454         0.187826         3.486090
  |   27: Species N             -3.981769         2.622420         4.873252
  |   28: Species C             -3.101619         3.178539         5.885704
  |   29: Species H             -4.677265         3.224431         4.447627
  |   30: Species H             -3.670111         3.535509         6.755562
  |   31: Species H             -2.508468         4.009651         5.480596
  |   32: Species H             -2.423123         2.381031         6.206381
  |

  | The smallest distance between any two atoms is         1.01355313 AA.
  |
  | The first atom of this pair is atom number                     27 .
  | The second atom of this pair is atom number                    29 .

  Number of empty states per atom not set in control.in - providing a guess from actual geometry.
  | Total number of empty states used during s.c.f. cycle:       71
  If you use a very high smearing, use empty_states (per atom!) in control.in to increase this value.

  Structure-dependent array size parameters: 
  | Maximum number of distinct radial functions  :       40
  | Maximum number of basis functions            :      840
  | Number of Kohn-Sham states (occupied + empty):      129
------------------------------------------------------------

------------------------------------------------------------
          Preparing all fixed parts of the calculation.
------------------------------------------------------------
  Determining machine precision:
    2.225073858507201E-308
  Setting up grids for atomic and cluster calculations.

  Creating wave function, potential, and density for free atoms.

  Species: H

  List of occupied orbitals and eigenvalues:
    n    l              occ      energy [Ha]    energy [eV]
    1    0           1.0000        -0.238382        -6.4867


  Species: C

  List of occupied orbitals and eigenvalues:
    n    l              occ      energy [Ha]    energy [eV]
    1    0           2.0000       -10.041232      -273.2358
    2    0           2.0000        -0.504327       -13.7234
    2    1           2.0000        -0.193750        -5.2722


  Species: N

  List of occupied orbitals and eigenvalues:
    n    l              occ      energy [Ha]    energy [eV]
    1    0           2.0000       -14.129007      -384.4699
    2    0           2.0000        -0.681802       -18.5528
    2    1           3.0000        -0.260543        -7.0897


  Species: O

  List of occupied orbitals and eigenvalues:
    n    l              occ      energy [Ha]    energy [eV]
    1    0           2.0000       -18.898576      -514.2564
    2    0           2.0000        -0.878795       -23.9132
    2    1           4.0000        -0.332075        -9.0362

  Creating fixed part of basis set: Ionic, confined, hydrogenic.
 
  H                    hydrogenic:
 
  List of hydrogenic basis orbitals: 
    n    l      effective z      eigenvalue [eV]  inner max. [A]     outer max. [A]     outer radius [A]   
    2    0         2.100000       -14.9965           0.193243           1.317208           5.373006
    2    1         3.500000       -41.6672           0.602369           0.602369           4.056063
    1    0         0.850000        -9.8292           0.624871           0.624871           5.373006
    2    1         3.700000       -46.5653           0.573622           0.573622           3.910002
    2    0         1.200000        -4.5995           0.334980           2.228188           5.505995
    3    2         7.000000       -74.0753           0.680699           0.680699           3.769201
 
 
  C                    hydrogenic:
 
  List of hydrogenic basis orbitals: 
    n    l      effective z      eigenvalue [eV]  inner max. [A]     outer max. [A]     outer radius [A]   
    2    1         1.700000        -9.8152           1.245706           1.245706           5.401630
    3    2         6.000000       -54.4226           0.792453           0.792453           4.178599
    2    0         4.900000       -81.6681           0.082559           0.562749           3.353238
    4    3         9.800000       -81.6681           0.863254           0.863254           4.028125
    3    1         5.200000       -40.8774           0.305389           1.215618           4.898362
    3    0         4.300000       -27.9508           0.091041           1.610311           5.401630
    5    4        14.400000      -112.8510           0.917666           0.917666           3.883070
    3    2         6.200000       -58.1113           0.763917           0.763917           4.077671
 
 
  N                    hydrogenic:
 
  List of hydrogenic basis orbitals: 
    n    l      effective z      eigenvalue [eV]  inner max. [A]     outer max. [A]     outer radius [A]   
    2    1         1.800000       -11.0118           1.177451           1.177451           5.427479
    3    2         6.800000       -69.9029           0.704619           0.704619           3.854246
    3    0         5.800000       -50.8549           0.067388           1.191934           4.629968
    4    3        10.800000       -99.1854           0.786571           0.786571           3.761152
    3    1         5.800000       -50.8549           0.274880           1.094176           4.518138
    1    0         0.800000        -8.7059           0.662839           0.662839           5.361532
    5    4        16.000000      -139.3222           0.825990           0.825990           3.625711
    3    2         4.900000       -36.2967           0.968267           0.968267           4.862000
 
 
  O                    hydrogenic:
 
  List of hydrogenic basis orbitals: 
    n    l      effective z      eigenvalue [eV]  inner max. [A]     outer max. [A]     outer radius [A]   
    2    1         1.800000       -11.0118           1.178562           1.178562           5.432602
    3    2         7.600000       -87.3182           0.624125           0.624125           3.541477
    3    0         6.400000       -61.9209           0.061167           1.081902           4.306578
    4    3        11.600000      -114.4238           0.731631           0.731631           3.585037
    3    1         6.200000       -58.1113           0.255680           1.030270           4.306578
    3    2         5.600000       -47.4081           0.847233           0.847233           4.413171
    5    4        17.600000      -168.5799           0.749740           0.749740           3.372465
    1    0         0.750000        -7.6499           0.705284           0.705284           5.366593
 

  Adding cutoff potential to free-atom effective potential.
  Creating atomic-like basis functions for current effective potential.

  Species H                   :

  List of atomic basis orbitals and eigenvalues:
    n    l      energy [Ha]    energy [eV]    outer radius [A]
    1    0        -0.238382        -6.4867       5.373006


  Species C                   :

  List of atomic basis orbitals and eigenvalues:
    n    l      energy [Ha]    energy [eV]    outer radius [A]
    1    0       -10.041232      -273.2358       1.934409
    2    0        -0.504327       -13.7234       5.271162
    2    1        -0.193750        -5.2722       5.401630


  Species N                   :

  List of atomic basis orbitals and eigenvalues:
    n    l      energy [Ha]    energy [eV]    outer radius [A]
    1    0       -14.129007      -384.4699       1.637919
    2    0        -0.681802       -18.5528       5.168461
    2    1        -0.260543        -7.0897       5.361532


  Species O                   :

  List of atomic basis orbitals and eigenvalues:
    n    l      energy [Ha]    energy [eV]    outer radius [A]
    1    0       -18.898576      -514.2564       1.415765
    2    0        -0.878795       -23.9132       5.048385
    2    1        -0.332075        -9.0362       5.301386

  Assembling full basis from fixed parts.
  | Species H :   atomic orbital   1 s accepted.
  | Species H :    hydro orbital   2 s accepted.
  | Species H :    hydro orbital   1 s accepted.
  | Species H :    hydro orbital   2 s accepted.
  | Species H :    hydro orbital   2 p accepted.
  | Species H :    hydro orbital   2 p accepted.
  | Species H :    hydro orbital   3 d accepted.
  | Species C :   atomic orbital   1 s accepted.
  | Species C :    hydro orbital   2 s accepted.
  | Species C :   atomic orbital   2 s accepted.
  | Species C :    hydro orbital   3 s accepted.
  | Species C :    hydro orbital   3 p accepted.
  | Species C :   atomic orbital   2 p accepted.
  | Species C :    hydro orbital   2 p accepted.
  | Species C :    hydro orbital   3 d accepted.
  | Species C :    hydro orbital   3 d accepted.
  | Species C :    hydro orbital   4 f accepted.
  | Species C :    hydro orbital   5 g accepted.
  | Species N :   atomic orbital   1 s accepted.
  | Species N :    hydro orbital   3 s accepted.
  | Species N :   atomic orbital   2 s accepted.
  | Species N :    hydro orbital   1 s accepted.
  | Species N :    hydro orbital   3 p accepted.
  | Species N :   atomic orbital   2 p accepted.
  | Species N :    hydro orbital   2 p accepted.
  | Species N :    hydro orbital   3 d accepted.
  | Species N :    hydro orbital   3 d accepted.
  | Species N :    hydro orbital   4 f accepted.
  | Species N :    hydro orbital   5 g accepted.
  | Species O :   atomic orbital   1 s accepted.
  | Species O :    hydro orbital   3 s accepted.
  | Species O :   atomic orbital   2 s accepted.
  | Species O :    hydro orbital   1 s accepted.
  | Species O :    hydro orbital   3 p accepted.
  | Species O :   atomic orbital   2 p accepted.
  | Species O :    hydro orbital   2 p accepted.
  | Species O :    hydro orbital   3 d accepted.
  | Species O :    hydro orbital   3 d accepted.
  | Species O :    hydro orbital   4 f accepted.
  | Species O :    hydro orbital   5 g accepted.
 
  Basis size parameters after reduction:
  | Total number of radial functions:       40
  | Total number of basis functions :      840
 
  Testing on-site integration grid accuracy.
  |  Species  Function  <phi|h_atom|phi> (log., in eV)  <phi|h_atom|phi> (rad., in eV)
           1        1                 -6.4869821809                 -6.4870742227
           1        2                 13.5044133542                 13.5041049177
           1        3                 32.7854418792                 32.7779770519
           1        4                 33.7995553101                 33.7152624900 ***
           1        5                 28.8558651799                 28.8558652046
           1        6                 59.6361831893                 59.6362535845
           1        7                 60.2733718049                 60.2733715484
           2        8               -273.2358277112               -273.2358261765
           2        9                -10.7624923123                -10.7625144012
           2       10                 17.4634079027                 17.4634252127
           2       11                 53.0363661832                 53.0366180446
           2       12                 15.0981351967                 15.0981317714
           2       13                  3.8522181899                  3.8522770949
           2       14                 12.1181835661                 12.1206868578
           2       15                 29.4320778347                 29.4320780959
           2       16                 54.8753777694                 54.8752901936
           2       17                 59.3533975461                 59.3533974833
           2       18                 93.4537491195                 93.4537492066
           3       19               -384.4698526889               -384.4698499465
           3       20                 12.5691022037                 12.5690910168
           3       21                -15.7489097511                -15.7489165588
           3       22                 27.0978334940                 27.0985589490
           3       23                 18.5949116966                 18.5949125562
           3       24                  1.2212828291                  1.2212855301
           3       25                 13.4428926797                 13.4434051125
           3       26                 35.9380614500                 35.9380613666
           3       27                 39.9231532098                 39.9231654735
           3       28                 72.9957335806                 72.9957336833
           3       29                116.4231321147                116.4231321431
           4       30               -514.2564144315               -514.2564099626
           4       31                 15.1726678541                 15.1726530877
           4       32                -21.5447785304                -21.5447874973
           4       33                 14.4944558459                 14.4944698284
           4       34                 20.8882174564                 20.8882178906
           4       35                 -2.4850315908                 -2.4850322289
           4       36                 13.8600193195                 13.8599826966
           4       37                 45.8243383616                 45.8243383675
           4       38                 52.1840606465                 52.1840622440
           4       39                 85.4074185510                 85.4074185819
           4       40                142.0983717302                142.0983717339
 * Note: Onsite integrals marked "***" above are less accurate than
 * onsite_accuracy_threshold =    0.03000 eV. Usually, this is harmless.
 * When in doubt, tighten the "radial" and/or "radial_multiplier" flags to check.

  Preparing densities etc. for the partition functions (integrals / Hartree potential).

  Preparations completed.
  max(cpu_time)          :      0.240 s.
  Wall clock time (cpu1) :      0.239 s.
------------------------------------------------------------

------------------------------------------------------------
          Begin self-consistency loop: Initialization.

          Date     :  20170309, Time     :  180541.493
------------------------------------------------------------

  Initializing index lists of integration centers etc. from given atomic structure:
  | Number of centers in hartree potential         :        32
  | Number of centers in hartree multipole         :        32
  | Number of centers in electron density summation:        32
  | Number of centers in basis integrals           :        32
  | Number of centers in integrals                 :        32
  | Number of centers in hamiltonian               :        32
  Using modified Scalapack Eigenvalue solver (ELPA)
  * Using 32 tasks for Scalapack Eigenvalue solver.
  Detailed listing of tasks and assigned k-points:
  (for non-periodic systems, the "k-point" denotes an internal label only)
   Task     0 k-point     1 on eos383
   Task     1 k-point     1 on eos383
   Task     2 k-point     1 on eos383
   Task     3 k-point     1 on eos383
   Task     4 k-point     1 on eos383
   Task     5 k-point     1 on eos383
   Task     6 k-point     1 on eos383
   Task     7 k-point     1 on eos383
   Task     8 k-point     1 on eos383
   Task     9 k-point     1 on eos383
   Task    10 k-point     1 on eos383
   Task    11 k-point     1 on eos383
   Task    12 k-point     1 on eos383
   Task    13 k-point     1 on eos383
   Task    14 k-point     1 on eos383
   Task    15 k-point     1 on eos383
   Task    16 k-point     1 on eos383
   Task    17 k-point     1 on eos383
   Task    18 k-point     1 on eos383
   Task    19 k-point     1 on eos383
   Task    20 k-point     1 on eos383
   Task    21 k-point     1 on eos383
   Task    22 k-point     1 on eos383
   Task    23 k-point     1 on eos383
   Task    24 k-point     1 on eos383
   Task    25 k-point     1 on eos383
   Task    26 k-point     1 on eos383
   Task    27 k-point     1 on eos383
   Task    28 k-point     1 on eos383
   Task    29 k-point     1 on eos383
   Task    30 k-point     1 on eos383
   Task    31 k-point     1 on eos383
  Tasks:    32 split into      8 X      4 BLACS grid
  Calculating blocksize based on n_basis =          840 max_nprow =            8 max_npcol =            4
  Scalapack blocksize set to:           16
  Required Scalapack workspace - INTEGER:            1 REAL:             1
  Partitioning the integration grid into batches with parallel hashing+maxmin method.
  | Number of batches:     4943
  | Maximal batch size:     194
  | Minimal batch size:      30
  | Average batch size:     106.763
  | Standard deviation of batch sizes:      35.749

  Integration load balanced across    32 MPI tasks.
  Work distribution over tasks is as follows:
  Task     0 has      16526 integration points.
  Task     1 has      16397 integration points.
  Task     2 has      16416 integration points.
  Task     3 has      16535 integration points.
  Task     4 has      16523 integration points.
  Task     5 has      16408 integration points.
  Task     6 has      16543 integration points.
  Task     7 has      16439 integration points.
  Task     8 has      16540 integration points.
  Task     9 has      16531 integration points.
  Task    10 has      16441 integration points.
  Task    11 has      16537 integration points.
  Task    12 has      16552 integration points.
  Task    13 has      16426 integration points.
  Task    14 has      16547 integration points.
  Task    15 has      16397 integration points.
  Task    16 has      16542 integration points.
  Task    17 has      16400 integration points.
  Task    18 has      16549 integration points.
  Task    19 has      16538 integration points.
  Task    20 has      16530 integration points.
  Task    21 has      16545 integration points.
  Task    22 has      16548 integration points.
  Task    23 has      16451 integration points.
  Task    24 has      16411 integration points.
  Task    25 has      16541 integration points.
  Task    26 has      16417 integration points.
  Task    27 has      16505 integration points.
  Task    28 has      16529 integration points.
  Task    29 has      16515 integration points.
  Task    30 has      16552 integration points.
  Task    31 has      16397 integration points.
  Initializing partition tables, free-atom densities, potentials, etc. across the integration grid (initialize_grid_storage).
  | initialize_grid_storage: Actual outermost partition radius vs. multipole_radius_free
  | (-- VB: in principle, multipole_radius_free should be larger, hence this output)
  | Species        1: Confinement radius =              6.000000000000000 AA, multipole_radius_free =              6.071692442739658 AA.
  | Species        1: outer_partition_radius set to              6.071692442739658 AA .
  | Species        2: Confinement radius =              6.000000000000000 AA, multipole_radius_free =              6.029870734432609 AA.
  | Species        2: outer_partition_radius set to              6.029870734432609 AA .
  | Species        3: Confinement radius =              6.000000000000000 AA, multipole_radius_free =              6.058726835495003 AA.
  | Species        3: outer_partition_radius set to              6.058726835495003 AA .
  | Species        4: Confinement radius =              6.000000000000000 AA, multipole_radius_free =              6.064445521808699 AA.
  | Species        4: outer_partition_radius set to              6.064445521808699 AA .
  | Original list of interatomic distances with          32 x         32 entries is created.
  | Net number of integration points:   527728
  | of which are non-zero points    :   415336
  Obtaining max. number of non-zero basis functions in each batch (get_n_compute_maxes).
  | Maximal number of non-zero basis functions:      771 in task     0
  | Maximal number of non-zero basis functions:      793 in task     1
  | Maximal number of non-zero basis functions:      796 in task     2
  | Maximal number of non-zero basis functions:      790 in task     3
  | Maximal number of non-zero basis functions:      772 in task     4
  | Maximal number of non-zero basis functions:      781 in task     5
  | Maximal number of non-zero basis functions:      770 in task     6
  | Maximal number of non-zero basis functions:      776 in task     7
  | Maximal number of non-zero basis functions:      780 in task     8
  | Maximal number of non-zero basis functions:      776 in task     9
  | Maximal number of non-zero basis functions:      782 in task    10
  | Maximal number of non-zero basis functions:      795 in task    11
  | Maximal number of non-zero basis functions:      787 in task    12
  | Maximal number of non-zero basis functions:      789 in task    13
  | Maximal number of non-zero basis functions:      778 in task    14
  | Maximal number of non-zero basis functions:      782 in task    15
  | Maximal number of non-zero basis functions:      776 in task    16
  | Maximal number of non-zero basis functions:      785 in task    17
  | Maximal number of non-zero basis functions:      784 in task    18
  | Maximal number of non-zero basis functions:      776 in task    19
  | Maximal number of non-zero basis functions:      768 in task    20
  | Maximal number of non-zero basis functions:      782 in task    21
  | Maximal number of non-zero basis functions:      792 in task    22
  | Maximal number of non-zero basis functions:      769 in task    23
  | Maximal number of non-zero basis functions:      790 in task    24
  | Maximal number of non-zero basis functions:      765 in task    25
  | Maximal number of non-zero basis functions:      793 in task    26
  | Maximal number of non-zero basis functions:      790 in task    27
  | Maximal number of non-zero basis functions:      752 in task    28
  | Maximal number of non-zero basis functions:      779 in task    29
  | Maximal number of non-zero basis functions:      766 in task    30
  | Maximal number of non-zero basis functions:      793 in task    31
  Selecting the method for density update.
  Loop over occupied states selected for charge density update.
  Integrating Hamiltonian matrix: batch-based integration.
  Time summed over all CPUs for integration: real work       21.992 s, elapsed       23.069 s
  Integrating overlap matrix.
  Time summed over all CPUs for integration: real work       13.488 s, elapsed       14.110 s
  Deallocating overlap matrix.

  Updating Kohn-Sham eigenvalues, eigenvectors, occupation numbers, and Fermi level.
  Solving generalized eigenproblem
  Solving real symmetric generalised eigenvalue problem by standard ScaLAPACK.
  Transforming overlap matrix with ScaLAPACK and checking for singularities.
  : Overlap matrix is nonsingular, using Cholesky decomposition
  | Lowest eigenvalue:  0.965185E-04
  Factoring overlap matrix with Cholesky decomposition
  Using Cholesky factor for transformation
  Using 1-stage real ELPA solver
  Determining occupation numbers for Kohn-Sham eigenstates.
  | Chemical potential (Fermi level) in eV                 : -.96085258E+01
  | Error in electron count due to remaining E_F inaccuracy: 0.00000000E+00
  | Maximum occupation number of highest empty state:  0.00E+00

  Writing Kohn-Sham eigenvalues.

  State    Occupation    Eigenvalue [Ha]    Eigenvalue [eV]
      1       2.00000         -18.975266         -516.34326
      2       2.00000         -18.974539         -516.32346
      3       2.00000         -18.974081         -516.31100
      4       2.00000         -14.256037         -387.92649
      5       2.00000         -14.254121         -387.87438
      6       2.00000         -14.249513         -387.74897
      7       2.00000         -10.171566         -276.78240
      8       2.00000         -10.171558         -276.78217
      9       2.00000         -10.170900         -276.76427
     10       2.00000         -10.166764         -276.65173
     11       2.00000         -10.148135         -276.14481
     12       2.00000         -10.148003         -276.14120
     13       2.00000         -10.134799         -275.78191
     14       2.00000         -10.134712         -275.77954
     15       2.00000         -10.133392         -275.74362
     16       2.00000          -1.135242          -30.89151
     17       2.00000          -1.132082          -30.80552
     18       2.00000          -1.130082          -30.75109
     19       2.00000          -1.016332          -27.65581
     20       2.00000          -1.012325          -27.54678
     21       2.00000          -1.004447          -27.33240
     22       2.00000          -0.883685          -24.04630
     23       2.00000          -0.875621          -23.82686
     24       2.00000          -0.850319          -23.13835
     25       2.00000          -0.820152          -22.31747
     26       2.00000          -0.772428          -21.01883
     27       2.00000          -0.757718          -20.61855
     28       2.00000          -0.703743          -19.14983
     29       2.00000          -0.686900          -18.69149
     30       2.00000          -0.667362          -18.15983
     31       2.00000          -0.640894          -17.43960
     32       2.00000          -0.617263          -16.79659
     33       2.00000          -0.613002          -16.68063
     34       2.00000          -0.606421          -16.50154
     35       2.00000          -0.594805          -16.18547
     36       2.00000          -0.590751          -16.07515
     37       2.00000          -0.566216          -15.40751
     38       2.00000          -0.562824          -15.31522
     39       2.00000          -0.557681          -15.17526
     40       2.00000          -0.552370          -15.03075
     41       2.00000          -0.547080          -14.88680
     42       2.00000          -0.536771          -14.60627
     43       2.00000          -0.532190          -14.48163
     44       2.00000          -0.528480          -14.38067
     45       2.00000          -0.521266          -14.18437
     46       2.00000          -0.514687          -14.00534
     47       2.00000          -0.512609          -13.94881
     48       2.00000          -0.503745          -13.70761
     49       2.00000          -0.490933          -13.35895
     50       2.00000          -0.488966          -13.30545
     51       2.00000          -0.482107          -13.11880
     52       2.00000          -0.480852          -13.08464
     53       2.00000          -0.414705          -11.28469
     54       2.00000          -0.407627          -11.09209
     55       2.00000          -0.401458          -10.92422
     56       2.00000          -0.386279          -10.51118
     57       2.00000          -0.380728          -10.36013
     58       2.00000          -0.375406          -10.21530
     59       0.00000          -0.174850           -4.75791
     60       0.00000          -0.162452           -4.42054
     61       0.00000          -0.150836           -4.10447
     62       0.00000          -0.084115           -2.28888
     63       0.00000          -0.063173           -1.71903
     64       0.00000          -0.056826           -1.54632
     65       0.00000          -0.051298           -1.39589
     66       0.00000          -0.045015           -1.22491
     67       0.00000          -0.039200           -1.06669
     68       0.00000          -0.030369           -0.82639
     69       0.00000          -0.024954           -0.67902
     70       0.00000          -0.023413           -0.63710
     71       0.00000          -0.022423           -0.61016
     72       0.00000          -0.013369           -0.36379
     73       0.00000          -0.012132           -0.33013
     74       0.00000          -0.009519           -0.25901
     75       0.00000          -0.004034           -0.10978
     76       0.00000          -0.001765           -0.04802
     77       0.00000           0.002836            0.07718
     78       0.00000           0.005831            0.15868
     79       0.00000           0.011177            0.30416
     80       0.00000           0.015816            0.43038
     81       0.00000           0.019623            0.53396
     82       0.00000           0.024248            0.65983
     83       0.00000           0.029498            0.80269
     84       0.00000           0.032830            0.89335
     85       0.00000           0.044890            1.22151
     86       0.00000           0.047232            1.28525
     87       0.00000           0.049469            1.34611
     88       0.00000           0.056955            1.54981
     89       0.00000           0.068424            1.86192
     90       0.00000           0.071852            1.95520
     91       0.00000           0.076221            2.07409
     92       0.00000           0.078201            2.12795
     93       0.00000           0.088479            2.40763
     94       0.00000           0.092303            2.51169
     95       0.00000           0.097426            2.65109
     96       0.00000           0.105539            2.87186
     97       0.00000           0.109203            2.97155
     98       0.00000           0.110169            2.99784
     99       0.00000           0.118424            3.22247
    100       0.00000           0.120708            3.28462
    101       0.00000           0.128293            3.49102
    102       0.00000           0.134096            3.64894
    103       0.00000           0.144398            3.92928
    104       0.00000           0.147100            4.00281
    105       0.00000           0.151114            4.11201
    106       0.00000           0.153798            4.18507
    107       0.00000           0.157258            4.27920
    108       0.00000           0.158354            4.30904
    109       0.00000           0.169874            4.62251
    110       0.00000           0.174956            4.76079
    111       0.00000           0.176666            4.80733
    112       0.00000           0.181036            4.92623
    113       0.00000           0.186607            5.07782
    114       0.00000           0.188564            5.13108
    115       0.00000           0.193358            5.26153
    116       0.00000           0.197484            5.37381
    117       0.00000           0.199265            5.42228
    118       0.00000           0.202231            5.50298
    119       0.00000           0.206729            5.62539
    120       0.00000           0.212868            5.79242
    121       0.00000           0.216130            5.88119
    122       0.00000           0.224088            6.09774
    123       0.00000           0.227318            6.18563
    124       0.00000           0.235189            6.39981
    125       0.00000           0.244942            6.66521
    126       0.00000           0.249077            6.77774
    127       0.00000           0.250974            6.82934
    128       0.00000           0.260658            7.09287
    129       0.00000           0.264393            7.19450

  Highest occupied state (VBM) at    -10.21530365 eV
  | Occupation number:      2.00000000

  Lowest unoccupied state (CBM) at    -4.75790959 eV
  | Occupation number:      0.00000000

  Overall HOMO-LUMO gap:      5.45739406 eV.
  Calculating total energy contributions from superposition of free atom densities.

  Total energy components:
  | Sum of eigenvalues            :        -437.83986943 Ha      -11914.22903655 eV
  | XC energy correction          :         -98.81638578 Ha       -2688.93066846 eV
  | XC potential correction       :         127.01635951 Ha        3456.29099655 eV
  | Free-atom electrostatic energy:        -333.64013993 Ha       -9078.81013221 eV
  | Hartree energy correction     :           0.00000000 Ha           0.00000000 eV
  | vdW energy correction         :           0.00000000 Ha           0.00000000 eV
  | Entropy correction            :          -0.00000000 Ha          -0.00000000 eV
  | ---------------------------
  | Total energy                  :        -743.28003563 Ha      -20225.67884066 eV
  | Total energy, T -> 0          :        -743.28003563 Ha      -20225.67884066 eV  <-- do not rely on this value for anything but (periodic) metals
  | Electronic free energy        :        -743.28003563 Ha      -20225.67884066 eV

  Derived energy quantities:
  | Kinetic energy                :         735.15479544 Ha       20004.57980562 eV
  | Electrostatic energy          :       -1379.61844528 Ha      -37541.32797782 eV
  | Energy correction for multipole
  | error in Hartree potential    :           0.00000000 Ha           0.00000000 eV
  | Sum of eigenvalues per atom                           :        -372.31965739 eV
  | Total energy (T->0) per atom                          :        -632.05246377 eV  <-- do not rely on this value for anything but (periodic) metals
  | Electronic free energy per atom                       :        -632.05246377 eV
  Initialize hartree_potential_storage
  Max. number of atoms included in rho_multipole:           32

  End scf initialization - timings             :  max(cpu_time)    wall_clock(cpu1)
  | Time for scf. initialization               :        1.972 s           1.974 s
  | Boundary condition initialization          :        0.000 s           0.000 s
  | Integration                                :        1.184 s           1.183 s
  | Solution of K.-S. eqns.                    :        0.076 s           0.075 s
  | Grid partitioning                          :        0.372 s           0.370 s
  | Preloading free-atom quantities on grid    :        0.028 s           0.027 s
  | Free-atom superposition energy             :        0.040 s           0.039 s
  | Total energy evaluation                    :        0.004 s           0.000 s
------------------------------------------------------------

------------------------------------------------------------
          Begin self-consistency iteration #    1

  Date     :  20170309, Time     :  180543.467
------------------------------------------------------------
  Evaluating new KS density.
  Integration grid: deviation in total charge (<rho> - N_e) =   7.105427E-14
  Pulay mixing of updated and previous charge densities.

  Evaluating partitioned Hartree potential by multipole expansion.
  | Analytical far-field extrapolation by fixed multipoles:
  | Hartree multipole sum: apparent total charge =  -0.103423E-04
  Summing up the Hartree potential.
  Time summed over all CPUs for potential: real work        9.539 s, elapsed        9.727 s
  | RMS charge density error from multipole expansion :   0.106953E-01

  Integrating Hamiltonian matrix: batch-based integration.
  Time summed over all CPUs for integration: real work       21.764 s, elapsed       22.745 s

  Updating Kohn-Sham eigenvalues, eigenvectors, occupation numbers, and Fermi level.
  Solving generalized eigenproblem
  Solving real symmetric generalised eigenvalue problem by standard ScaLAPACK.
  Using Cholesky factor for transformation
  Using 2-stage real ELPA solver
  K-Point:    1, Trafo times: 1-stage=     0.021 s, 2-stage=     0.019 s ==> Using 2-stage solver
  Determining occupation numbers for Kohn-Sham eigenstates.
  | Chemical potential (Fermi level) in eV                 : -.32334633E+01
  | Error in electron count due to remaining E_F inaccuracy: 0.00000000E+00
  | Maximum occupation number of highest empty state:  0.00E+00

  Writing Kohn-Sham eigenvalues.

  State    Occupation    Eigenvalue [Ha]    Eigenvalue [eV]
      1       2.00000         -18.627416         -506.87777
      2       2.00000         -18.615618         -506.55675
      3       2.00000         -18.590076         -505.86172
      4       2.00000         -14.005869         -381.11908
      5       2.00000         -13.994864         -380.81964
      6       2.00000         -13.967923         -380.08653
      7       2.00000         -10.064710         -273.87471
      8       2.00000         -10.055728         -273.63027
      9       2.00000         -10.030173         -272.93490
     10       2.00000          -9.985141         -271.70952
     11       2.00000          -9.964562         -271.14952
     12       2.00000          -9.892056         -269.17654
     13       2.00000          -9.857688         -268.24134
     14       2.00000          -9.837814         -267.70055
     15       2.00000          -9.824675         -267.34301
     16       2.00000          -0.974559          -26.51910
     17       2.00000          -0.960689          -26.14167
     18       2.00000          -0.935214          -25.44848
     19       2.00000          -0.875597          -23.82621
     20       2.00000          -0.871612          -23.71778
     21       2.00000          -0.843461          -22.95175
     22       2.00000          -0.746872          -20.32342
     23       2.00000          -0.722485          -19.65981
     24       2.00000          -0.684268          -18.61987
     25       2.00000          -0.677930          -18.44742
     26       2.00000          -0.631340          -17.17963
     27       2.00000          -0.627779          -17.08274
     28       2.00000          -0.576622          -15.69067
     29       2.00000          -0.566360          -15.41143
     30       2.00000          -0.530382          -14.43243
     31       2.00000          -0.516427          -14.05269
     32       2.00000          -0.496173          -13.50156
     33       2.00000          -0.477942          -13.00545
     34       2.00000          -0.467702          -12.72682
     35       2.00000          -0.451950          -12.29819
     36       2.00000          -0.437452          -11.90367
     37       2.00000          -0.427710          -11.63858
     38       2.00000          -0.411346          -11.19330
     39       2.00000          -0.407235          -11.08144
     40       2.00000          -0.399458          -10.86980
     41       2.00000          -0.397191          -10.80811
     42       2.00000          -0.390538          -10.62707
     43       2.00000          -0.383588          -10.43795
     44       2.00000          -0.381540          -10.38223
     45       2.00000          -0.377802          -10.28051
     46       2.00000          -0.369398          -10.05183
     47       2.00000          -0.363001           -9.87775
     48       2.00000          -0.352544           -9.59322
     49       2.00000          -0.346442           -9.42716
     50       2.00000          -0.341179           -9.28396
     51       2.00000          -0.332320           -9.04289
     52       2.00000          -0.322095           -8.76464
     53       2.00000          -0.246428           -6.70566
     54       2.00000          -0.240254           -6.53765
     55       2.00000          -0.227166           -6.18151
     56       2.00000          -0.223507           -6.08194
     57       2.00000          -0.202143           -5.50059
     58       2.00000          -0.187309           -5.09693
     59       0.00000          -0.062801           -1.70889
     60       0.00000          -0.056333           -1.53290
     61       0.00000          -0.047241           -1.28550
     62       0.00000          -0.023170           -0.63049
     63       0.00000          -0.021050           -0.57280
     64       0.00000          -0.016610           -0.45197
     65       0.00000          -0.011765           -0.32015
     66       0.00000           0.001164            0.03166
     67       0.00000           0.010613            0.28879
     68       0.00000           0.014040            0.38206
     69       0.00000           0.022071            0.60057
     70       0.00000           0.023520            0.64002
     71       0.00000           0.035085            0.95472
     72       0.00000           0.039555            1.07634
     73       0.00000           0.044604            1.21373
     74       0.00000           0.049325            1.34221
     75       0.00000           0.053535            1.45677
     76       0.00000           0.063954            1.74027
     77       0.00000           0.067175            1.82792
     78       0.00000           0.069150            1.88167
     79       0.00000           0.073837            2.00920
     80       0.00000           0.086900            2.36466
     81       0.00000           0.088073            2.39660
     82       0.00000           0.094168            2.56245
     83       0.00000           0.101053            2.74980
     84       0.00000           0.106713            2.90381
     85       0.00000           0.107622            2.92855
     86       0.00000           0.111316            3.02906
     87       0.00000           0.121170            3.29721
     88       0.00000           0.123385            3.35748
     89       0.00000           0.129638            3.52763
     90       0.00000           0.133854            3.64234
     91       0.00000           0.137795            3.74959
     92       0.00000           0.143262            3.89835
     93       0.00000           0.145561            3.96091
     94       0.00000           0.156590            4.26104
     95       0.00000           0.161337            4.39019
     96       0.00000           0.171377            4.66339
     97       0.00000           0.178030            4.84443
     98       0.00000           0.181264            4.93245
     99       0.00000           0.182708            4.97173
    100       0.00000           0.191243            5.20398
    101       0.00000           0.193241            5.25835
    102       0.00000           0.199110            5.41806
    103       0.00000           0.202843            5.51963
    104       0.00000           0.206215            5.61139
    105       0.00000           0.210016            5.71482
    106       0.00000           0.214337            5.83242
    107       0.00000           0.220220            5.99250
    108       0.00000           0.223003            6.06823
    109       0.00000           0.228545            6.21903
    110       0.00000           0.232722            6.33270
    111       0.00000           0.240876            6.55456
    112       0.00000           0.243542            6.62712
    113       0.00000           0.245493            6.68019
    114       0.00000           0.251472            6.84289
    115       0.00000           0.255788            6.96036
    116       0.00000           0.260879            7.09887
    117       0.00000           0.261529            7.11655
    118       0.00000           0.267856            7.28872
    119       0.00000           0.272365            7.41143
    120       0.00000           0.275790            7.50462
    121       0.00000           0.289460            7.87661
    122       0.00000           0.294477            8.01314
    123       0.00000           0.298378            8.11927
    124       0.00000           0.306939            8.35222
    125       0.00000           0.315052            8.57301
    126       0.00000           0.320440            8.71962
    127       0.00000           0.325681            8.86224
    128       0.00000           0.331975            9.03351
    129       0.00000           0.338689            9.21619

  Highest occupied state (VBM) at     -5.09693357 eV
  | Occupation number:      2.00000000

  Lowest unoccupied state (CBM) at    -1.70889052 eV
  | Occupation number:      0.00000000

  Overall HOMO-LUMO gap:      3.38804305 eV.

  Total energy components:
  | Sum of eigenvalues            :        -417.43464719 Ha      -11358.97468839 eV
  | XC energy correction          :        -100.74840576 Ha       -2741.50360698 eV
  | XC potential correction       :         129.52195673 Ha        3524.47176572 eV
  | Free-atom electrostatic energy:        -333.64013993 Ha       -9078.81013221 eV
  | Hartree energy correction     :         -20.40947373 Ha        -555.37003702 eV
  | vdW energy correction         :           0.00000000 Ha           0.00000000 eV
  | Entropy correction            :           0.00000000 Ha           0.00000000 eV
  | ---------------------------
  | Total energy                  :        -742.71070988 Ha      -20210.18669888 eV
  | Total energy, T -> 0          :        -742.71070988 Ha      -20210.18669888 eV  <-- do not rely on this value for anything but (periodic) metals
  | Electronic free energy        :        -742.71070988 Ha      -20210.18669888 eV

  Derived energy quantities:
  | Kinetic energy                :         744.02481344 Ha       20245.94527600 eV
  | Electrostatic energy          :       -1385.98711756 Ha      -37714.62836791 eV
  | Energy correction for multipole
  | error in Hartree potential    :          -0.04125105 Ha          -1.12249811 eV
  | Sum of eigenvalues per atom                           :        -354.96795901 eV
  | Total energy (T->0) per atom                          :        -631.56833434 eV  <-- do not rely on this value for anything but (periodic) metals
  | Electronic free energy per atom                       :        -631.56833434 eV

  Self-consistency convergence accuracy:
  | Change of charge density      :  0.9029E+00
  | Change of sum of eigenvalues  :  0.5553E+03 eV
  | Change of total energy        :  0.1549E+02 eV

  End self-consistency iteration #     1       :  max(cpu_time)    wall_clock(cpu1)
  | Time for this iteration                    :        1.560 s           1.559 s
  | Charge density update                      :        0.492 s           0.489 s
[...]
   ----------------------------------------------------------------
   Total forces(  20)            : -0.193590E-02  0.215940E-02 -0.107498E-02
  atom #   21
   Hellmann-Feynman              :  0.487306E-01  0.194423E-01 -0.295026E-01
   Ionic forces                  :  0.000000E+00  0.000000E+00  0.000000E+00
   Multipole                     : -0.163138E-01  0.230410E-01  0.219964E-01
   Pulay + GGA                   : -0.476281E-01 -0.471498E-01  0.121394E-01
   Van der Waals                 :  0.149530E-01  0.492884E-02 -0.453862E-02
   ----------------------------------------------------------------
   Total forces(  21)            : -0.258283E-03  0.262310E-03  0.945383E-04
  atom #   22
   Hellmann-Feynman              : -0.263355E-02 -0.742685E-01  0.580895E-02
   Ionic forces                  :  0.000000E+00  0.000000E+00  0.000000E+00
   Multipole                     :  0.822132E-02 -0.615391E-02  0.481354E-02
   Pulay + GGA                   : -0.668927E-02  0.769204E-01 -0.718601E-02
   Van der Waals                 :  0.194799E-02  0.373207E-02 -0.409992E-02
   ----------------------------------------------------------------
   Total forces(  22)            :  0.846490E-03  0.230028E-03 -0.663441E-03
  atom #   23
   Hellmann-Feynman              : -0.876430E+00 -0.399542E+00  0.520611E+00
   Ionic forces                  :  0.000000E+00  0.000000E+00  0.000000E+00
   Multipole                     :  0.175553E+00  0.852491E-01 -0.113258E+00
   Pulay + GGA                   :  0.696855E+00  0.312822E+00 -0.400273E+00
   Van der Waals                 :  0.257562E-02  0.139324E-02 -0.645660E-02
   ----------------------------------------------------------------
   Total forces(  23)            : -0.144671E-02 -0.779862E-04  0.622620E-03
  atom #   24
   Hellmann-Feynman              :  0.321530E-01 -0.183150E-01 -0.266046E-01
   Ionic forces                  :  0.000000E+00  0.000000E+00  0.000000E+00
   Multipole                     : -0.122442E-01 -0.345628E-01 -0.451352E-02
   Pulay + GGA                   : -0.193865E-01  0.543620E-01  0.290224E-01
   Van der Waals                 : -0.677066E-03 -0.149256E-02  0.169114E-02
   ----------------------------------------------------------------
   Total forces(  24)            : -0.154743E-03 -0.832130E-05 -0.404579E-03
  atom #   25
   Hellmann-Feynman              :  0.274926E-01  0.358410E-01 -0.194347E-01
   Ionic forces                  :  0.000000E+00  0.000000E+00  0.000000E+00
   Multipole                     : -0.236488E-01  0.149947E-01 -0.120780E-01
   Pulay + GGA                   :  0.219252E-03 -0.522087E-01  0.235428E-01
   Van der Waals                 : -0.384678E-02  0.160890E-02  0.770391E-02
   ----------------------------------------------------------------
   Total forces(  25)            :  0.216305E-03  0.235834E-03 -0.265930E-03
  atom #   26
   Hellmann-Feynman              :  0.445609E-01  0.228088E-01 -0.220155E-02
   Ionic forces                  :  0.000000E+00  0.000000E+00  0.000000E+00
   Multipole                     :  0.782575E-03 -0.661557E-02  0.346139E-01
   Pulay + GGA                   : -0.385767E-01 -0.180717E-01 -0.385964E-01
   Van der Waals                 : -0.639354E-02  0.197726E-02  0.566748E-02
   ----------------------------------------------------------------
   Total forces(  26)            :  0.373293E-03  0.987648E-04 -0.516577E-03
  atom #   27
   Hellmann-Feynman              : -0.255320E+00 -0.632834E+00 -0.836219E+00
   Ionic forces                  :  0.000000E+00  0.000000E+00  0.000000E+00
   Multipole                     :  0.669891E-01 -0.216663E+00  0.211282E-01
   Pulay + GGA                   :  0.176909E+00  0.859570E+00  0.823527E+00
   Van der Waals                 :  0.851787E-02 -0.785238E-02 -0.798709E-02
   ----------------------------------------------------------------
   Total forces(  27)            : -0.290456E-02  0.222069E-02  0.449713E-03
  atom #   28
   Hellmann-Feynman              :  0.164042E+01  0.639479E+00  0.176646E+01
   Ionic forces                  :  0.000000E+00  0.000000E+00  0.000000E+00
   Multipole                     : -0.110551E+00 -0.599798E-01 -0.136810E+00
   Pulay + GGA                   : -0.152286E+01 -0.572938E+00 -0.161418E+01
   Van der Waals                 : -0.462656E-02 -0.472334E-02 -0.125874E-01
   ----------------------------------------------------------------
   Total forces(  28)            :  0.238603E-02  0.183728E-02  0.288348E-02
  atom #   29
   Hellmann-Feynman              :  0.238713E-01 -0.244442E-01  0.574806E-02
   Ionic forces                  :  0.000000E+00  0.000000E+00  0.000000E+00
   Multipole                     :  0.255138E-01  0.394008E-02  0.314830E-01
   Pulay + GGA                   : -0.471136E-01  0.309148E-01 -0.316848E-01
   Van der Waals                 : -0.157269E-02 -0.114177E-01 -0.678036E-02
   ----------------------------------------------------------------
   Total forces(  29)            :  0.698757E-03 -0.100701E-02 -0.123414E-02
  atom #   30
   Hellmann-Feynman              : -0.218124E-02 -0.290517E-01 -0.351651E-01
   Ionic forces                  :  0.000000E+00  0.000000E+00  0.000000E+00
   Multipole                     :  0.329402E-01  0.279885E-02 -0.151806E-01
   Pulay + GGA                   : -0.317853E-01  0.304873E-01  0.506560E-01
   Van der Waals                 :  0.811529E-03 -0.437550E-02  0.180514E-03
   ----------------------------------------------------------------
   Total forces(  30)            : -0.214846E-03 -0.141062E-03  0.490788E-03
  atom #   31
   Hellmann-Feynman              : -0.236749E-01 -0.383610E-01 -0.917199E-02
   Ionic forces                  :  0.000000E+00  0.000000E+00  0.000000E+00
   Multipole                     : -0.971590E-02 -0.135178E-01  0.318119E-01
   Pulay + GGA                   :  0.301785E-01  0.571156E-01 -0.199838E-01
   Van der Waals                 :  0.252989E-02 -0.505370E-02 -0.224143E-02
   ----------------------------------------------------------------
   Total forces(  31)            : -0.682453E-03  0.183099E-03  0.414626E-03
  atom #   32
   Hellmann-Feynman              : -0.433215E-01 -0.179568E-01 -0.401643E-01
   Ionic forces                  :  0.000000E+00  0.000000E+00  0.000000E+00
   Multipole                     :  0.299354E-03  0.463893E-01  0.176791E-01
   Pulay + GGA                   :  0.434196E-01 -0.288026E-01  0.269879E-01
   Van der Waals                 : -0.421173E-03  0.356272E-03 -0.416108E-02
   ----------------------------------------------------------------
   Total forces(  32)            : -0.237097E-04 -0.138430E-04  0.341634E-03

  Timings for VdW correction (Tkatchenko-Scheffler 2009 or later):
  | CPU time:        0.124 s, Wall clock time:        0.124 s.
  Removing unitary transformations (pure translations, rotations) from forces on atoms.
  Atomic forces before filtering:
  | Net force on center of mass :  -0.299556E-03  0.748103E-03 -0.386776E-03 eV/A
  | Net torque on center of mass:   0.207352E-02  0.596093E-03  0.275114E-03 eV
  Atomic forces after filtering:
  | Net force on center of mass :  -0.661510E-18  0.108890E-18  0.174225E-18 eV/A
  | Net torque on center of mass:  -0.759174E-18  0.968055E-18 -0.576223E-19 eV

  Energy and forces in a compact form:
  | Total energy uncorrected      :         -0.202084222456284E+05 eV
  | Total energy corrected        :         -0.202084222456284E+05 eV  <-- do not rely on this value for anything but (periodic) metals
  | Electronic free energy        :         -0.202084222456284E+05 eV
  Total atomic forces (unitary forces cleaned) [eV/Ang]:
  |   1          0.115570794954676E-04         -0.129132921987179E-02         -0.215971204097855E-02
  |   2         -0.225474380906242E-02          0.137947606999771E-02          0.219781454602691E-02
  |   3         -0.773499250097391E-04         -0.734356013243057E-03         -0.127520534695604E-02
  |   4          0.297589723883111E-04          0.193361477700532E-03          0.673964735817348E-06
  |   5          0.681476072010079E-04          0.459681179726502E-03          0.698047695809340E-03
  |   6          0.194434993685422E-03          0.772813623324448E-05          0.314274128906884E-03
  |   7          0.355255500468767E-02         -0.890197406139994E-03          0.229828553276552E-02
  |   8          0.163606811359653E-02          0.120784087264430E-02          0.842719996607377E-03
  |   9         -0.206708696167239E-02         -0.433659993675968E-02         -0.414180471132411E-03
  |  10          0.366988999334899E-03          0.249835097243405E-02          0.827573522183759E-03
  |  11          0.803302827268965E-03          0.122126049028775E-02         -0.132867977670197E-02
  |  12          0.259456271606527E-03         -0.297002074127980E-03          0.265216247748955E-03
  |  13          0.117016514991560E-02          0.484153242047888E-03         -0.207728025169718E-02
  |  14         -0.138160574877224E-02         -0.867510190386201E-03          0.707552991582472E-03
  |  15         -0.699087550906298E-03         -0.248201237265029E-03          0.350627407387537E-04
  |  16         -0.104344739302791E-02          0.242877062672225E-03         -0.802368445968390E-03
  |  17         -0.868614312736009E-03         -0.204092595624976E-02         -0.247211909844745E-02
  |  18         -0.143312028620785E-03          0.173735983073033E-02         -0.287294004204225E-03
  |  19          0.346810253163393E-02         -0.463459026141172E-02          0.145792369307651E-02
  |  20         -0.192808671606363E-02          0.215889845644191E-02         -0.105800320352512E-02
  |  21         -0.244840034796598E-03          0.232637568359224E-03          0.125777745258926E-03
  |  22          0.854102467801017E-03          0.202999109463367E-03         -0.663322297174616E-03
  |  23         -0.143796242633858E-02         -0.923670143285411E-04          0.636617255215914E-03
  |  24         -0.148287542121894E-03         -0.162027564309875E-04         -0.399593493894893E-03
  |  25          0.226055243067805E-03          0.228617893495618E-03         -0.242075653351950E-03
  |  26          0.383375511079286E-03          0.751225881337975E-04         -0.500603995158624E-03
  |  27         -0.290081206208516E-02          0.221815750730133E-02          0.442681578156688E-03
  |  28          0.238752936008859E-02          0.184750075990320E-02          0.287139865146271E-02
  |  29          0.701823116987521E-03         -0.101553414046899E-02         -0.124853691503103E-02
  |  30         -0.215048331070463E-03         -0.122459216450087E-03          0.474157366702277E-03
  |  31         -0.682106148019537E-03          0.190056111416781E-03          0.394164712364045E-03
  |  32         -0.210322595348918E-04          0.119609414407011E-05          0.339032624879602E-03

  ------------------------------------ 
  Start decomposition of the XC Energy 
  ------------------------------------ 
  Hartree-Fock part   :          0.000000000 Ha              0.000000000 eV
  ------------------------------------ 
  X Energy            :        -96.980193494 Ha          -2638.965334038 eV
  C Energy GGA        :         -3.868487848 Ha           -105.266910275 eV
  Total XC Energy     :       -100.848681342 Ha          -2744.232244313 eV
  LDA X and C from self-consistent density 
  X Energy LDA        :        -87.996458065 Ha          -2394.505455050 eV
  C Energy LDA        :         -7.531721087 Ha           -204.948558443 eV
  ------------------------------------ 
  End decomposition of the XC Energy 
  ------------------------------------ 
   
  ESP charge fitting starts.
  | Calculation :  00000001  of  00000001
  | Full density
  Computing multipole expansion for total density.
  Generating points for esp charges.
  Partitioning the integration grid into batches with parallel hashing+maxmin method.
  | Number of batches:     3891
  | Maximal batch size:     200
  | Minimal batch size:      53
  | Average batch size:     125.289
  | Standard deviation of batch sizes:      17.411

  Integration load balanced across    32 MPI tasks.
  Work distribution over tasks is as follows:
  Initializing partition tables, free-atom densities, potentials, etc. across the integration grid (initialize_grid_storage).
  | Original list of interatomic distances with          32 x         32 entries is created.
  | Net number of integration points:   487500
  | of which are non-zero points    :   487500
  Summing up potential from multipole expanded  density.
  Summing up the Hartree potential.
  Time summed over all CPUs for potential: real work        6.357 s, elapsed        6.649 s
  Fitting esp charges to potential.
  |
  | ESP charges fitted to the electrostatic potential :
  |
  | Atom         1: C, ESP charge:      0.73696889
  |
  | Atom         2: C, ESP charge:     -0.79958177
  |
  | Atom         3: O, ESP charge:      0.57010334
  |
  | Atom         4: H, ESP charge:     -0.18492134
  |
  | Atom         5: H, ESP charge:     -0.19026202
  |
  | Atom         6: H, ESP charge:     -0.24537279
  |
  | Atom         7: N, ESP charge:      0.55899147
  |
  | Atom         8: C, ESP charge:     -0.17213219
  |
  | Atom         9: C, ESP charge:     -0.79771297
  |
  | Atom        10: O, ESP charge:      0.59164241
  |
  | Atom        11: H, ESP charge:     -0.25611242
  |
  | Atom        12: H, ESP charge:      0.00055246
  |
  | Atom        13: C, ESP charge:      0.59128783
  |
  | Atom        14: H, ESP charge:     -0.15460961
  |
  | Atom        15: H, ESP charge:     -0.15372796
  |
  | Atom        16: H, ESP charge:     -0.18464378
  |
  | Atom        17: N, ESP charge:      0.80184539
  |
  | Atom        18: C, ESP charge:     -0.38572878
  |
  | Atom        19: C, ESP charge:     -0.32934434
  |
  | Atom        20: O, ESP charge:      0.45303373
  |
  | Atom        21: H, ESP charge:     -0.36574610
  |
  | Atom        22: H, ESP charge:      0.00736661
  |
  | Atom        23: C, ESP charge:      0.43808946
  |
  | Atom        24: H, ESP charge:     -0.08834344
  |
  | Atom        25: H, ESP charge:     -0.15168406
  |
  | Atom        26: H, ESP charge:     -0.13836007
  |
  | Atom        27: N, ESP charge:      0.11908567
  |
  | Atom        28: C, ESP charge:      0.38049210
  |
  | Atom        29: H, ESP charge:     -0.20821287
  |
  | Atom        30: H, ESP charge:     -0.12836062
  |
  | Atom        31: H, ESP charge:     -0.13833181
  |
  | Atom        32: H, ESP charge:     -0.17627039

  RRMS:       0.00100690

  Done.

------------------------------------------------------------------------------
  Final output of selected total energy values:

  The following output summarizes some interesting total energy values
  at the end of a run (AFTER all relaxation, molecular dynamics, etc.).

  | Total energy of the DFT / Hartree-Fock s.c.f. calculation      :         -20208.422245628 eV
  | Final zero-broadening corrected energy (caution - metals only) :         -20208.422245628 eV
  | For reference only, the value of 1 Hartree used in FHI-aims is :             27.211384500 eV

  Before relying on these values, please be sure to understand exactly which
  total energy value is referred to by a given number. Different objects may
  all carry the same name 'total energy'. Definitions:

  Total energy of the DFT / Hartree-Fock s.c.f. calculation:
  | Note that this energy does not include ANY quantities calculated after the
  | s.c.f. cycle, in particular not ANY RPA, MP2, etc. many-body perturbation terms.

  Final zero-broadening corrected energy:
  | For metallic systems only, a broadening of the occupation numbers at the Fermi
  | level can be extrapolated back to zero broadening by an electron-gas inspired
  | formula. For all systems that are not real metals, this value can be
  | meaningless and should be avoided.

------------------------------------------------------------------------------
  Methods described in the following list of references were used in this FHI-aims run.
  If you publish the results, please make sure to cite these reference if they apply.
  FHI-aims is an academic code, and for our developers (often, Ph.D. students
  and postdocs), scientific credit in the community is essential.
  Thank you for helping us!

  For any use of FHI-aims, please cite:

    Volker Blum, Ralf Gehrke, Felix Hanke, Paula Havu, Ville Havu,
    Xinguo Ren, Karsten Reuter, and Matthias Scheffler
    'Ab initio molecular simulations with numeric atom-centered orbitals'
    Computer Physics Communications 180, 2175-2196 (2009)
    http://dx.doi.org/10.1016/j.cpc.2009.06.022


  The scalable eigensolver library ELPA was used in your run.
  ELPA is essential especially for large systems on hundreds or thousands of CPUs.
  For ELPA, please cite:

    Andreas Marek, Volker Blum, Rainer Johanni, Ville Havu, Bruno Lang,
    Thomas Auckenthaler, Alexander Heinecke, Hans-Joachim Bungartz, and Hermann Lederer,
    'The ELPA Library - Scalable Parallel Eigenvalue Solutions
    for Electronic Structure Theory and Computational Science'
    The Journal of Physics: Condensed Matter 26, 213201 (2014).
    http://dx.doi.org/10.1088/0953-8984/26/21/213201


  For ELPA's efficient two-stage tridiagonalization used in your run, please cite:

    T. Auckenthaler, V. Blum, H.-J. Bungartz, T. Huckle, R. Johanni, L. Kraemer,
    B. Lang, H. Lederer, and P. R. Willems,
    'Parallel solution of partial symmetric eigenvalue problems'
    'from  electronic structure calculations'
    Parallel Computing 37, 783-794 (2011).
    http://dx.doi.org/10.1016/j.parco.2011.05.002


  For the real-space grid partitioning and parallelization used in this calculation, please cite:

    Ville Havu, Volker Blum, Paula Havu, and Matthias Scheffler,
    'Efficient O(N) integration for all-electron electronic structure calculation'
    'using numerically tabulated basis functions'
    Journal of Computational Physics 228, 8367-8379 (2009).
    http://dx.doi.org/10.1016/j.jcp.2009.08.008

  Of course, there are many other important community references, e.g., those cited in the
  above references. Our list is limited to references that describe implementations in the
  FHI-aims code. The reason is purely practical (length of this list) - please credit others as well.

------------------------------------------------------------
          Leaving FHI-aims.
          Date     :  20170309, Time     :  180611.501

          Computational steps:
          | Number of self-consistency cycles          :           14

          Detailed time accounting                     :  max(cpu_time)    wall_clock(cpu1)
          | Total time                                 :       30.902 s          31.062 s
          | Preparation time                           :        0.240 s           0.239 s
          | Grid partitioning                          :        0.372 s           0.370 s
          | Preloading free-atom quantities on grid    :        0.028 s           0.027 s
          | Free-atom superposition energy             :        0.040 s           0.039 s
          | Total time for integrations                :       11.317 s          11.285 s
          | Total time for solution of K.-S. equations :        0.528 s           0.496 s
          | Total time for density & force components  :        9.745 s           9.720 s
          | Total time for mixing                      :        0.128 s           0.112 s
          | Total time for Hartree multipole update    :        0.068 s           0.057 s
          | Total time for Hartree multipole sum       :        6.376 s           6.342 s
          | Total time for total energy evaluation     :        0.028 s           0.022 s
          | Total time for vdW correction              :        0.124 s           0.124 s

          Have a nice day.
------------------------------------------------------------
