  MPI-parallelism will be employed.
------------------------------------------------------------
          Invoking FHI-aims ...
          Version 150427
          Git rev.: 9dd23e0 BL: Update Version stamp
          Compiled on 2015/11/03 at 22:05:20 on host eos03.

          When using FHI-aims, please cite the following reference:

          Volker Blum, Ralf Gehrke, Felix Hanke, Paula Havu,
          Ville Havu, Xinguo Ren, Karsten Reuter, and Matthias Scheffler,
          'Ab Initio Molecular Simulations with Numeric Atom-Centered Orbitals: FHI-aims',
          Computer Physics Communications 180, 2175-2196 (2009)

          For any questions about FHI-aims, please visit the aimsclub website
          with its forums and wiki. Contributions to both the forums and the
          wiki are warmly encouraged - they are for you, and everyone is welcome there.

------------------------------------------------------------

  Date     :  20170309, Time     :  160656.037
  Time zero on CPU 1             :   0.320020000000000E+00  s.
  Internal wall clock time zero  :           258307616.037  s.

  Using       32 parallel tasks.
  Task        0 on host eos111 reporting.
  Task        1 on host eos111 reporting.
  Task        2 on host eos111 reporting.
  Task        3 on host eos111 reporting.
  Task        4 on host eos111 reporting.
  Task        5 on host eos111 reporting.
  Task        6 on host eos111 reporting.
  Task        7 on host eos111 reporting.
  Task        8 on host eos111 reporting.
  Task        9 on host eos111 reporting.
  Task       10 on host eos111 reporting.
  Task       11 on host eos111 reporting.
  Task       12 on host eos111 reporting.
  Task       13 on host eos111 reporting.
  Task       14 on host eos111 reporting.
  Task       15 on host eos111 reporting.
  Task       16 on host eos111 reporting.
  Task       17 on host eos111 reporting.
  Task       18 on host eos111 reporting.
  Task       19 on host eos111 reporting.
  Task       20 on host eos111 reporting.
  Task       21 on host eos111 reporting.
  Task       22 on host eos111 reporting.
  Task       23 on host eos111 reporting.
  Task       24 on host eos111 reporting.
  Task       25 on host eos111 reporting.
  Task       26 on host eos111 reporting.
  Task       27 on host eos111 reporting.
  Task       28 on host eos111 reporting.
  Task       29 on host eos111 reporting.
  Task       30 on host eos111 reporting.
  Task       31 on host eos111 reporting.

  Performing system and environment tests:
  | Environment variable OMP_NUM_THREADS correctly set to 1.
  | Stacksize not measured: no C compiler
  | Checking for scalapack...
  | Testing pdtran()...
  | All pdtran() tests passed.

  Obtaining array dimensions for all initial allocations:
  
  -----------------------------------------------------------------------
  Parsing control.in (first pass over file, find array dimensions only).
  The contents of control.in will be repeated verbatim below
  unless switched off by setting 'verbatim_writeout .false.' .
  in the first line of control.in .
  -----------------------------------------------------------------------
  
  #########################################################################################
  #
  # Input for System
  #
  #########################################################################################
  #
  #
  #  Physical model
  #
    xc                 pbe
    many_body_dispersion
    spin               none
    charge             0.
  #
  #  SCF convergence
  #
    occupation_type    gaussian 0.05
    mixer              pulay
      n_max_pulay        10
      charge_mix_param   0.5
    sc_accuracy_rho    1E-4
    sc_accuracy_eev    1E-2
    sc_accuracy_etot   1E-5
    sc_accuracy_forces 1E-4
    sc_iter_limit      1000
  #
  #  ESP charge
  #
    output esp
    esp equal_grid_n 80 80 80
  #
  #
  ################################################################################
  #
  #  FHI-aims code project
  # Volker Blum, Fritz Haber Institute Berlin, 2009
  #
  #  Suggested "tight" defaults for H atom (to be pasted into control.in file)
  #
  ################################################################################
    species        H
  #     global species definitions
      nucleus             1
      mass                1.00794
  #
      l_hartree           6
  #
      cut_pot             4.0  2.0  1.0
      basis_dep_cutoff    1e-4
  #
      radial_base         24 7.0
      radial_multiplier   2
      angular_grids       specified
        division   0.1930   50
        division   0.3175  110
        division   0.4293  194
        division   0.5066  302
        division   0.5626  434
  #      division   0.5922  590
  #      division   0.6227  974
  #      division   0.6868 1202
  #      outer_grid  770
        outer_grid  434
  ################################################################################
  #
  #  Definition of "minimal" basis
  #
  ################################################################################
  #     valence basis states
      valence      1  s   1.
  #     ion occupancy
      ion_occ      1  s   0.5
  ################################################################################
  #
  #  Suggested additional basis functions. For production calculations,
  #  uncomment them one after another (the most important basis functions are
  #  listed first).
  #
  #  Basis constructed for dimers: 0.5 A, 0.7 A, 1.0 A, 1.5 A, 2.5 A
  #
  ################################################################################
  #  "First tier" - improvements: -1014.90 meV to -62.69 meV
       hydro 2 s 2.1
       hydro 2 p 3.5
  #  "Second tier" - improvements: -12.89 meV to -1.83 meV
       hydro 1 s 0.85
       hydro 2 p 3.7
       hydro 2 s 1.2
       hydro 3 d 7
  #  "Third tier" - improvements: -0.25 meV to -0.12 meV
  #     hydro 4 f 11.2
  #     hydro 3 p 4.8
  #     hydro 4 d 9
  #     hydro 3 s 3.2
  ################################################################################
  #
  # For methods that use the localized form of the "resolution of identity" for
  # the two-electron Coulomb operator (RI_method LVL), particularly Hartree-Fock and
  # hybrid density functional calculations, the highest accuracy can be obtained by
  # uncommenting the line beginning with "for_aux"  below, thus adding an extra g radial
  # function to the construction of the product basis set for the expansion.
  # See Ref. New J. Phys. 17, 093020 (2015) for more information, particularly Figs. 1 and 6.
  #
  ################################################################################
  #
  # for_aux hydro 5 g 6.0
  ################################################################################
  #
  #  FHI-aims code project
  # Volker Blum, Fritz Haber Institute Berlin, 2009
  #
  #  Suggested "tight" defaults for C atom (to be pasted into control.in file)
  #
  ################################################################################
    species        C
  #     global species definitions
      nucleus             6
      mass                12.0107
  #
      l_hartree           6
  #
      cut_pot             4.0  2.0  1.0
      basis_dep_cutoff    1e-4
  #
      radial_base         34 7.0
      radial_multiplier   2
      angular_grids specified
        division   0.2187   50
        division   0.4416  110
        division   0.6335  194
        division   0.7727  302
        division   0.8772  434
  #      division   0.9334  590
  #      division   0.9924  770
  #      division   1.0230  974
  #      division   1.5020 1202
  #     outer_grid  974
        outer_grid  434
  ################################################################################
  #
  #  Definition of "minimal" basis
  #
  ################################################################################
  #     valence basis states
      valence      2  s   2.
      valence      2  p   2.
  #     ion occupancy
      ion_occ      2  s   1.
      ion_occ      2  p   1.
  ################################################################################
  #
  #  Suggested additional basis functions. For production calculations,
  #  uncomment them one after another (the most important basis functions are
  #  listed first).
  #
  #  Constructed for dimers: 1.0 A, 1.25 A, 1.5 A, 2.0 A, 3.0 A
  #
  ################################################################################
  #  "First tier" - improvements: -1214.57 meV to -155.61 meV
       hydro 2 p 1.7
       hydro 3 d 6
       hydro 2 s 4.9
  #  "Second tier" - improvements: -67.75 meV to -5.23 meV
       hydro 4 f 9.8
       hydro 3 p 5.2
       hydro 3 s 4.3
       hydro 5 g 14.4
       hydro 3 d 6.2
  #  "Third tier" - improvements: -2.43 meV to -0.60 meV
  #     hydro 2 p 5.6
  #     hydro 2 s 1.4
  #     hydro 3 d 4.9
  #     hydro 4 f 11.2
  #  "Fourth tier" - improvements: -0.39 meV to -0.18 meV
  #     hydro 2 p 2.1
  #     hydro 5 g 16.4
  #     hydro 4 d 13.2
  #     hydro 3 s 13.6
  #     hydro 4 f 17.6
  #  Further basis functions - improvements: -0.08 meV and below
  #     hydro 3 s 2
  #     hydro 3 p 6
  #     hydro 4 d 20
  ################################################################################
  #
  # For methods that use the localized form of the "resolution of identity" for
  # the two-electron Coulomb operator (RI_method LVL), particularly Hartree-Fock and
  # hybrid density functional calculations, the highest accuracy can be obtained by
  # uncommenting the line beginning with "for_aux"  below, thus adding an extra g radial
  # function to the construction of the product basis set for the expansion.
  # See Ref. New J. Phys. 17, 093020 (2015) for more information, particularly Figs. 1 and 6.
  #
  ################################################################################
  #
  # for_aux hydro 5 g 6.0
  ################################################################################
  #
  #  FHI-aims code project
  # Volker Blum, Fritz Haber Institute Berlin, 2009
  #
  #  Suggested "tight" defaults for N atom (to be pasted into control.in file)
  #
  ################################################################################
    species        N
  #     global species definitions
      nucleus             7
      mass                14.0067
  #
      l_hartree           6
  #
      cut_pot             4.0  2.0  1.0
      basis_dep_cutoff    1e-4
  #
      radial_base         35 7.0
      radial_multiplier   2
      angular_grids       specified
        division   0.1841   50
        division   0.3514  110
        division   0.5126  194
        division   0.6292  302
        division   0.6939  434
  #      division   0.7396  590
  #      division   0.7632  770
  #      division   0.8122  974
  #      division   1.1604 1202
  #      outer_grid  974
        outer_grid  434
  ################################################################################
  #
  #  Definition of "minimal" basis
  #
  ################################################################################
  #     valence basis states
      valence      2  s   2.
      valence      2  p   3.
  #     ion occupancy
      ion_occ      2  s   1.
      ion_occ      2  p   2.
  ################################################################################
  #
  #  Suggested additional basis functions. For production calculations,
  #  uncomment them one after another (the most important basis functions are
  #  listed first).
  #
  #  Constructed for dimers: 1.0 A, 1.1 A, 1.5 A, 2.0 A, 3.0 A
  #
  ################################################################################
  #  "First tier" - improvements: -1193.42 meV to -220.60 meV
       hydro 2 p 1.8
       hydro 3 d 6.8
       hydro 3 s 5.8
  #  "Second tier" - improvements: -80.21 meV to -6.86 meV
       hydro 4 f 10.8
       hydro 3 p 5.8
       hydro 1 s 0.8
       hydro 5 g 16
       hydro 3 d 4.9
  #  "Third tier" - improvements: -4.29 meV to -0.53 meV
  #     hydro 3 s 16
  #     ionic 2 p auto
  #     hydro 3 d 6.6
  #     hydro 4 f 11.6
  #  "Fourth tier" - improvements: -0.75 meV to -0.25 meV
  #     hydro 2 p 4.5
  #     hydro 2 s 2.4
  #     hydro 5 g 14.4
  #     hydro 4 d 14.4
  #     hydro 4 f 16.8
  # Further basis functions - -0.21 meV and below
  #     hydro 3 p 14.8
  #     hydro 3 s 4.4
  #     hydro 3 d 19.6
  #     hydro 5 g 12.8
  ################################################################################
  #
  # For methods that use the localized form of the "resolution of identity" for
  # the two-electron Coulomb operator (RI_method LVL), particularly Hartree-Fock and
  # hybrid density functional calculations, the highest accuracy can be obtained by
  # uncommenting the line beginning with "for_aux"  below, thus adding an extra g radial
  # function to the construction of the product basis set for the expansion.
  # See Ref. New J. Phys. 17, 093020 (2015) for more information, particularly Figs. 1 and 6.
  #
  ################################################################################
  #
  # for_aux hydro 5 g 6.0
  ################################################################################
  #
  #  FHI-aims code project
  # Volker Blum, Fritz Haber Institute Berlin, 2009
  #
  #  Suggested "tight" defaults for O atom (to be pasted into control.in file)
  #
  ################################################################################
    species        O
  #     global species definitions
      nucleus             8
      mass                15.9994
  #
      l_hartree           6
  #
      cut_pot             4.0  2.0  1.0
      basis_dep_cutoff    1e-4
  #
      radial_base         36 7.0
      radial_multiplier   2
       angular_grids specified
        division   0.1817   50
        division   0.3417  110
        division   0.4949  194
        division   0.6251  302
        division   0.8014  434
  #      division   0.8507  590
  #      division   0.8762  770
  #      division   0.9023  974
  #      division   1.2339 1202
  #      outer_grid 974
        outer_grid  434
  ################################################################################
  #
  #  Definition of "minimal" basis
  #
  ################################################################################
  #     valence basis states
      valence      2  s   2.
      valence      2  p   4.
  #     ion occupancy
      ion_occ      2  s   1.
      ion_occ      2  p   3.
  ################################################################################
  #
  #  Suggested additional basis functions. For production calculations,
  #  uncomment them one after another (the most important basis functions are
  #  listed first).
  #
  #  Constructed for dimers: 1.0 A, 1.208 A, 1.5 A, 2.0 A, 3.0 A
  #
  ################################################################################
  #  "First tier" - improvements: -699.05 meV to -159.38 meV
       hydro 2 p 1.8
       hydro 3 d 7.6
       hydro 3 s 6.4
  #  "Second tier" - improvements: -49.91 meV to -5.39 meV
       hydro 4 f 11.6
       hydro 3 p 6.2
       hydro 3 d 5.6
       hydro 5 g 17.6
       hydro 1 s 0.75
  #  "Third tier" - improvements: -2.83 meV to -0.50 meV
  #     ionic 2 p auto
  #     hydro 4 f 10.8
  #     hydro 4 d 4.7
  #     hydro 2 s 6.8
  #  "Fourth tier" - improvements: -0.40 meV to -0.12 meV
  #     hydro 3 p 5
  #     hydro 3 s 3.3
  #     hydro 5 g 15.6
  #     hydro 4 f 17.6
  #     hydro 4 d 14
  # Further basis functions - -0.08 meV and below
  #     hydro 3 s 2.1
  #     hydro 4 d 11.6
  #     hydro 3 p 16
  #     hydro 2 s 17.2
  ################################################################################
  #
  # For methods that use the localized form of the "resolution of identity" for
  # the two-electron Coulomb operator (RI_method LVL), particularly Hartree-Fock and
  # hybrid density functional calculations, the highest accuracy can be obtained by
  # uncommenting the line beginning with "for_aux"  below, thus adding an extra g radial
  # function to the construction of the product basis set for the expansion.
  # See Ref. New J. Phys. 17, 093020 (2015) for more information, particularly Figs. 1 and 6.
  #
  ################################################################################
  #
  # for_aux hydro 5 g 6.0
  
  -----------------------------------------------------------------------
  Completed first pass over input file control.in .
  -----------------------------------------------------------------------
  
  
  -----------------------------------------------------------------------
  Parsing geometry.in (first pass over file, find array dimensions only).
  The contents of geometry.in will be repeated verbatim below
  unless switched off by setting 'verbatim_writeout .false.' .
  in the first line of geometry.in .
  -----------------------------------------------------------------------
  
  #
  # This is the geometry file that corresponds to the current relaxation step.
  # If you do not want this file to be written, set the "write_restart_geometry" flag to .false.
  #
  atom      -0.97806503      0.40756147     -0.25759732 C
  atom      -0.69544729     -0.10740896      1.13856857 C
  atom      -0.21234699     -1.23173589      1.32235102 O
  atom      -0.04193539      0.40006343     -0.82972588 H
  atom      -1.40771211      1.41621335     -0.28404584 H
  atom      -1.66872421     -0.28707172     -0.75188068 H
  atom      -0.99671089      0.74725370      2.15696783 N
  atom      -0.90658200      0.47447970      3.60147362 C
  atom       0.53963690      0.37925143      4.14605105 C
  atom       0.87514666      1.07979396      5.11359723 O
  atom      -1.33254767      1.66677846      1.89935549 H
  atom      -1.29735414      1.37693772      4.08656007 H
  atom      -1.75875050     -0.72375647      4.04186035 C
  atom      -1.69460812     -0.83177359      5.13209820 H
  atom      -1.41851015     -1.65453444      3.57566079 H
  atom      -2.80997593     -0.56023014      3.77109103 H
  atom       1.34860001     -0.51231617      3.53887886 N
  atom       2.71937493     -0.77955960      3.98029344 C
  atom       3.69590612      0.29457953      3.41938510 C
  atom       4.50862645      0.04991588      2.53039168 O
  atom       0.97215812     -1.01187414      2.72056320 H
  atom       2.71942402     -0.68651719      5.07768511 H
  atom       3.13592236     -2.18256084      3.56559166 C
  atom       4.14988541     -2.39729120      3.92182632 H
  atom       3.14681410     -2.28132158      2.47284890 H
  atom       2.44793430     -2.92566335      3.98875604 H
  atom       3.54885555      1.50787125      4.01843854 N
  atom       4.28496736      2.68061971      3.59189710 C
  atom       2.76519609      1.60601025      4.66927837 H
  atom       4.72097559      3.20034080      4.45567444 H
  atom       3.64288576      3.38860795      3.04503683 H
  atom       5.08982572      2.35294268      2.92502288 H
  
  -----------------------------------------------------------------------
  Completed first pass over input file geometry.in .
  -----------------------------------------------------------------------
  

  Basic array size parameters:
  | Number of species                 :        4
  | Number of atoms                   :       32
  | Max. basis fn. angular momentum   :        4
  | Max. atomic/ionic basis occupied n:        2
  | Max. number of basis fn. types    :        2
  | Max. radial fns per species/type  :        8
  | Max. logarithmic grid size        :     1301
  | Max. radial integration grid size :       73
  | Max. angular integration grid size:      434
  | Max. angular grid division number :        8
  | Radial grid for Hartree potential :     1301
  | Number of spin channels           :        1

------------------------------------------------------------
          Reading file control.in.
------------------------------------------------------------
  XC: Using PBE gradient-corrected functionals.
  Self-consistent screening and van der Waals energy (TS, TS+SCS,MBD) module
  Spin treatment: No spin polarisation.
  Charge =   0.000000E+00: Neutral system requested explicitly.
  Occupation type: Gaussian broadening, width =   0.500000E-01 eV.
  Using pulay charge density mixing.
  Pulay mixing - number of memorized iterations:   10
  Charge density mixing - mixing parameter:     0.5000
  Convergence accuracy of self-consistent charge density:  0.1000E-03
  Convergence accuracy of sum of eigenvalues:  0.1000E-01
  Convergence accuracy of total energy:  0.1000E-04
  Convergence accuracy of forces:  0.1000E-03
  Maximum number of s.-c. iterations  :  1000
  Fitting ESP-charges to Potential. 
  | Esp charge output options: 
  | ESP Grid method: 3, cubic grid
  | Number of points in x, ,y, z:  0080 0080 0080
  |
 
  Reading configuration options for species H                   .
  | Found nuclear charge :   1.0000
  | Found atomic mass :    1.00794000000000      amu
  | Found l_max for Hartree potential  :   6
  | Found cutoff potl. onset [A], width [A], scale factor :    4.00000    2.00000    1.00000
  | Threshold for basis-dependent cutoff potential is   0.100000E-03
  | Found data for basic radial integration grid :    24 points, outermost radius =    7.000 A
  | Found multiplier for basic radial grid :   2
  | Found angular grid specification: user-specified.
  | Specified grid contains     6 separate shells.
  | Check grid settings after all constraints further below.
  | Found free-atom valence shell :  1 s   1.000
  | No ionic wave fns used. Skipping ion_occ.
  | Found hydrogenic basis function :  2 s   2.100
  | Found hydrogenic basis function :  2 p   3.500
  | Found hydrogenic basis function :  1 s   0.850
  | Found hydrogenic basis function :  2 p   3.700
  | Found hydrogenic basis function :  2 s   1.200
  | Found hydrogenic basis function :  3 d   7.000
  Species H                   : Missing cutoff potential type.
  Defaulting to exp(1/x)/(1-x)^2 type cutoff potential.
  Species H : No 'logarithmic' tag. Using default grid for free atom:
  | Default logarithmic grid data [bohr] : 0.1000E-03 0.1000E+03 0.1012E+01
  Species H : On-site basis accuracy parameter (for Gram-Schmidt orthonormalisation) not specified.
  Using default value basis_acc =  0.1000000E-03.
  Species H                   : Using default innermost maximum threshold i_radial=  2 for radial functions.
  Species H                   : Default cutoff onset for free atom density etc. : 0.40000000E+01 AA.
  Species H                   : Basic radial grid will be enhanced according to radial_multiplier =   2, to contain    49 grid points.
 
  Reading configuration options for species C                   .
  | Found nuclear charge :   6.0000
  | Found atomic mass :    12.0107000000000      amu
  | Found l_max for Hartree potential  :   6
  | Found cutoff potl. onset [A], width [A], scale factor :    4.00000    2.00000    1.00000
  | Threshold for basis-dependent cutoff potential is   0.100000E-03
  | Found data for basic radial integration grid :    34 points, outermost radius =    7.000 A
  | Found multiplier for basic radial grid :   2
  | Found angular grid specification: user-specified.
  | Specified grid contains     6 separate shells.
  | Check grid settings after all constraints further below.
  | Found free-atom valence shell :  2 s   2.000
  | Found free-atom valence shell :  2 p   2.000
  | No ionic wave fns used. Skipping ion_occ.
  | No ionic wave fns used. Skipping ion_occ.
  | Found hydrogenic basis function :  2 p   1.700
  | Found hydrogenic basis function :  3 d   6.000
  | Found hydrogenic basis function :  2 s   4.900
  | Found hydrogenic basis function :  4 f   9.800
  | Found hydrogenic basis function :  3 p   5.200
  | Found hydrogenic basis function :  3 s   4.300
  | Found hydrogenic basis function :  5 g  14.400
  | Found hydrogenic basis function :  3 d   6.200
  Species C                   : Missing cutoff potential type.
  Defaulting to exp(1/x)/(1-x)^2 type cutoff potential.
  Species C : No 'logarithmic' tag. Using default grid for free atom:
  | Default logarithmic grid data [bohr] : 0.1000E-03 0.1000E+03 0.1012E+01
  Species C : On-site basis accuracy parameter (for Gram-Schmidt orthonormalisation) not specified.
  Using default value basis_acc =  0.1000000E-03.
  Species C                   : Using default innermost maximum threshold i_radial=  2 for radial functions.
  Species C                   : Default cutoff onset for free atom density etc. : 0.40000000E+01 AA.
  Species C                   : Basic radial grid will be enhanced according to radial_multiplier =   2, to contain    69 grid points.
 
  Reading configuration options for species N                   .
  | Found nuclear charge :   7.0000
  | Found atomic mass :    14.0067000000000      amu
  | Found l_max for Hartree potential  :   6
  | Found cutoff potl. onset [A], width [A], scale factor :    4.00000    2.00000    1.00000
  | Threshold for basis-dependent cutoff potential is   0.100000E-03
  | Found data for basic radial integration grid :    35 points, outermost radius =    7.000 A
  | Found multiplier for basic radial grid :   2
  | Found angular grid specification: user-specified.
  | Specified grid contains     6 separate shells.
  | Check grid settings after all constraints further below.
  | Found free-atom valence shell :  2 s   2.000
  | Found free-atom valence shell :  2 p   3.000
  | No ionic wave fns used. Skipping ion_occ.
  | No ionic wave fns used. Skipping ion_occ.
  | Found hydrogenic basis function :  2 p   1.800
  | Found hydrogenic basis function :  3 d   6.800
  | Found hydrogenic basis function :  3 s   5.800
  | Found hydrogenic basis function :  4 f  10.800
  | Found hydrogenic basis function :  3 p   5.800
  | Found hydrogenic basis function :  1 s   0.800
  | Found hydrogenic basis function :  5 g  16.000
  | Found hydrogenic basis function :  3 d   4.900
  Species N                   : Missing cutoff potential type.
  Defaulting to exp(1/x)/(1-x)^2 type cutoff potential.
  Species N : No 'logarithmic' tag. Using default grid for free atom:
  | Default logarithmic grid data [bohr] : 0.1000E-03 0.1000E+03 0.1012E+01
  Species N : On-site basis accuracy parameter (for Gram-Schmidt orthonormalisation) not specified.
  Using default value basis_acc =  0.1000000E-03.
  Species N                   : Using default innermost maximum threshold i_radial=  2 for radial functions.
  Species N                   : Default cutoff onset for free atom density etc. : 0.40000000E+01 AA.
  Species N                   : Basic radial grid will be enhanced according to radial_multiplier =   2, to contain    71 grid points.
 
  Reading configuration options for species O                   .
  | Found nuclear charge :   8.0000
  | Found atomic mass :    15.9994000000000      amu
  | Found l_max for Hartree potential  :   6
  | Found cutoff potl. onset [A], width [A], scale factor :    4.00000    2.00000    1.00000
  | Threshold for basis-dependent cutoff potential is   0.100000E-03
  | Found data for basic radial integration grid :    36 points, outermost radius =    7.000 A
  | Found multiplier for basic radial grid :   2
  | Found angular grid specification: user-specified.
  | Specified grid contains     6 separate shells.
  | Check grid settings after all constraints further below.
  | Found free-atom valence shell :  2 s   2.000
  | Found free-atom valence shell :  2 p   4.000
  | No ionic wave fns used. Skipping ion_occ.
  | No ionic wave fns used. Skipping ion_occ.
  | Found hydrogenic basis function :  2 p   1.800
  | Found hydrogenic basis function :  3 d   7.600
  | Found hydrogenic basis function :  3 s   6.400
  | Found hydrogenic basis function :  4 f  11.600
  | Found hydrogenic basis function :  3 p   6.200
  | Found hydrogenic basis function :  3 d   5.600
  | Found hydrogenic basis function :  5 g  17.600
  | Found hydrogenic basis function :  1 s   0.750
  Species O                   : Missing cutoff potential type.
  Defaulting to exp(1/x)/(1-x)^2 type cutoff potential.
  Species O : No 'logarithmic' tag. Using default grid for free atom:
  | Default logarithmic grid data [bohr] : 0.1000E-03 0.1000E+03 0.1012E+01
  Species O : On-site basis accuracy parameter (for Gram-Schmidt orthonormalisation) not specified.
  Using default value basis_acc =  0.1000000E-03.
  Species O                   : Using default innermost maximum threshold i_radial=  2 for radial functions.
  Species O                   : Default cutoff onset for free atom density etc. : 0.40000000E+01 AA.
  Species O                   : Basic radial grid will be enhanced according to radial_multiplier =   2, to contain    73 grid points.
 
  Finished reading input file 'control.in'. Consistency checks are next.
 
  Target number of points in a grid batch is not set. Defaulting to  100
  Method for grid partitioning is not set. Defaulting to parallel hash+maxmin partitioning.
  Batch size limit is not set. Defaulting to    200
  By default, will store active basis functions for each batch.
  If in need of memory, prune_basis_once .false. can be used to disable this option.
  communication_type for Hartree potential was not specified.
  Defaulting to calc_hartree .
  Pulay mixer: Number of initial linear mixing iterations not set.
  Defaulting to    0 iterations.
  Work space size for distributed Hartree potential not set.
  Defaulting to   0.200000E+03 MB.
  Algorithm-dependent basis array size parameters:
  | n_max_pulay                         :       10
  Geometry relaxation not requested: no relaxation will be performed.
  Handling of forces: Unphysical translation and rotation will be removed from forces.
  No accuracy limit for integral partition fn. given. Defaulting to  0.1000E-14.
  No threshold value for u(r) in integrations given. Defaulting to  0.1000E-05.
  No accuracy for occupation numbers given. Defaulting to  0.1000E-07.
  No threshold value for occupation numbers given. Defaulting to  0.0000E+00.
  No accuracy for fermi level given. Defaulting to  0.1000E-19.
  Maximum # of iterations to find E_F not set. Defaulting to  200.
  Preferred method for the eigenvalue solver ('KS_method') not specified in 'control.in'.
  Calling blacs routine to test compilation state
  Since scalapack support is enabled, defaulting to 'elpa'.
  Preferred method for the MBD eigenvalue solver ('mbd_eigensolver') not specified in 'control.in'.
  Calling blacs routine to test compilation state
  Since scalapack support is enabled, defaulting to 'scaLAPACK'.
  Will not use alltoall communication since running on < 1024 CPUs.
  Threshold for basis singularities not set.
  Default threshold for basis singularities:  0.1000E-04
  partition_type (choice of integration weights) for integrals was not specified.
  | Using a version of the partition function of Stratmann and coworkers ('stratmann_smoother').
  | At each grid point, the set of atoms used to build the partition table is smoothly restricted to
  | only those atoms whose free-atom density would be non-zero at that grid point.
  Partitioning for Hartree potential was not defined. Using partition_type for integrals.
  | Adjusted default value of keyword multip_moments_threshold to:       0.10000000E-11
  | This value may affect high angular momentum components of the Hartree potential in periodic systems.
  No q(lm)/r^(l+1) cutoff set for long-range Hartree potential.
  | Using default value of  0.100000E-09 .
  | Verify using the multipole_threshold keyword.
  Defaulting to new monopole extrapolation.
  Density update method: automatic selection selected.
------------------------------------------------------------


------------------------------------------------------------
          Reading geometry description geometry.in.
------------------------------------------------------------
 * Warning! You did not set the 'relativistic' flag in input file 'control.in'.
 * Since you are not attempting to treat any elements beyond Ca(Z=20), FHI-aims
 * will default to 'relativistic none'.
 * You must ensure that this is really what you want!!
 * For example, DO NOT compute total-energy differences between results from
 * different settings of the 'relativistic' flag.
  Input structure read successfully.
  The structure contains       32 atoms,  and a total of        116.000 electrons.

  Input geometry:
  | No unit cell requested.
  | Atomic structure:
  |       Atom                x [A]            y [A]            z [A]
  |    1: Species C             -0.978065         0.407561        -0.257597
  |    2: Species C             -0.695447        -0.107409         1.138569
  |    3: Species O             -0.212347        -1.231736         1.322351
  |    4: Species H             -0.041935         0.400063        -0.829726
  |    5: Species H             -1.407712         1.416213        -0.284046
  |    6: Species H             -1.668724        -0.287072        -0.751881
  |    7: Species N             -0.996711         0.747254         2.156968
  |    8: Species C             -0.906582         0.474480         3.601474
  |    9: Species C              0.539637         0.379251         4.146051
  |   10: Species O              0.875147         1.079794         5.113597
  |   11: Species H             -1.332548         1.666778         1.899355
  |   12: Species H             -1.297354         1.376938         4.086560
  |   13: Species C             -1.758751        -0.723756         4.041860
  |   14: Species H             -1.694608        -0.831774         5.132098
  |   15: Species H             -1.418510        -1.654534         3.575661
  |   16: Species H             -2.809976        -0.560230         3.771091
  |   17: Species N              1.348600        -0.512316         3.538879
  |   18: Species C              2.719375        -0.779560         3.980293
  |   19: Species C              3.695906         0.294580         3.419385
  |   20: Species O              4.508626         0.049916         2.530392
  |   21: Species H              0.972158        -1.011874         2.720563
  |   22: Species H              2.719424        -0.686517         5.077685
  |   23: Species C              3.135922        -2.182561         3.565592
  |   24: Species H              4.149885        -2.397291         3.921826
  |   25: Species H              3.146814        -2.281322         2.472849
  |   26: Species H              2.447934        -2.925663         3.988756
  |   27: Species N              3.548856         1.507871         4.018439
  |   28: Species C              4.284967         2.680620         3.591897
  |   29: Species H              2.765196         1.606010         4.669278
  |   30: Species H              4.720976         3.200341         4.455674
  |   31: Species H              3.642886         3.388608         3.045037
  |   32: Species H              5.089826         2.352943         2.925023
  |

  | The smallest distance between any two atoms is         1.01226293 AA.
  |
  | The first atom of this pair is atom number                      7 .
  | The second atom of this pair is atom number                    11 .

  Number of empty states per atom not set in control.in - providing a guess from actual geometry.
  | Total number of empty states used during s.c.f. cycle:       71
  If you use a very high smearing, use empty_states (per atom!) in control.in to increase this value.

  Structure-dependent array size parameters: 
  | Maximum number of distinct radial functions  :       40
  | Maximum number of basis functions            :      840
  | Number of Kohn-Sham states (occupied + empty):      129
------------------------------------------------------------

------------------------------------------------------------
          Preparing all fixed parts of the calculation.
------------------------------------------------------------
  Determining machine precision:
    2.225073858507201E-308
  Setting up grids for atomic and cluster calculations.

  Creating wave function, potential, and density for free atoms.

  Species: H

  List of occupied orbitals and eigenvalues:
    n    l              occ      energy [Ha]    energy [eV]
    1    0           1.0000        -0.238382        -6.4867


  Species: C

  List of occupied orbitals and eigenvalues:
    n    l              occ      energy [Ha]    energy [eV]
    1    0           2.0000       -10.041232      -273.2358
    2    0           2.0000        -0.504327       -13.7234
    2    1           2.0000        -0.193750        -5.2722


  Species: N

  List of occupied orbitals and eigenvalues:
    n    l              occ      energy [Ha]    energy [eV]
    1    0           2.0000       -14.129007      -384.4699
    2    0           2.0000        -0.681802       -18.5528
    2    1           3.0000        -0.260543        -7.0897


  Species: O

  List of occupied orbitals and eigenvalues:
    n    l              occ      energy [Ha]    energy [eV]
    1    0           2.0000       -18.898576      -514.2564
    2    0           2.0000        -0.878795       -23.9132
    2    1           4.0000        -0.332075        -9.0362

  Creating fixed part of basis set: Ionic, confined, hydrogenic.
 
  H                    hydrogenic:
 
  List of hydrogenic basis orbitals: 
    n    l      effective z      eigenvalue [eV]  inner max. [A]     outer max. [A]     outer radius [A]   
    2    0         2.100000       -14.9965           0.193243           1.317208           5.373006
    2    1         3.500000       -41.6672           0.602369           0.602369           4.056063
    1    0         0.850000        -9.8292           0.624871           0.624871           5.373006
    2    1         3.700000       -46.5653           0.573622           0.573622           3.910002
    2    0         1.200000        -4.5995           0.334980           2.228188           5.505995
    3    2         7.000000       -74.0753           0.680699           0.680699           3.769201
 
 
  C                    hydrogenic:
 
  List of hydrogenic basis orbitals: 
    n    l      effective z      eigenvalue [eV]  inner max. [A]     outer max. [A]     outer radius [A]   
    2    1         1.700000        -9.8152           1.245706           1.245706           5.401630
    3    2         6.000000       -54.4226           0.792453           0.792453           4.178599
    2    0         4.900000       -81.6681           0.082559           0.562749           3.353238
    4    3         9.800000       -81.6681           0.863254           0.863254           4.028125
    3    1         5.200000       -40.8774           0.305389           1.215618           4.898362
    3    0         4.300000       -27.9508           0.091041           1.610311           5.401630
    5    4        14.400000      -112.8510           0.917666           0.917666           3.883070
    3    2         6.200000       -58.1113           0.763917           0.763917           4.077671
 
 
  N                    hydrogenic:
 
  List of hydrogenic basis orbitals: 
    n    l      effective z      eigenvalue [eV]  inner max. [A]     outer max. [A]     outer radius [A]   
    2    1         1.800000       -11.0118           1.177451           1.177451           5.427479
    3    2         6.800000       -69.9029           0.704619           0.704619           3.854246
    3    0         5.800000       -50.8549           0.067388           1.191934           4.629968
    4    3        10.800000       -99.1854           0.786571           0.786571           3.761152
    3    1         5.800000       -50.8549           0.274880           1.094176           4.518138
    1    0         0.800000        -8.7059           0.662839           0.662839           5.361532
    5    4        16.000000      -139.3222           0.825990           0.825990           3.625711
    3    2         4.900000       -36.2967           0.968267           0.968267           4.862000
 
 
  O                    hydrogenic:
 
  List of hydrogenic basis orbitals: 
    n    l      effective z      eigenvalue [eV]  inner max. [A]     outer max. [A]     outer radius [A]   
    2    1         1.800000       -11.0118           1.178562           1.178562           5.432602
    3    2         7.600000       -87.3182           0.624125           0.624125           3.541477
    3    0         6.400000       -61.9209           0.061167           1.081902           4.306578
    4    3        11.600000      -114.4238           0.731631           0.731631           3.585037
    3    1         6.200000       -58.1113           0.255680           1.030270           4.306578
    3    2         5.600000       -47.4081           0.847233           0.847233           4.413171
    5    4        17.600000      -168.5799           0.749740           0.749740           3.372465
    1    0         0.750000        -7.6499           0.705284           0.705284           5.366593
 

  Adding cutoff potential to free-atom effective potential.
  Creating atomic-like basis functions for current effective potential.

  Species H                   :

  List of atomic basis orbitals and eigenvalues:
    n    l      energy [Ha]    energy [eV]    outer radius [A]
    1    0        -0.238382        -6.4867       5.373006


  Species C                   :

  List of atomic basis orbitals and eigenvalues:
    n    l      energy [Ha]    energy [eV]    outer radius [A]
    1    0       -10.041232      -273.2358       1.934409
    2    0        -0.504327       -13.7234       5.271162
    2    1        -0.193750        -5.2722       5.401630


  Species N                   :

  List of atomic basis orbitals and eigenvalues:
    n    l      energy [Ha]    energy [eV]    outer radius [A]
    1    0       -14.129007      -384.4699       1.637919
    2    0        -0.681802       -18.5528       5.168461
    2    1        -0.260543        -7.0897       5.361532


  Species O                   :

  List of atomic basis orbitals and eigenvalues:
    n    l      energy [Ha]    energy [eV]    outer radius [A]
    1    0       -18.898576      -514.2564       1.415765
    2    0        -0.878795       -23.9132       5.048385
    2    1        -0.332075        -9.0362       5.301386

  Assembling full basis from fixed parts.
  | Species H :   atomic orbital   1 s accepted.
  | Species H :    hydro orbital   2 s accepted.
  | Species H :    hydro orbital   1 s accepted.
  | Species H :    hydro orbital   2 s accepted.
  | Species H :    hydro orbital   2 p accepted.
  | Species H :    hydro orbital   2 p accepted.
  | Species H :    hydro orbital   3 d accepted.
  | Species C :   atomic orbital   1 s accepted.
  | Species C :    hydro orbital   2 s accepted.
  | Species C :   atomic orbital   2 s accepted.
  | Species C :    hydro orbital   3 s accepted.
  | Species C :    hydro orbital   3 p accepted.
  | Species C :   atomic orbital   2 p accepted.
  | Species C :    hydro orbital   2 p accepted.
  | Species C :    hydro orbital   3 d accepted.
  | Species C :    hydro orbital   3 d accepted.
  | Species C :    hydro orbital   4 f accepted.
  | Species C :    hydro orbital   5 g accepted.
  | Species N :   atomic orbital   1 s accepted.
  | Species N :    hydro orbital   3 s accepted.
  | Species N :   atomic orbital   2 s accepted.
  | Species N :    hydro orbital   1 s accepted.
  | Species N :    hydro orbital   3 p accepted.
  | Species N :   atomic orbital   2 p accepted.
  | Species N :    hydro orbital   2 p accepted.
  | Species N :    hydro orbital   3 d accepted.
  | Species N :    hydro orbital   3 d accepted.
  | Species N :    hydro orbital   4 f accepted.
  | Species N :    hydro orbital   5 g accepted.
  | Species O :   atomic orbital   1 s accepted.
  | Species O :    hydro orbital   3 s accepted.
  | Species O :   atomic orbital   2 s accepted.
  | Species O :    hydro orbital   1 s accepted.
  | Species O :    hydro orbital   3 p accepted.
  | Species O :   atomic orbital   2 p accepted.
  | Species O :    hydro orbital   2 p accepted.
  | Species O :    hydro orbital   3 d accepted.
  | Species O :    hydro orbital   3 d accepted.
  | Species O :    hydro orbital   4 f accepted.
  | Species O :    hydro orbital   5 g accepted.
 
  Basis size parameters after reduction:
  | Total number of radial functions:       40
  | Total number of basis functions :      840
 
  Testing on-site integration grid accuracy.
  |  Species  Function  <phi|h_atom|phi> (log., in eV)  <phi|h_atom|phi> (rad., in eV)
           1        1                 -6.4869821809                 -6.4870742227
           1        2                 13.5044133542                 13.5041049177
           1        3                 32.7854418792                 32.7779770519
           1        4                 33.7995553101                 33.7152624900 ***
           1        5                 28.8558651799                 28.8558652046
           1        6                 59.6361831893                 59.6362535845
           1        7                 60.2733718049                 60.2733715484
           2        8               -273.2358277112               -273.2358261765
           2        9                -10.7624923123                -10.7625144012
           2       10                 17.4634079027                 17.4634252127
           2       11                 53.0363661832                 53.0366180446
           2       12                 15.0981351967                 15.0981317714
           2       13                  3.8522181899                  3.8522770949
           2       14                 12.1181835661                 12.1206868578
           2       15                 29.4320778347                 29.4320780959
           2       16                 54.8753777694                 54.8752901936
           2       17                 59.3533975461                 59.3533974833
           2       18                 93.4537491195                 93.4537492066
           3       19               -384.4698526889               -384.4698499465
           3       20                 12.5691022037                 12.5690910168
           3       21                -15.7489097511                -15.7489165588
           3       22                 27.0978334940                 27.0985589490
           3       23                 18.5949116966                 18.5949125562
           3       24                  1.2212828291                  1.2212855301
           3       25                 13.4428926797                 13.4434051125
           3       26                 35.9380614500                 35.9380613666
           3       27                 39.9231532098                 39.9231654735
           3       28                 72.9957335806                 72.9957336833
           3       29                116.4231321147                116.4231321431
           4       30               -514.2564144315               -514.2564099626
           4       31                 15.1726678541                 15.1726530877
           4       32                -21.5447785304                -21.5447874973
           4       33                 14.4944558459                 14.4944698284
           4       34                 20.8882174564                 20.8882178906
           4       35                 -2.4850315908                 -2.4850322289
           4       36                 13.8600193195                 13.8599826966
           4       37                 45.8243383616                 45.8243383675
           4       38                 52.1840606465                 52.1840622440
           4       39                 85.4074185510                 85.4074185819
           4       40                142.0983717302                142.0983717339
 * Note: Onsite integrals marked "***" above are less accurate than
 * onsite_accuracy_threshold =    0.03000 eV. Usually, this is harmless.
 * When in doubt, tighten the "radial" and/or "radial_multiplier" flags to check.

  Preparing densities etc. for the partition functions (integrals / Hartree potential).

  Preparations completed.
  max(cpu_time)          :      0.240 s.
  Wall clock time (cpu1) :      0.231 s.
------------------------------------------------------------

------------------------------------------------------------
          Begin self-consistency loop: Initialization.

          Date     :  20170309, Time     :  160657.065
------------------------------------------------------------

  Initializing index lists of integration centers etc. from given atomic structure:
  | Number of centers in hartree potential         :        32
  | Number of centers in hartree multipole         :        32
  | Number of centers in electron density summation:        32
  | Number of centers in basis integrals           :        32
  | Number of centers in integrals                 :        32
  | Number of centers in hamiltonian               :        32
  Using modified Scalapack Eigenvalue solver (ELPA)
  * Using 32 tasks for Scalapack Eigenvalue solver.
  Detailed listing of tasks and assigned k-points:
  (for non-periodic systems, the "k-point" denotes an internal label only)
   Task     0 k-point     1 on eos111
   Task     1 k-point     1 on eos111
   Task     2 k-point     1 on eos111
   Task     3 k-point     1 on eos111
   Task     4 k-point     1 on eos111
   Task     5 k-point     1 on eos111
   Task     6 k-point     1 on eos111
   Task     7 k-point     1 on eos111
   Task     8 k-point     1 on eos111
   Task     9 k-point     1 on eos111
   Task    10 k-point     1 on eos111
   Task    11 k-point     1 on eos111
   Task    12 k-point     1 on eos111
   Task    13 k-point     1 on eos111
   Task    14 k-point     1 on eos111
   Task    15 k-point     1 on eos111
   Task    16 k-point     1 on eos111
   Task    17 k-point     1 on eos111
   Task    18 k-point     1 on eos111
   Task    19 k-point     1 on eos111
   Task    20 k-point     1 on eos111
   Task    21 k-point     1 on eos111
   Task    22 k-point     1 on eos111
   Task    23 k-point     1 on eos111
   Task    24 k-point     1 on eos111
   Task    25 k-point     1 on eos111
   Task    26 k-point     1 on eos111
   Task    27 k-point     1 on eos111
   Task    28 k-point     1 on eos111
   Task    29 k-point     1 on eos111
   Task    30 k-point     1 on eos111
   Task    31 k-point     1 on eos111
  Tasks:    32 split into      8 X      4 BLACS grid
  Calculating blocksize based on n_basis =          840 max_nprow =            8 max_npcol =            4
  Scalapack blocksize set to:           16
  Required Scalapack workspace - INTEGER:            1 REAL:             1
  Partitioning the integration grid into batches with parallel hashing+maxmin method.
  | Number of batches:     4921
  | Maximal batch size:     200
  | Minimal batch size:      49
  | Average batch size:     107.240
  | Standard deviation of batch sizes:      26.867

  Integration load balanced across    32 MPI tasks.
  Work distribution over tasks is as follows:
  Task     0 has      16499 integration points.
  Task     1 has      16549 integration points.
  Task     2 has      16425 integration points.
  Task     3 has      16463 integration points.
  Task     4 has      16431 integration points.
  Task     5 has      16465 integration points.
  Task     6 has      16545 integration points.
  Task     7 has      16431 integration points.
  Task     8 has      16483 integration points.
  Task     9 has      16480 integration points.
  Task    10 has      16459 integration points.
  Task    11 has      16533 integration points.
  Task    12 has      16486 integration points.
  Task    13 has      16482 integration points.
  Task    14 has      16482 integration points.
  Task    15 has      16534 integration points.
  Task    16 has      16474 integration points.
  Task    17 has      16478 integration points.
  Task    18 has      16542 integration points.
  Task    19 has      16539 integration points.
  Task    20 has      16538 integration points.
  Task    21 has      16525 integration points.
  Task    22 has      16536 integration points.
  Task    23 has      16480 integration points.
  Task    24 has      16480 integration points.
  Task    25 has      16529 integration points.
  Task    26 has      16532 integration points.
  Task    27 has      16446 integration points.
  Task    28 has      16531 integration points.
  Task    29 has      16478 integration points.
  Task    30 has      16428 integration points.
  Task    31 has      16445 integration points.
  Initializing partition tables, free-atom densities, potentials, etc. across the integration grid (initialize_grid_storage).
  | initialize_grid_storage: Actual outermost partition radius vs. multipole_radius_free
  | (-- VB: in principle, multipole_radius_free should be larger, hence this output)
  | Species        1: Confinement radius =              6.000000000000000 AA, multipole_radius_free =              6.071692442739658 AA.
  | Species        1: outer_partition_radius set to              6.071692442739658 AA .
  | Species        2: Confinement radius =              6.000000000000000 AA, multipole_radius_free =              6.029870734432609 AA.
  | Species        2: outer_partition_radius set to              6.029870734432609 AA .
  | Species        3: Confinement radius =              6.000000000000000 AA, multipole_radius_free =              6.058726835495003 AA.
  | Species        3: outer_partition_radius set to              6.058726835495003 AA .
  | Species        4: Confinement radius =              6.000000000000000 AA, multipole_radius_free =              6.064445521808699 AA.
  | Species        4: outer_partition_radius set to              6.064445521808699 AA .
  | Original list of interatomic distances with          32 x         32 entries is created.
  | Net number of integration points:   527728
  | of which are non-zero points    :   416116
  Obtaining max. number of non-zero basis functions in each batch (get_n_compute_maxes).
  | Maximal number of non-zero basis functions:      791 in task     0
  | Maximal number of non-zero basis functions:      791 in task     1
  | Maximal number of non-zero basis functions:      767 in task     2
  | Maximal number of non-zero basis functions:      783 in task     3
  | Maximal number of non-zero basis functions:      773 in task     4
  | Maximal number of non-zero basis functions:      792 in task     5
  | Maximal number of non-zero basis functions:      787 in task     6
  | Maximal number of non-zero basis functions:      778 in task     7
  | Maximal number of non-zero basis functions:      776 in task     8
  | Maximal number of non-zero basis functions:      764 in task     9
  | Maximal number of non-zero basis functions:      781 in task    10
  | Maximal number of non-zero basis functions:      770 in task    11
  | Maximal number of non-zero basis functions:      758 in task    12
  | Maximal number of non-zero basis functions:      785 in task    13
  | Maximal number of non-zero basis functions:      797 in task    14
  | Maximal number of non-zero basis functions:      771 in task    15
  | Maximal number of non-zero basis functions:      787 in task    16
  | Maximal number of non-zero basis functions:      781 in task    17
  | Maximal number of non-zero basis functions:      783 in task    18
  | Maximal number of non-zero basis functions:      779 in task    19
  | Maximal number of non-zero basis functions:      791 in task    20
  | Maximal number of non-zero basis functions:      765 in task    21
  | Maximal number of non-zero basis functions:      783 in task    22
  | Maximal number of non-zero basis functions:      788 in task    23
  | Maximal number of non-zero basis functions:      781 in task    24
  | Maximal number of non-zero basis functions:      802 in task    25
  | Maximal number of non-zero basis functions:      792 in task    26
  | Maximal number of non-zero basis functions:      782 in task    27
  | Maximal number of non-zero basis functions:      765 in task    28
  | Maximal number of non-zero basis functions:      778 in task    29
  | Maximal number of non-zero basis functions:      794 in task    30
  | Maximal number of non-zero basis functions:      791 in task    31
  Selecting the method for density update.
  Loop over occupied states selected for charge density update.
  Integrating Hamiltonian matrix: batch-based integration.
  Time summed over all CPUs for integration: real work       20.367 s, elapsed       20.956 s
  Integrating overlap matrix.
  Time summed over all CPUs for integration: real work       12.023 s, elapsed       12.460 s
  Deallocating overlap matrix.

  Updating Kohn-Sham eigenvalues, eigenvectors, occupation numbers, and Fermi level.
  Solving generalized eigenproblem
  Solving real symmetric generalised eigenvalue problem by standard ScaLAPACK.
  Transforming overlap matrix with ScaLAPACK and checking for singularities.
  : Overlap matrix is nonsingular, using Cholesky decomposition
  | Lowest eigenvalue:  0.839015E-04
  Factoring overlap matrix with Cholesky decomposition
  Using Cholesky factor for transformation
  Using 1-stage real ELPA solver
  Determining occupation numbers for Kohn-Sham eigenstates.
  | Chemical potential (Fermi level) in eV                 : -.95189053E+01
  | Error in electron count due to remaining E_F inaccuracy: 0.00000000E+00
  | Maximum occupation number of highest empty state:  0.00E+00

  Writing Kohn-Sham eigenvalues.

  State    Occupation    Eigenvalue [Ha]    Eigenvalue [eV]
      1       2.00000         -18.974297         -516.31690
      2       2.00000         -18.974103         -516.31161
      3       2.00000         -18.972374         -516.26456
      4       2.00000         -14.255251         -387.90511
      5       2.00000         -14.254785         -387.89244
      6       2.00000         -14.253964         -387.87010
      7       2.00000         -10.172036         -276.79518
      8       2.00000         -10.171220         -276.77297
      9       2.00000         -10.170723         -276.75944
     10       2.00000         -10.166709         -276.65022
     11       2.00000         -10.148039         -276.14219
     12       2.00000         -10.147195         -276.11923
     13       2.00000         -10.136179         -275.81945
     14       2.00000         -10.134480         -275.77323
     15       2.00000         -10.133765         -275.75378
     16       2.00000          -1.131912          -30.80090
     17       2.00000          -1.129283          -30.72936
     18       2.00000          -1.124230          -30.59187
     19       2.00000          -1.020874          -27.77940
     20       2.00000          -1.013581          -27.58095
     21       2.00000          -1.007087          -27.40422
     22       2.00000          -0.893578          -24.31550
     23       2.00000          -0.875427          -23.82158
     24       2.00000          -0.842003          -22.91206
     25       2.00000          -0.823871          -22.41867
     26       2.00000          -0.774223          -21.06768
     27       2.00000          -0.751138          -20.43950
     28       2.00000          -0.703443          -19.14166
     29       2.00000          -0.681524          -18.54521
     30       2.00000          -0.675501          -18.38132
     31       2.00000          -0.643168          -17.50148
     32       2.00000          -0.639270          -17.39543
     33       2.00000          -0.617163          -16.79387
     34       2.00000          -0.599651          -16.31733
     35       2.00000          -0.595237          -16.19721
     36       2.00000          -0.580600          -15.79894
     37       2.00000          -0.562221          -15.29881
     38       2.00000          -0.560067          -15.24019
     39       2.00000          -0.558178          -15.18880
     40       2.00000          -0.555259          -15.10937
     41       2.00000          -0.548842          -14.93475
     42       2.00000          -0.539562          -14.68224
     43       2.00000          -0.533735          -14.52368
     44       2.00000          -0.530660          -14.43999
     45       2.00000          -0.515800          -14.03564
     46       2.00000          -0.512941          -13.95784
     47       2.00000          -0.510153          -13.88196
     48       2.00000          -0.505498          -13.75529
     49       2.00000          -0.491099          -13.36348
     50       2.00000          -0.485568          -13.21297
     51       2.00000          -0.482275          -13.12337
     52       2.00000          -0.477109          -12.98279
     53       2.00000          -0.417732          -11.36705
     54       2.00000          -0.413505          -11.25205
     55       2.00000          -0.403996          -10.99328
     56       2.00000          -0.385829          -10.49893
     57       2.00000          -0.381716          -10.38702
     58       2.00000          -0.377393          -10.26937
     59       0.00000          -0.171219           -4.65910
     60       0.00000          -0.158401           -4.31031
     61       0.00000          -0.153684           -4.18196
     62       0.00000          -0.076813           -2.09020
     63       0.00000          -0.067079           -1.82532
     64       0.00000          -0.049888           -1.35752
     65       0.00000          -0.048245           -1.31281
     66       0.00000          -0.044050           -1.19867
     67       0.00000          -0.037245           -1.01350
     68       0.00000          -0.033026           -0.89868
     69       0.00000          -0.028653           -0.77970
     70       0.00000          -0.020907           -0.56892
     71       0.00000          -0.017557           -0.47774
     72       0.00000          -0.013487           -0.36699
     73       0.00000          -0.010625           -0.28912
     74       0.00000          -0.006874           -0.18705
     75       0.00000          -0.004415           -0.12013
     76       0.00000           0.000367            0.00999
     77       0.00000           0.001272            0.03461
     78       0.00000           0.003345            0.09103
     79       0.00000           0.007597            0.20671
     80       0.00000           0.016045            0.43661
     81       0.00000           0.021162            0.57585
     82       0.00000           0.025155            0.68449
     83       0.00000           0.037425            1.01838
     84       0.00000           0.040748            1.10881
     85       0.00000           0.045420            1.23594
     86       0.00000           0.052769            1.43591
     87       0.00000           0.056231            1.53011
     88       0.00000           0.056452            1.53614
     89       0.00000           0.059724            1.62516
     90       0.00000           0.066037            1.79695
     91       0.00000           0.067088            1.82556
     92       0.00000           0.078673            2.14080
     93       0.00000           0.080205            2.18248
     94       0.00000           0.087087            2.36977
     95       0.00000           0.093226            2.53680
     96       0.00000           0.099749            2.71431
     97       0.00000           0.102086            2.77789
     98       0.00000           0.107756            2.93219
     99       0.00000           0.117034            3.18465
    100       0.00000           0.125723            3.42109
    101       0.00000           0.128028            3.48383
    102       0.00000           0.134824            3.66875
    103       0.00000           0.137819            3.75024
    104       0.00000           0.144736            3.93847
    105       0.00000           0.145817            3.96790
    106       0.00000           0.149432            4.06625
    107       0.00000           0.155028            4.21851
    108       0.00000           0.161883            4.40505
    109       0.00000           0.163425            4.44702
    110       0.00000           0.174272            4.74218
    111       0.00000           0.177926            4.84161
    112       0.00000           0.181273            4.93270
    113       0.00000           0.183289            4.98755
    114       0.00000           0.185408            5.04522
    115       0.00000           0.193937            5.27729
    116       0.00000           0.202295            5.50473
    117       0.00000           0.204085            5.55342
    118       0.00000           0.204919            5.57612
    119       0.00000           0.208551            5.67495
    120       0.00000           0.215935            5.87590
    121       0.00000           0.218973            5.95856
    122       0.00000           0.220169            5.99111
    123       0.00000           0.225722            6.14222
    124       0.00000           0.231684            6.30445
    125       0.00000           0.238887            6.50044
    126       0.00000           0.241580            6.57373
    127       0.00000           0.244007            6.63975
    128       0.00000           0.252479            6.87030
    129       0.00000           0.271101            7.37703

  Highest occupied state (VBM) at    -10.26937330 eV
  | Occupation number:      2.00000000

  Lowest unoccupied state (CBM) at    -4.65909923 eV
  | Occupation number:      0.00000000

  Overall HOMO-LUMO gap:      5.61027407 eV.
  Calculating total energy contributions from superposition of free atom densities.

  Total energy components:
  | Sum of eigenvalues            :        -437.87404130 Ha      -11915.15890028 eV
  | XC energy correction          :         -98.82074288 Ha       -2689.04923106 eV
  | XC potential correction       :         127.02201533 Ha        3456.44489922 eV
  | Free-atom electrostatic energy:        -333.62697029 Ha       -9078.45176807 eV
  | Hartree energy correction     :           0.00000000 Ha           0.00000000 eV
  | MBD@rsSCS energy              :           0.00000000 Ha           0.00000000 eV
  | Entropy correction            :          -0.00000000 Ha          -0.00000000 eV
  | ---------------------------
  | Total energy                  :        -743.29973913 Ha      -20226.21500019 eV
  | Total energy, T -> 0          :        -743.29973913 Ha      -20226.21500019 eV  <-- do not rely on this value for anything but (periodic) metals
  | Electronic free energy        :        -743.29973913 Ha      -20226.21500019 eV

  Derived energy quantities:
  | Kinetic energy                :         735.15196232 Ha       20004.50271259 eV
  | Electrostatic energy          :       -1379.63095857 Ha      -37541.66848172 eV
  | Energy correction for multipole
  | error in Hartree potential    :           0.00000000 Ha           0.00000000 eV
  | Sum of eigenvalues per atom                           :        -372.34871563 eV
  | Total energy (T->0) per atom                          :        -632.06921876 eV  <-- do not rely on this value for anything but (periodic) metals
  | Electronic free energy per atom                       :        -632.06921876 eV
  Initialize hartree_potential_storage
  Max. number of atoms included in rho_multipole:           32

  End scf initialization - timings             :  max(cpu_time)    wall_clock(cpu1)
  | Time for scf. initialization               :        1.800 s           1.798 s
  | Boundary condition initialization          :        0.000 s           0.001 s
  | Integration                                :        1.068 s           1.066 s
  | Solution of K.-S. eqns.                    :        0.076 s           0.075 s
  | Grid partitioning                          :        0.316 s           0.313 s
  | Preloading free-atom quantities on grid    :        0.028 s           0.028 s
  | Free-atom superposition energy             :        0.040 s           0.038 s
  | Total energy evaluation                    :        0.004 s           0.001 s
------------------------------------------------------------

------------------------------------------------------------
          Begin self-consistency iteration #    1

  Date     :  20170309, Time     :  160658.864
------------------------------------------------------------
  Evaluating new KS density.
  Integration grid: deviation in total charge (<rho> - N_e) =   2.842171E-14
  Pulay mixing of updated and previous charge densities.

  Evaluating partitioned Hartree potential by multipole expansion.
  | Analytical far-field extrapolation by fixed multipoles:
  | Hartree multipole sum: apparent total charge =  -0.152934E-04
  Summing up the Hartree potential.
  Time summed over all CPUs for potential: real work        9.549 s, elapsed        9.770 s
  | RMS charge density error from multipole expansion :   0.104287E-01

  Integrating Hamiltonian matrix: batch-based integration.
  Time summed over all CPUs for integration: real work       20.415 s, elapsed       21.292 s

  Updating Kohn-Sham eigenvalues, eigenvectors, occupation numbers, and Fermi level.
  Solving generalized eigenproblem
  Solving real symmetric generalised eigenvalue problem by standard ScaLAPACK.
  Using Cholesky factor for transformation
  Using 2-stage real ELPA solver
  K-Point:    1, Trafo times: 1-stage=     0.021 s, 2-stage=     0.019 s ==> Using 2-stage solver
  Determining occupation numbers for Kohn-Sham eigenstates.
  | Chemical potential (Fermi level) in eV                 : -.38710353E+01
  | Error in electron count due to remaining E_F inaccuracy: 0.00000000E+00
  | Maximum occupation number of highest empty state:  0.00E+00

  Writing Kohn-Sham eigenvalues.

  State    Occupation    Eigenvalue [Ha]    Eigenvalue [eV]
      1       2.00000         -18.637301         -507.14677
      2       2.00000         -18.634923         -507.08205
      3       2.00000         -18.601762         -506.17970
      4       2.00000         -14.009771         -381.22527
      5       2.00000         -13.983713         -380.51618
      6       2.00000         -13.965085         -380.00930
      7       2.00000         -10.064770         -273.87633
      8       2.00000         -10.057844         -273.68785
      9       2.00000         -10.032372         -272.99474
     10       2.00000          -9.971852         -271.34789
     11       2.00000          -9.948416         -270.71017
     12       2.00000          -9.870477         -268.58936
     13       2.00000          -9.856678         -268.21386
     14       2.00000          -9.835926         -267.64916
     15       2.00000          -9.819645         -267.20615
     16       2.00000          -0.974787          -26.52530
     17       2.00000          -0.964465          -26.24442
     18       2.00000          -0.940713          -25.59809
     19       2.00000          -0.878983          -23.91834
     20       2.00000          -0.862575          -23.47186
     21       2.00000          -0.841046          -22.88602
     22       2.00000          -0.750595          -20.42472
     23       2.00000          -0.716361          -19.49319
     24       2.00000          -0.693451          -18.86977
     25       2.00000          -0.662092          -18.01643
     26       2.00000          -0.629766          -17.13681
     27       2.00000          -0.601608          -16.37058
     28       2.00000          -0.575041          -15.64765
     29       2.00000          -0.547369          -14.89466
     30       2.00000          -0.533825          -14.52611
     31       2.00000          -0.515836          -14.03662
     32       2.00000          -0.500917          -13.63064
     33       2.00000          -0.476441          -12.96462
     34       2.00000          -0.450576          -12.26081
     35       2.00000          -0.444619          -12.09869
     36       2.00000          -0.437325          -11.90023
     37       2.00000          -0.428126          -11.64991
     38       2.00000          -0.414382          -11.27591
     39       2.00000          -0.412405          -11.22212
     40       2.00000          -0.402301          -10.94716
     41       2.00000          -0.391931          -10.66498
     42       2.00000          -0.383157          -10.42624
     43       2.00000          -0.377120          -10.26196
     44       2.00000          -0.369723          -10.06068
     45       2.00000          -0.368027          -10.01453
     46       2.00000          -0.360301           -9.80430
     47       2.00000          -0.356776           -9.70838
     48       2.00000          -0.349857           -9.52009
     49       2.00000          -0.347729           -9.46219
     50       2.00000          -0.343285           -9.34127
     51       2.00000          -0.337314           -9.17877
     52       2.00000          -0.329277           -8.96009
     53       2.00000          -0.256803           -6.98797
     54       2.00000          -0.243289           -6.62024
     55       2.00000          -0.228556           -6.21932
     56       2.00000          -0.220061           -5.98817
     57       2.00000          -0.214765           -5.84406
     58       2.00000          -0.195128           -5.30970
     59       0.00000          -0.059746           -1.62577
     60       0.00000          -0.049142           -1.33722
     61       0.00000          -0.045432           -1.23626
     62       0.00000          -0.025956           -0.70630
     63       0.00000          -0.014327           -0.38986
     64       0.00000          -0.009202           -0.25041
     65       0.00000          -0.005750           -0.15646
     66       0.00000           0.006858            0.18662
     67       0.00000           0.018910            0.51457
     68       0.00000           0.021750            0.59184
     69       0.00000           0.024140            0.65689
     70       0.00000           0.033105            0.90085
     71       0.00000           0.036414            0.99088
     72       0.00000           0.040553            1.10351
     73       0.00000           0.043851            1.19324
     74       0.00000           0.049032            1.33422
     75       0.00000           0.052047            1.41628
     76       0.00000           0.062026            1.68780
     77       0.00000           0.069324            1.88641
     78       0.00000           0.075208            2.04652
     79       0.00000           0.080083            2.17917
     80       0.00000           0.087034            2.36831
     81       0.00000           0.094045            2.55909
     82       0.00000           0.100256            2.72812
     83       0.00000           0.104851            2.85313
     84       0.00000           0.108329            2.94778
     85       0.00000           0.109005            2.96618
     86       0.00000           0.118427            3.22258
     87       0.00000           0.122701            3.33886
     88       0.00000           0.124675            3.39257
     89       0.00000           0.128890            3.50728
     90       0.00000           0.134227            3.65249
     91       0.00000           0.141037            3.83782
     92       0.00000           0.149039            4.05557
     93       0.00000           0.150758            4.10234
     94       0.00000           0.161781            4.40229
     95       0.00000           0.163628            4.45255
     96       0.00000           0.171697            4.67211
     97       0.00000           0.177500            4.83002
     98       0.00000           0.177662            4.83443
     99       0.00000           0.188261            5.12283
    100       0.00000           0.193374            5.26197
    101       0.00000           0.197308            5.36903
    102       0.00000           0.201039            5.47055
    103       0.00000           0.208326            5.66883
    104       0.00000           0.211074            5.74361
    105       0.00000           0.213604            5.81247
    106       0.00000           0.220732            6.00642
    107       0.00000           0.221450            6.02596
    108       0.00000           0.226681            6.16831
    109       0.00000           0.229053            6.23285
    110       0.00000           0.230581            6.27442
    111       0.00000           0.239742            6.52371
    112       0.00000           0.241730            6.57780
    113       0.00000           0.247904            6.74582
    114       0.00000           0.255433            6.95068
    115       0.00000           0.257770            7.01429
    116       0.00000           0.266133            7.24185
    117       0.00000           0.269385            7.33033
    118       0.00000           0.271950            7.40013
    119       0.00000           0.275899            7.50759
    120       0.00000           0.284790            7.74952
    121       0.00000           0.288959            7.86298
    122       0.00000           0.297839            8.10462
    123       0.00000           0.299418            8.14759
    124       0.00000           0.302141            8.22166
    125       0.00000           0.310659            8.45346
    126       0.00000           0.322081            8.76426
    127       0.00000           0.328130            8.92888
    128       0.00000           0.331833            9.02964
    129       0.00000           0.339997            9.25180

  Highest occupied state (VBM) at     -5.30970114 eV
  | Occupation number:      2.00000000

  Lowest unoccupied state (CBM) at    -1.62577062 eV
  | Occupation number:      0.00000000

  Overall HOMO-LUMO gap:      3.68393052 eV.

  Total energy components:
  | Sum of eigenvalues            :        -417.23847890 Ha      -11353.63667755 eV
  | XC energy correction          :        -100.75044181 Ha       -2741.55901066 eV
  | XC potential correction       :         129.52517998 Ha        3524.55947477 eV
  | Free-atom electrostatic energy:        -333.62697029 Ha       -9078.45176807 eV
  | Hartree energy correction     :         -20.63876190 Ha        -561.60928563 eV
  | MBD@rsSCS energy              :           0.00000000 Ha           0.00000000 eV
  | Entropy correction            :           0.00000000 Ha           0.00000000 eV
  | ---------------------------
  | Total energy                  :        -742.72947292 Ha      -20210.69726714 eV
  | Total energy, T -> 0          :        -742.72947292 Ha      -20210.69726714 eV  <-- do not rely on this value for anything but (periodic) metals
  | Electronic free energy        :        -742.72947292 Ha      -20210.69726714 eV

  Derived energy quantities:
  | Kinetic energy                :         743.99292454 Ha       20245.07753480 eV
  | Electrostatic energy          :       -1385.97195565 Ha      -37714.21579128 eV
  | Energy correction for multipole
  | error in Hartree potential    :          -0.04108106 Ha          -1.11787240 eV
  | Sum of eigenvalues per atom                           :        -354.80114617 eV
  | Total energy (T->0) per atom                          :        -631.58428960 eV  <-- do not rely on this value for anything but (periodic) metals
  | Electronic free energy per atom                       :        -631.58428960 eV

  Self-consistency convergence accuracy:
  | Change of charge density      :  0.8990E+00
  | Change of sum of eigenvalues  :  0.5615E+03 eV
  | Change of total energy        :  0.1552E+02 eV

  End self-consistency iteration #     1       :  max(cpu_time)    wall_clock(cpu1)
  | Time for this iteration                    :        1.492 s           1.489 s
[...]
   Multipole                     : -0.402372E+00  0.155866E+00  0.413268E+00
   Pulay + GGA                   : -0.851923E+01  0.320122E+01  0.949567E+01
   MBD@rsSCS                     : -0.171495E-01 -0.271278E-02  0.124547E-01
   ----------------------------------------------------------------
   Total forces(  20)            : -0.939441E-02 -0.112885E-01  0.118841E-01
  atom #   21
   Hellmann-Feynman              : -0.244242E-02  0.230991E-01  0.342991E-01
   Ionic forces                  :  0.000000E+00  0.000000E+00  0.000000E+00
   Multipole                     :  0.356692E-01 -0.916770E-02  0.136483E-01
   Pulay + GGA                   : -0.374395E-01 -0.208913E-01 -0.440450E-01
   MBD@rsSCS                     :  0.294580E-02  0.225286E-02  0.707495E-02
   ----------------------------------------------------------------
   Total forces(  21)            : -0.126686E-02 -0.470702E-02  0.109773E-01
  atom #   22
   Hellmann-Feynman              : -0.241166E-01 -0.101932E-03 -0.549177E-01
   Ionic forces                  :  0.000000E+00  0.000000E+00  0.000000E+00
   Multipole                     :  0.175186E-01 -0.205140E-02 -0.548482E-02
   Pulay + GGA                   :  0.656634E-02  0.276772E-02  0.595560E-01
   MBD@rsSCS                     : -0.277718E-02  0.486877E-02 -0.393816E-02
   ----------------------------------------------------------------
   Total forces(  22)            : -0.280886E-02  0.548315E-02 -0.478466E-02
  atom #   23
   Hellmann-Feynman              :  0.311916E+00 -0.952350E+00 -0.389683E+00
   Ionic forces                  :  0.000000E+00  0.000000E+00  0.000000E+00
   Multipole                     : -0.586011E-01  0.213393E+00  0.146888E+00
   Pulay + GGA                   : -0.240628E+00  0.730771E+00  0.239010E+00
   MBD@rsSCS                     : -0.859437E-02  0.102482E-01 -0.305217E-02
   ----------------------------------------------------------------
   Total forces(  23)            :  0.409311E-02  0.206205E-02 -0.683735E-02
  atom #   24
   Hellmann-Feynman              : -0.323210E-01  0.608119E-01 -0.217523E-01
   Ionic forces                  :  0.000000E+00  0.000000E+00  0.000000E+00
   Multipole                     : -0.163772E-01 -0.272127E-01 -0.162909E-01
   Pulay + GGA                   :  0.501123E-01 -0.242541E-01  0.372365E-01
   MBD@rsSCS                     : -0.262504E-02  0.102255E-01 -0.362681E-03
   ----------------------------------------------------------------
   Total forces(  24)            : -0.121092E-02  0.195705E-01 -0.116936E-02
  atom #   25
   Hellmann-Feynman              :  0.251475E-01  0.498551E-01  0.413673E-01
   Ionic forces                  :  0.000000E+00  0.000000E+00  0.000000E+00
   Multipole                     : -0.273484E-02 -0.167141E-01  0.198815E-01
   Pulay + GGA                   : -0.212811E-01 -0.208342E-01 -0.582625E-01
   MBD@rsSCS                     : -0.587958E-02  0.120326E-01  0.475674E-03
   ----------------------------------------------------------------
   Total forces(  25)            : -0.474799E-02  0.243393E-01  0.346193E-02
  atom #   26
   Hellmann-Feynman              :  0.818919E-02  0.581541E-01  0.212389E-02
   Ionic forces                  :  0.000000E+00  0.000000E+00  0.000000E+00
   Multipole                     :  0.247102E-01 -0.146026E-01 -0.245482E-01
   Pulay + GGA                   : -0.351287E-01 -0.400997E-01  0.239001E-01
   MBD@rsSCS                     : -0.603856E-02  0.103730E-01 -0.188443E-03
   ----------------------------------------------------------------
   Total forces(  26)            : -0.826782E-02  0.138248E-01  0.128726E-02
  atom #   27
   Hellmann-Feynman              :  0.101890E+00 -0.146886E+01  0.155573E+01
   Ionic forces                  :  0.000000E+00  0.000000E+00  0.000000E+00
   Multipole                     : -0.124426E-02 -0.126889E+00 -0.126135E+00
   Pulay + GGA                   : -0.117319E+00  0.159459E+01 -0.142338E+01
   MBD@rsSCS                     : -0.199393E-01 -0.215986E-01 -0.583962E-03
   ----------------------------------------------------------------
   Total forces(  27)            : -0.366122E-01 -0.227525E-01  0.563326E-02
  atom #   28
   Hellmann-Feynman              :  0.136550E+01  0.156071E+01 -0.768006E+00
   Ionic forces                  :  0.000000E+00  0.000000E+00  0.000000E+00
   Multipole                     : -0.777925E-01 -0.119873E+00  0.631358E-01
   Pulay + GGA                   : -0.127574E+01 -0.143573E+01  0.700081E+00
   MBD@rsSCS                     : -0.517532E-02 -0.104684E-01 -0.545643E-03
   ----------------------------------------------------------------
   Total forces(  28)            :  0.679175E-02 -0.536158E-02 -0.533531E-02
  atom #   29
   Hellmann-Feynman              :  0.695525E-02 -0.268822E-01 -0.259947E-01
   Ionic forces                  :  0.000000E+00  0.000000E+00  0.000000E+00
   Multipole                     :  0.363824E-01  0.379054E-01 -0.934842E-02
   Pulay + GGA                   : -0.434147E-01 -0.101197E-01  0.334849E-01
   MBD@rsSCS                     :  0.214078E-02 -0.537906E-02 -0.790257E-02
   ----------------------------------------------------------------
   Total forces(  29)            :  0.206368E-02 -0.447557E-02 -0.976081E-02
  atom #   30
   Hellmann-Feynman              : -0.298977E-01 -0.495717E-01 -0.109585E-01
   Ionic forces                  :  0.000000E+00  0.000000E+00  0.000000E+00
   Multipole                     : -0.155083E-02  0.807850E-02 -0.318049E-01
   Pulay + GGA                   :  0.300564E-01  0.444201E-01  0.455148E-01
   MBD@rsSCS                     : -0.352108E-02 -0.583007E-02  0.107923E-03
   ----------------------------------------------------------------
   Total forces(  30)            : -0.491326E-02 -0.290317E-02  0.285937E-02
  atom #   31
   Hellmann-Feynman              : -0.111236E-02 -0.548142E-01  0.204440E-01
   Ionic forces                  :  0.000000E+00  0.000000E+00  0.000000E+00
   Multipole                     :  0.321255E-01  0.298643E-03  0.170734E-01
   Pulay + GGA                   : -0.300746E-01  0.565406E-01 -0.340153E-01
   MBD@rsSCS                     : -0.367577E-02 -0.688377E-02  0.109540E-02
   ----------------------------------------------------------------
   Total forces(  31)            : -0.273730E-02 -0.485870E-02  0.459753E-02
  atom #   32
   Hellmann-Feynman              : -0.427280E-01 -0.587209E-01  0.215525E-01
   Ionic forces                  :  0.000000E+00  0.000000E+00  0.000000E+00
   Multipole                     : -0.814419E-02  0.494852E-01  0.104410E-01
   Pulay + GGA                   :  0.527237E-01  0.791199E-02 -0.330695E-01
   MBD@rsSCS                     : -0.507776E-02 -0.447078E-02  0.222372E-02
   ----------------------------------------------------------------
   Total forces(  32)            : -0.322631E-02 -0.579449E-02  0.114765E-02

  Removing unitary transformations (pure translations, rotations) from forces on atoms.
  Atomic forces before filtering:
  | Net force on center of mass :  -0.242780E-03  0.525553E-03 -0.454454E-03 eV/A
  | Net torque on center of mass:   0.133574E-02 -0.184646E-02 -0.113082E-02 eV
  Atomic forces after filtering:
  | Net force on center of mass :   0.139380E-17  0.627209E-17 -0.128926E-16 eV/A
  | Net torque on center of mass:   0.282119E-16 -0.479418E-16 -0.885079E-17 eV

  Energy and forces in a compact form:
  | Total energy uncorrected      :         -0.202094131263583E+05 eV
  | Total energy corrected        :         -0.202094131263583E+05 eV  <-- do not rely on this value for anything but (periodic) metals
  | Electronic free energy        :         -0.202094131263583E+05 eV
  Total atomic forces (unitary forces cleaned) [eV/Ang]:
  |   1         -0.279126685097149E-02          0.542101197875181E-02         -0.329856910483797E-02
  |   2          0.984129972930368E-02         -0.887721191258653E-02          0.549762974818796E-01
  |   3         -0.126241659482029E-01          0.201756876754441E-01          0.158961222631383E-01
  |   4          0.153327119985089E-03         -0.616038462206937E-02          0.449796962788340E-02
  |   5          0.431092771520486E-03         -0.416702040463860E-04          0.111200943462678E-01
  |   6          0.392411085889966E-02         -0.481823369359957E-02          0.493708242774414E-02
  |   7          0.860165835731100E-02         -0.303536570221605E-01         -0.722834865241755E-03
  |   8          0.965384469604393E-03         -0.691620043521156E-02         -0.780655850457920E-02
  |   9          0.260690091547527E-01         -0.151158214117731E-01         -0.168051334431969E-01
  |  10          0.157459814885576E-01         -0.876886318955554E-02         -0.111941245859563E-01
  |  11         -0.132700868477304E-02          0.385916943000366E-02         -0.390777498674728E-02
  |  12         -0.799756911820230E-02         -0.438136307121349E-02          0.557019656394914E-02
  |  13          0.328371011736847E-01          0.312298442888676E-02         -0.276249054112664E-01
  |  14          0.439462257935694E-02          0.990511298583449E-02          0.181985867352676E-03
  |  15          0.262642213547768E-01          0.193676353039540E-01         -0.217147086684831E-01
  |  16          0.328742883441748E-02          0.103867503348294E-01         -0.305211514331546E-02
  |  17         -0.273245402728812E-01          0.995356890839622E-02         -0.178971429140224E-01
  |  18         -0.796780784429894E-03          0.633822037874384E-02          0.314255013670917E-02
  |  19         -0.175624375839772E-01         -0.617030864630871E-02         -0.243375957363675E-03
  |  20         -0.938945282437479E-02         -0.112970854917960E-01          0.118775345594410E-01
  |  21         -0.125725200147191E-02         -0.472578309960818E-02          0.110001395915509E-01
  |  22         -0.278524139278287E-02          0.548507067722268E-02         -0.477508456821068E-02
  |  23          0.411190414535919E-02          0.205566810607029E-02         -0.682089328718479E-02
  |  24         -0.118915507285327E-02          0.195697050124384E-01         -0.115801457075376E-02
  |  25         -0.473585655110831E-02          0.243260062815733E-01          0.347894353645055E-02
  |  26         -0.824392183461484E-02          0.138189361234730E-01          0.131285658166911E-02
  |  27         -0.366024348114396E-01         -0.227546153354908E-01          0.562354201160905E-02
  |  28          0.679497970953554E-02         -0.536407783501841E-02         -0.535721412600032E-02
  |  29          0.207727742847166E-02         -0.447611104210381E-02         -0.976614948021623E-02
  |  30         -0.490618442756313E-02         -0.289874310658014E-02          0.283136746084378E-02
  |  31         -0.273985444982097E-02         -0.486675922455537E-02          0.457521709364780E-02
  |  32         -0.322627656606922E-02         -0.579863828194454E-02          0.112270006723989E-02

  ------------------------------------ 
  Start decomposition of the XC Energy 
  ------------------------------------ 
  Hartree-Fock part   :          0.000000000 Ha              0.000000000 eV
  ------------------------------------ 
  X Energy            :        -96.993367925 Ha          -2639.323828562 eV
  C Energy GGA        :         -3.871068800 Ha           -105.337141541 eV
  Total XC Energy     :       -100.864436725 Ha          -2744.660970103 eV
  LDA X and C from self-consistent density 
  X Energy LDA        :        -88.013788620 Ha          -2394.977043449 eV
  C Energy LDA        :         -7.532934721 Ha           -204.981583104 eV
  ------------------------------------ 
  End decomposition of the XC Energy 
  ------------------------------------ 
   
  ESP charge fitting starts.
  | Calculation :  00000001  of  00000001
  | Full density
  Computing multipole expansion for total density.
  Generating points for esp charges.
  Partitioning the integration grid into batches with parallel hashing+maxmin method.
  | Number of batches:     3924
  | Maximal batch size:     191
  | Minimal batch size:      51
  | Average batch size:     124.022
  | Standard deviation of batch sizes:      14.878

  Integration load balanced across    32 MPI tasks.
  Work distribution over tasks is as follows:
  Initializing partition tables, free-atom densities, potentials, etc. across the integration grid (initialize_grid_storage).
  | Original list of interatomic distances with          32 x         32 entries is created.
  | Net number of integration points:   486661
  | of which are non-zero points    :   486661
  Summing up potential from multipole expanded  density.
  Summing up the Hartree potential.
  Time summed over all CPUs for potential: real work        6.398 s, elapsed        6.688 s
  Fitting esp charges to potential.
  |
  | ESP charges fitted to the electrostatic potential :
  |
  | Atom         1: C, ESP charge:      0.73238796
  |
  | Atom         2: C, ESP charge:     -0.64515502
  |
  | Atom         3: O, ESP charge:      0.50016501
  |
  | Atom         4: H, ESP charge:     -0.21756911
  |
  | Atom         5: H, ESP charge:     -0.18797151
  |
  | Atom         6: H, ESP charge:     -0.22385267
  |
  | Atom         7: N, ESP charge:      0.60262862
  |
  | Atom         8: C, ESP charge:     -0.48178299
  |
  | Atom         9: C, ESP charge:     -0.33883563
  |
  | Atom        10: O, ESP charge:      0.58344295
  |
  | Atom        11: H, ESP charge:     -0.31303729
  |
  | Atom        12: H, ESP charge:      0.00786379
  |
  | Atom        13: C, ESP charge:      0.53989409
  |
  | Atom        14: H, ESP charge:     -0.12994204
  |
  | Atom        15: H, ESP charge:     -0.15611826
  |
  | Atom        16: H, ESP charge:     -0.13962138
  |
  | Atom        17: N, ESP charge:      0.07106048
  |
  | Atom        18: C, ESP charge:     -0.04034977
  |
  | Atom        19: C, ESP charge:     -0.62428645
  |
  | Atom        20: O, ESP charge:      0.54849313
  |
  | Atom        21: H, ESP charge:     -0.11470997
  |
  | Atom        22: H, ESP charge:     -0.01295854
  |
  | Atom        23: C, ESP charge:      0.21690232
  |
  | Atom        24: H, ESP charge:     -0.07769817
  |
  | Atom        25: H, ESP charge:     -0.07224676
  |
  | Atom        26: H, ESP charge:     -0.05546858
  |
  | Atom        27: N, ESP charge:      0.47500712
  |
  | Atom        28: C, ESP charge:      0.38806211
  |
  | Atom        29: H, ESP charge:     -0.36835697
  |
  | Atom        30: H, ESP charge:     -0.15979978
  |
  | Atom        31: H, ESP charge:     -0.12796435
  |
  | Atom        32: H, ESP charge:     -0.17818234

  RRMS:       0.00471017

  Done.

------------------------------------------------------------------------------
  Final output of selected total energy values:

  The following output summarizes some interesting total energy values
  at the end of a run (AFTER all relaxation, molecular dynamics, etc.).

  | Total energy of the DFT / Hartree-Fock s.c.f. calculation      :         -20209.413126358 eV
  | Final zero-broadening corrected energy (caution - metals only) :         -20209.413126358 eV
  | For reference only, the value of 1 Hartree used in FHI-aims is :             27.211384500 eV

  Before relying on these values, please be sure to understand exactly which
  total energy value is referred to by a given number. Different objects may
  all carry the same name 'total energy'. Definitions:

  Total energy of the DFT / Hartree-Fock s.c.f. calculation:
  | Note that this energy does not include ANY quantities calculated after the
  | s.c.f. cycle, in particular not ANY RPA, MP2, etc. many-body perturbation terms.

  Final zero-broadening corrected energy:
  | For metallic systems only, a broadening of the occupation numbers at the Fermi
  | level can be extrapolated back to zero broadening by an electron-gas inspired
  | formula. For all systems that are not real metals, this value can be
  | meaningless and should be avoided.

------------------------------------------------------------------------------
  Methods described in the following list of references were used in this FHI-aims run.
  If you publish the results, please make sure to cite these reference if they apply.
  FHI-aims is an academic code, and for our developers (often, Ph.D. students
  and postdocs), scientific credit in the community is essential.
  Thank you for helping us!

  For any use of FHI-aims, please cite:

    Volker Blum, Ralf Gehrke, Felix Hanke, Paula Havu, Ville Havu,
    Xinguo Ren, Karsten Reuter, and Matthias Scheffler
    'Ab initio molecular simulations with numeric atom-centered orbitals'
    Computer Physics Communications 180, 2175-2196 (2009)
    http://dx.doi.org/10.1016/j.cpc.2009.06.022


  The scalable eigensolver library ELPA was used in your run.
  ELPA is essential especially for large systems on hundreds or thousands of CPUs.
  For ELPA, please cite:

    Andreas Marek, Volker Blum, Rainer Johanni, Ville Havu, Bruno Lang,
    Thomas Auckenthaler, Alexander Heinecke, Hans-Joachim Bungartz, and Hermann Lederer,
    'The ELPA Library - Scalable Parallel Eigenvalue Solutions
    for Electronic Structure Theory and Computational Science'
    The Journal of Physics: Condensed Matter 26, 213201 (2014).
    http://dx.doi.org/10.1088/0953-8984/26/21/213201


  For ELPA's efficient two-stage tridiagonalization used in your run, please cite:

    T. Auckenthaler, V. Blum, H.-J. Bungartz, T. Huckle, R. Johanni, L. Kraemer,
    B. Lang, H. Lederer, and P. R. Willems,
    'Parallel solution of partial symmetric eigenvalue problems'
    'from  electronic structure calculations'
    Parallel Computing 37, 783-794 (2011).
    http://dx.doi.org/10.1016/j.parco.2011.05.002


  For the real-space grid partitioning and parallelization used in this calculation, please cite:

    Ville Havu, Volker Blum, Paula Havu, and Matthias Scheffler,
    'Efficient O(N) integration for all-electron electronic structure calculation'
    'using numerically tabulated basis functions'
    Journal of Computational Physics 228, 8367-8379 (2009).
    http://dx.doi.org/10.1016/j.jcp.2009.08.008

  Of course, there are many other important community references, e.g., those cited in the
  above references. Our list is limited to references that describe implementations in the
  FHI-aims code. The reason is purely practical (length of this list) - please credit others as well.

------------------------------------------------------------
          Leaving FHI-aims.
          Date     :  20170309, Time     :  160725.246

          Computational steps:
          | Number of self-consistency cycles          :           13

          Detailed time accounting                     :  max(cpu_time)    wall_clock(cpu1)
          | Total time                                 :       29.026 s          29.209 s
          | Preparation time                           :        0.240 s           0.231 s
          | Grid partitioning                          :        0.316 s           0.313 s
          | Preloading free-atom quantities on grid    :        0.028 s           0.028 s
          | Free-atom superposition energy             :        0.040 s           0.038 s
          | Total time for integrations                :        9.893 s           9.867 s
          | Total time for solution of K.-S. equations :        0.496 s           0.470 s
          | Total time for density & force components  :        7.612 s           7.585 s
          | Total time for mixing                      :        0.112 s           0.095 s
          | Total time for Hartree multipole update    :        0.060 s           0.053 s
          | Total time for Hartree multipole sum       :        5.416 s           5.393 s
          | Total time for total energy evaluation     :        0.028 s           0.018 s

          Have a nice day.
------------------------------------------------------------
