  MPI-parallelism will be employed.
------------------------------------------------------------
          Invoking FHI-aims ...
          Version 150427
          Git rev.: 9dd23e0 BL: Update Version stamp
          Compiled on 2015/11/03 at 22:05:20 on host eos03.

          When using FHI-aims, please cite the following reference:

          Volker Blum, Ralf Gehrke, Felix Hanke, Paula Havu,
          Ville Havu, Xinguo Ren, Karsten Reuter, and Matthias Scheffler,
          'Ab Initio Molecular Simulations with Numeric Atom-Centered Orbitals: FHI-aims',
          Computer Physics Communications 180, 2175-2196 (2009)

          For any questions about FHI-aims, please visit the aimsclub website
          with its forums and wiki. Contributions to both the forums and the
          wiki are warmly encouraged - they are for you, and everyone is welcome there.

------------------------------------------------------------

  Date     :  20170309, Time     :  162740.158
  Time zero on CPU 1             :   0.376023000000000E+00  s.
  Internal wall clock time zero  :           258308860.158  s.

  Using       32 parallel tasks.
  Task        0 on host eos240 reporting.
  Task        1 on host eos240 reporting.
  Task        2 on host eos240 reporting.
  Task        3 on host eos240 reporting.
  Task        4 on host eos240 reporting.
  Task        5 on host eos240 reporting.
  Task        6 on host eos240 reporting.
  Task        7 on host eos240 reporting.
  Task        8 on host eos240 reporting.
  Task        9 on host eos240 reporting.
  Task       10 on host eos240 reporting.
  Task       11 on host eos240 reporting.
  Task       12 on host eos240 reporting.
  Task       13 on host eos240 reporting.
  Task       14 on host eos240 reporting.
  Task       15 on host eos240 reporting.
  Task       16 on host eos240 reporting.
  Task       17 on host eos240 reporting.
  Task       18 on host eos240 reporting.
  Task       19 on host eos240 reporting.
  Task       20 on host eos240 reporting.
  Task       21 on host eos240 reporting.
  Task       22 on host eos240 reporting.
  Task       23 on host eos240 reporting.
  Task       24 on host eos240 reporting.
  Task       25 on host eos240 reporting.
  Task       26 on host eos240 reporting.
  Task       27 on host eos240 reporting.
  Task       28 on host eos240 reporting.
  Task       29 on host eos240 reporting.
  Task       30 on host eos240 reporting.
  Task       31 on host eos240 reporting.

  Performing system and environment tests:
  | Environment variable OMP_NUM_THREADS correctly set to 1.
  | Stacksize not measured: no C compiler
  | Checking for scalapack...
  | Testing pdtran()...
  | All pdtran() tests passed.

  Obtaining array dimensions for all initial allocations:
  
  -----------------------------------------------------------------------
  Parsing control.in (first pass over file, find array dimensions only).
  The contents of control.in will be repeated verbatim below
  unless switched off by setting 'verbatim_writeout .false.' .
  in the first line of control.in .
  -----------------------------------------------------------------------
  
  #########################################################################################
  #
  # Input for System
  #
  #########################################################################################
  #
  #
  #  Physical model
  #
    xc                 pbe
    many_body_dispersion
    spin               none
    charge             0.
  #
  #  SCF convergence
  #
    occupation_type    gaussian 0.05
    mixer              pulay
      n_max_pulay        10
      charge_mix_param   0.5
    sc_accuracy_rho    1E-4
    sc_accuracy_eev    1E-2
    sc_accuracy_etot   1E-5
    sc_accuracy_forces 1E-4
    sc_iter_limit      1000
  #
  #  ESP charge
  #
    output esp
    esp equal_grid_n 80 80 80
  #
  #
  ################################################################################
  #
  #  FHI-aims code project
  # Volker Blum, Fritz Haber Institute Berlin, 2009
  #
  #  Suggested "tight" defaults for H atom (to be pasted into control.in file)
  #
  ################################################################################
    species        H
  #     global species definitions
      nucleus             1
      mass                1.00794
  #
      l_hartree           6
  #
      cut_pot             4.0  2.0  1.0
      basis_dep_cutoff    1e-4
  #
      radial_base         24 7.0
      radial_multiplier   2
      angular_grids       specified
        division   0.1930   50
        division   0.3175  110
        division   0.4293  194
        division   0.5066  302
        division   0.5626  434
  #      division   0.5922  590
  #      division   0.6227  974
  #      division   0.6868 1202
  #      outer_grid  770
        outer_grid  434
  ################################################################################
  #
  #  Definition of "minimal" basis
  #
  ################################################################################
  #     valence basis states
      valence      1  s   1.
  #     ion occupancy
      ion_occ      1  s   0.5
  ################################################################################
  #
  #  Suggested additional basis functions. For production calculations,
  #  uncomment them one after another (the most important basis functions are
  #  listed first).
  #
  #  Basis constructed for dimers: 0.5 A, 0.7 A, 1.0 A, 1.5 A, 2.5 A
  #
  ################################################################################
  #  "First tier" - improvements: -1014.90 meV to -62.69 meV
       hydro 2 s 2.1
       hydro 2 p 3.5
  #  "Second tier" - improvements: -12.89 meV to -1.83 meV
       hydro 1 s 0.85
       hydro 2 p 3.7
       hydro 2 s 1.2
       hydro 3 d 7
  #  "Third tier" - improvements: -0.25 meV to -0.12 meV
  #     hydro 4 f 11.2
  #     hydro 3 p 4.8
  #     hydro 4 d 9
  #     hydro 3 s 3.2
  ################################################################################
  #
  # For methods that use the localized form of the "resolution of identity" for
  # the two-electron Coulomb operator (RI_method LVL), particularly Hartree-Fock and
  # hybrid density functional calculations, the highest accuracy can be obtained by
  # uncommenting the line beginning with "for_aux"  below, thus adding an extra g radial
  # function to the construction of the product basis set for the expansion.
  # See Ref. New J. Phys. 17, 093020 (2015) for more information, particularly Figs. 1 and 6.
  #
  ################################################################################
  #
  # for_aux hydro 5 g 6.0
  ################################################################################
  #
  #  FHI-aims code project
  # Volker Blum, Fritz Haber Institute Berlin, 2009
  #
  #  Suggested "tight" defaults for C atom (to be pasted into control.in file)
  #
  ################################################################################
    species        C
  #     global species definitions
      nucleus             6
      mass                12.0107
  #
      l_hartree           6
  #
      cut_pot             4.0  2.0  1.0
      basis_dep_cutoff    1e-4
  #
      radial_base         34 7.0
      radial_multiplier   2
      angular_grids specified
        division   0.2187   50
        division   0.4416  110
        division   0.6335  194
        division   0.7727  302
        division   0.8772  434
  #      division   0.9334  590
  #      division   0.9924  770
  #      division   1.0230  974
  #      division   1.5020 1202
  #     outer_grid  974
        outer_grid  434
  ################################################################################
  #
  #  Definition of "minimal" basis
  #
  ################################################################################
  #     valence basis states
      valence      2  s   2.
      valence      2  p   2.
  #     ion occupancy
      ion_occ      2  s   1.
      ion_occ      2  p   1.
  ################################################################################
  #
  #  Suggested additional basis functions. For production calculations,
  #  uncomment them one after another (the most important basis functions are
  #  listed first).
  #
  #  Constructed for dimers: 1.0 A, 1.25 A, 1.5 A, 2.0 A, 3.0 A
  #
  ################################################################################
  #  "First tier" - improvements: -1214.57 meV to -155.61 meV
       hydro 2 p 1.7
       hydro 3 d 6
       hydro 2 s 4.9
  #  "Second tier" - improvements: -67.75 meV to -5.23 meV
       hydro 4 f 9.8
       hydro 3 p 5.2
       hydro 3 s 4.3
       hydro 5 g 14.4
       hydro 3 d 6.2
  #  "Third tier" - improvements: -2.43 meV to -0.60 meV
  #     hydro 2 p 5.6
  #     hydro 2 s 1.4
  #     hydro 3 d 4.9
  #     hydro 4 f 11.2
  #  "Fourth tier" - improvements: -0.39 meV to -0.18 meV
  #     hydro 2 p 2.1
  #     hydro 5 g 16.4
  #     hydro 4 d 13.2
  #     hydro 3 s 13.6
  #     hydro 4 f 17.6
  #  Further basis functions - improvements: -0.08 meV and below
  #     hydro 3 s 2
  #     hydro 3 p 6
  #     hydro 4 d 20
  ################################################################################
  #
  # For methods that use the localized form of the "resolution of identity" for
  # the two-electron Coulomb operator (RI_method LVL), particularly Hartree-Fock and
  # hybrid density functional calculations, the highest accuracy can be obtained by
  # uncommenting the line beginning with "for_aux"  below, thus adding an extra g radial
  # function to the construction of the product basis set for the expansion.
  # See Ref. New J. Phys. 17, 093020 (2015) for more information, particularly Figs. 1 and 6.
  #
  ################################################################################
  #
  # for_aux hydro 5 g 6.0
  ################################################################################
  #
  #  FHI-aims code project
  # Volker Blum, Fritz Haber Institute Berlin, 2009
  #
  #  Suggested "tight" defaults for N atom (to be pasted into control.in file)
  #
  ################################################################################
    species        N
  #     global species definitions
      nucleus             7
      mass                14.0067
  #
      l_hartree           6
  #
      cut_pot             4.0  2.0  1.0
      basis_dep_cutoff    1e-4
  #
      radial_base         35 7.0
      radial_multiplier   2
      angular_grids       specified
        division   0.1841   50
        division   0.3514  110
        division   0.5126  194
        division   0.6292  302
        division   0.6939  434
  #      division   0.7396  590
  #      division   0.7632  770
  #      division   0.8122  974
  #      division   1.1604 1202
  #      outer_grid  974
        outer_grid  434
  ################################################################################
  #
  #  Definition of "minimal" basis
  #
  ################################################################################
  #     valence basis states
      valence      2  s   2.
      valence      2  p   3.
  #     ion occupancy
      ion_occ      2  s   1.
      ion_occ      2  p   2.
  ################################################################################
  #
  #  Suggested additional basis functions. For production calculations,
  #  uncomment them one after another (the most important basis functions are
  #  listed first).
  #
  #  Constructed for dimers: 1.0 A, 1.1 A, 1.5 A, 2.0 A, 3.0 A
  #
  ################################################################################
  #  "First tier" - improvements: -1193.42 meV to -220.60 meV
       hydro 2 p 1.8
       hydro 3 d 6.8
       hydro 3 s 5.8
  #  "Second tier" - improvements: -80.21 meV to -6.86 meV
       hydro 4 f 10.8
       hydro 3 p 5.8
       hydro 1 s 0.8
       hydro 5 g 16
       hydro 3 d 4.9
  #  "Third tier" - improvements: -4.29 meV to -0.53 meV
  #     hydro 3 s 16
  #     ionic 2 p auto
  #     hydro 3 d 6.6
  #     hydro 4 f 11.6
  #  "Fourth tier" - improvements: -0.75 meV to -0.25 meV
  #     hydro 2 p 4.5
  #     hydro 2 s 2.4
  #     hydro 5 g 14.4
  #     hydro 4 d 14.4
  #     hydro 4 f 16.8
  # Further basis functions - -0.21 meV and below
  #     hydro 3 p 14.8
  #     hydro 3 s 4.4
  #     hydro 3 d 19.6
  #     hydro 5 g 12.8
  ################################################################################
  #
  # For methods that use the localized form of the "resolution of identity" for
  # the two-electron Coulomb operator (RI_method LVL), particularly Hartree-Fock and
  # hybrid density functional calculations, the highest accuracy can be obtained by
  # uncommenting the line beginning with "for_aux"  below, thus adding an extra g radial
  # function to the construction of the product basis set for the expansion.
  # See Ref. New J. Phys. 17, 093020 (2015) for more information, particularly Figs. 1 and 6.
  #
  ################################################################################
  #
  # for_aux hydro 5 g 6.0
  ################################################################################
  #
  #  FHI-aims code project
  # Volker Blum, Fritz Haber Institute Berlin, 2009
  #
  #  Suggested "tight" defaults for O atom (to be pasted into control.in file)
  #
  ################################################################################
    species        O
  #     global species definitions
      nucleus             8
      mass                15.9994
  #
      l_hartree           6
  #
      cut_pot             4.0  2.0  1.0
      basis_dep_cutoff    1e-4
  #
      radial_base         36 7.0
      radial_multiplier   2
       angular_grids specified
        division   0.1817   50
        division   0.3417  110
        division   0.4949  194
        division   0.6251  302
        division   0.8014  434
  #      division   0.8507  590
  #      division   0.8762  770
  #      division   0.9023  974
  #      division   1.2339 1202
  #      outer_grid 974
        outer_grid  434
  ################################################################################
  #
  #  Definition of "minimal" basis
  #
  ################################################################################
  #     valence basis states
      valence      2  s   2.
      valence      2  p   4.
  #     ion occupancy
      ion_occ      2  s   1.
      ion_occ      2  p   3.
  ################################################################################
  #
  #  Suggested additional basis functions. For production calculations,
  #  uncomment them one after another (the most important basis functions are
  #  listed first).
  #
  #  Constructed for dimers: 1.0 A, 1.208 A, 1.5 A, 2.0 A, 3.0 A
  #
  ################################################################################
  #  "First tier" - improvements: -699.05 meV to -159.38 meV
       hydro 2 p 1.8
       hydro 3 d 7.6
       hydro 3 s 6.4
  #  "Second tier" - improvements: -49.91 meV to -5.39 meV
       hydro 4 f 11.6
       hydro 3 p 6.2
       hydro 3 d 5.6
       hydro 5 g 17.6
       hydro 1 s 0.75
  #  "Third tier" - improvements: -2.83 meV to -0.50 meV
  #     ionic 2 p auto
  #     hydro 4 f 10.8
  #     hydro 4 d 4.7
  #     hydro 2 s 6.8
  #  "Fourth tier" - improvements: -0.40 meV to -0.12 meV
  #     hydro 3 p 5
  #     hydro 3 s 3.3
  #     hydro 5 g 15.6
  #     hydro 4 f 17.6
  #     hydro 4 d 14
  # Further basis functions - -0.08 meV and below
  #     hydro 3 s 2.1
  #     hydro 4 d 11.6
  #     hydro 3 p 16
  #     hydro 2 s 17.2
  ################################################################################
  #
  # For methods that use the localized form of the "resolution of identity" for
  # the two-electron Coulomb operator (RI_method LVL), particularly Hartree-Fock and
  # hybrid density functional calculations, the highest accuracy can be obtained by
  # uncommenting the line beginning with "for_aux"  below, thus adding an extra g radial
  # function to the construction of the product basis set for the expansion.
  # See Ref. New J. Phys. 17, 093020 (2015) for more information, particularly Figs. 1 and 6.
  #
  ################################################################################
  #
  # for_aux hydro 5 g 6.0
  
  -----------------------------------------------------------------------
  Completed first pass over input file control.in .
  -----------------------------------------------------------------------
  
  
  -----------------------------------------------------------------------
  Parsing geometry.in (first pass over file, find array dimensions only).
  The contents of geometry.in will be repeated verbatim below
  unless switched off by setting 'verbatim_writeout .false.' .
  in the first line of geometry.in .
  -----------------------------------------------------------------------
  
  #
  # This is the geometry file that corresponds to the current relaxation step.
  # If you do not want this file to be written, set the "write_restart_geometry" flag to .false.
  #
  atom      -0.58301660     -3.21100971      0.49270407 C
  atom      -0.60095389     -2.67011674      1.90574737 C
  atom      -0.17212550     -3.32739356      2.86022902 O
  atom      -0.95860994     -4.24044105      0.50072858 H
  atom       0.45973389     -3.24057879      0.14861848 H
  atom      -1.17094775     -2.61486384     -0.21552037 H
  atom      -1.11457865     -1.41783234      2.06018064 N
  atom      -1.05314547     -0.69515057      3.33286656 C
  atom       0.42851322     -0.62826550      3.79758682 C
  atom       1.28503899     -0.19341998      3.03251165 O
  atom      -1.30237052     -0.87904936      1.22423858 H
  atom      -1.30058460      0.34840074      3.08980306 H
  atom      -2.08533816     -1.21869475      4.33639942 C
  atom      -1.89294215     -2.26512458      4.60538929 H
  atom      -3.08858310     -1.16898247      3.89499470 H
  atom      -2.09635957     -0.60299975      5.24624302 H
  atom       0.68356656     -1.04286492      5.06729170 N
  atom       2.02346143     -1.10792700      5.63316837 C
  atom       2.64215416     -2.53069458      5.61445862 C
  atom       3.66087048     -2.76815251      6.26509920 O
  atom      -0.07200874     -1.46364121      5.59661873 H
  atom       2.65316825     -0.50295106      4.96320767 H
  atom       2.05651478     -0.52602512      7.04560474 C
  atom       1.36237163     -1.06122636      7.71060572 H
  atom       1.77925711      0.53515979      7.03096111 H
  atom       3.06374439     -0.63492540      7.46117953 H
  atom       2.01238194     -3.45170650      4.84762926 N
  atom       2.55362200     -4.78856609      4.68721812 C
  atom       1.22596866     -3.18875061      4.25331702 H
  atom       1.83825326     -5.38236784      4.10901393 H
  atom       2.71499149     -5.25963062      5.66562598 H
  atom       3.52021539     -4.77470474      4.16138139 H
  
  -----------------------------------------------------------------------
  Completed first pass over input file geometry.in .
  -----------------------------------------------------------------------
  

  Basic array size parameters:
  | Number of species                 :        4
  | Number of atoms                   :       32
  | Max. basis fn. angular momentum   :        4
  | Max. atomic/ionic basis occupied n:        2
  | Max. number of basis fn. types    :        2
  | Max. radial fns per species/type  :        8
  | Max. logarithmic grid size        :     1301
  | Max. radial integration grid size :       73
  | Max. angular integration grid size:      434
  | Max. angular grid division number :        8
  | Radial grid for Hartree potential :     1301
  | Number of spin channels           :        1

------------------------------------------------------------
          Reading file control.in.
------------------------------------------------------------
  XC: Using PBE gradient-corrected functionals.
  Self-consistent screening and van der Waals energy (TS, TS+SCS,MBD) module
  Spin treatment: No spin polarisation.
  Charge =   0.000000E+00: Neutral system requested explicitly.
  Occupation type: Gaussian broadening, width =   0.500000E-01 eV.
  Using pulay charge density mixing.
  Pulay mixing - number of memorized iterations:   10
  Charge density mixing - mixing parameter:     0.5000
  Convergence accuracy of self-consistent charge density:  0.1000E-03
  Convergence accuracy of sum of eigenvalues:  0.1000E-01
  Convergence accuracy of total energy:  0.1000E-04
  Convergence accuracy of forces:  0.1000E-03
  Maximum number of s.-c. iterations  :  1000
  Fitting ESP-charges to Potential. 
  | Esp charge output options: 
  | ESP Grid method: 3, cubic grid
  | Number of points in x, ,y, z:  0080 0080 0080
  |
 
  Reading configuration options for species H                   .
  | Found nuclear charge :   1.0000
  | Found atomic mass :    1.00794000000000      amu
  | Found l_max for Hartree potential  :   6
  | Found cutoff potl. onset [A], width [A], scale factor :    4.00000    2.00000    1.00000
  | Threshold for basis-dependent cutoff potential is   0.100000E-03
  | Found data for basic radial integration grid :    24 points, outermost radius =    7.000 A
  | Found multiplier for basic radial grid :   2
  | Found angular grid specification: user-specified.
  | Specified grid contains     6 separate shells.
  | Check grid settings after all constraints further below.
  | Found free-atom valence shell :  1 s   1.000
  | No ionic wave fns used. Skipping ion_occ.
  | Found hydrogenic basis function :  2 s   2.100
  | Found hydrogenic basis function :  2 p   3.500
  | Found hydrogenic basis function :  1 s   0.850
  | Found hydrogenic basis function :  2 p   3.700
  | Found hydrogenic basis function :  2 s   1.200
  | Found hydrogenic basis function :  3 d   7.000
  Species H                   : Missing cutoff potential type.
  Defaulting to exp(1/x)/(1-x)^2 type cutoff potential.
  Species H : No 'logarithmic' tag. Using default grid for free atom:
  | Default logarithmic grid data [bohr] : 0.1000E-03 0.1000E+03 0.1012E+01
  Species H : On-site basis accuracy parameter (for Gram-Schmidt orthonormalisation) not specified.
  Using default value basis_acc =  0.1000000E-03.
  Species H                   : Using default innermost maximum threshold i_radial=  2 for radial functions.
  Species H                   : Default cutoff onset for free atom density etc. : 0.40000000E+01 AA.
  Species H                   : Basic radial grid will be enhanced according to radial_multiplier =   2, to contain    49 grid points.
 
  Reading configuration options for species C                   .
  | Found nuclear charge :   6.0000
  | Found atomic mass :    12.0107000000000      amu
  | Found l_max for Hartree potential  :   6
  | Found cutoff potl. onset [A], width [A], scale factor :    4.00000    2.00000    1.00000
  | Threshold for basis-dependent cutoff potential is   0.100000E-03
  | Found data for basic radial integration grid :    34 points, outermost radius =    7.000 A
  | Found multiplier for basic radial grid :   2
  | Found angular grid specification: user-specified.
  | Specified grid contains     6 separate shells.
  | Check grid settings after all constraints further below.
  | Found free-atom valence shell :  2 s   2.000
  | Found free-atom valence shell :  2 p   2.000
  | No ionic wave fns used. Skipping ion_occ.
  | No ionic wave fns used. Skipping ion_occ.
  | Found hydrogenic basis function :  2 p   1.700
  | Found hydrogenic basis function :  3 d   6.000
  | Found hydrogenic basis function :  2 s   4.900
  | Found hydrogenic basis function :  4 f   9.800
  | Found hydrogenic basis function :  3 p   5.200
  | Found hydrogenic basis function :  3 s   4.300
  | Found hydrogenic basis function :  5 g  14.400
  | Found hydrogenic basis function :  3 d   6.200
  Species C                   : Missing cutoff potential type.
  Defaulting to exp(1/x)/(1-x)^2 type cutoff potential.
  Species C : No 'logarithmic' tag. Using default grid for free atom:
  | Default logarithmic grid data [bohr] : 0.1000E-03 0.1000E+03 0.1012E+01
  Species C : On-site basis accuracy parameter (for Gram-Schmidt orthonormalisation) not specified.
  Using default value basis_acc =  0.1000000E-03.
  Species C                   : Using default innermost maximum threshold i_radial=  2 for radial functions.
  Species C                   : Default cutoff onset for free atom density etc. : 0.40000000E+01 AA.
  Species C                   : Basic radial grid will be enhanced according to radial_multiplier =   2, to contain    69 grid points.
 
  Reading configuration options for species N                   .
  | Found nuclear charge :   7.0000
  | Found atomic mass :    14.0067000000000      amu
  | Found l_max for Hartree potential  :   6
  | Found cutoff potl. onset [A], width [A], scale factor :    4.00000    2.00000    1.00000
  | Threshold for basis-dependent cutoff potential is   0.100000E-03
  | Found data for basic radial integration grid :    35 points, outermost radius =    7.000 A
  | Found multiplier for basic radial grid :   2
  | Found angular grid specification: user-specified.
  | Specified grid contains     6 separate shells.
  | Check grid settings after all constraints further below.
  | Found free-atom valence shell :  2 s   2.000
  | Found free-atom valence shell :  2 p   3.000
  | No ionic wave fns used. Skipping ion_occ.
  | No ionic wave fns used. Skipping ion_occ.
  | Found hydrogenic basis function :  2 p   1.800
  | Found hydrogenic basis function :  3 d   6.800
  | Found hydrogenic basis function :  3 s   5.800
  | Found hydrogenic basis function :  4 f  10.800
  | Found hydrogenic basis function :  3 p   5.800
  | Found hydrogenic basis function :  1 s   0.800
  | Found hydrogenic basis function :  5 g  16.000
  | Found hydrogenic basis function :  3 d   4.900
  Species N                   : Missing cutoff potential type.
  Defaulting to exp(1/x)/(1-x)^2 type cutoff potential.
  Species N : No 'logarithmic' tag. Using default grid for free atom:
  | Default logarithmic grid data [bohr] : 0.1000E-03 0.1000E+03 0.1012E+01
  Species N : On-site basis accuracy parameter (for Gram-Schmidt orthonormalisation) not specified.
  Using default value basis_acc =  0.1000000E-03.
  Species N                   : Using default innermost maximum threshold i_radial=  2 for radial functions.
  Species N                   : Default cutoff onset for free atom density etc. : 0.40000000E+01 AA.
  Species N                   : Basic radial grid will be enhanced according to radial_multiplier =   2, to contain    71 grid points.
 
  Reading configuration options for species O                   .
  | Found nuclear charge :   8.0000
  | Found atomic mass :    15.9994000000000      amu
  | Found l_max for Hartree potential  :   6
  | Found cutoff potl. onset [A], width [A], scale factor :    4.00000    2.00000    1.00000
  | Threshold for basis-dependent cutoff potential is   0.100000E-03
  | Found data for basic radial integration grid :    36 points, outermost radius =    7.000 A
  | Found multiplier for basic radial grid :   2
  | Found angular grid specification: user-specified.
  | Specified grid contains     6 separate shells.
  | Check grid settings after all constraints further below.
  | Found free-atom valence shell :  2 s   2.000
  | Found free-atom valence shell :  2 p   4.000
  | No ionic wave fns used. Skipping ion_occ.
  | No ionic wave fns used. Skipping ion_occ.
  | Found hydrogenic basis function :  2 p   1.800
  | Found hydrogenic basis function :  3 d   7.600
  | Found hydrogenic basis function :  3 s   6.400
  | Found hydrogenic basis function :  4 f  11.600
  | Found hydrogenic basis function :  3 p   6.200
  | Found hydrogenic basis function :  3 d   5.600
  | Found hydrogenic basis function :  5 g  17.600
  | Found hydrogenic basis function :  1 s   0.750
  Species O                   : Missing cutoff potential type.
  Defaulting to exp(1/x)/(1-x)^2 type cutoff potential.
  Species O : No 'logarithmic' tag. Using default grid for free atom:
  | Default logarithmic grid data [bohr] : 0.1000E-03 0.1000E+03 0.1012E+01
  Species O : On-site basis accuracy parameter (for Gram-Schmidt orthonormalisation) not specified.
  Using default value basis_acc =  0.1000000E-03.
  Species O                   : Using default innermost maximum threshold i_radial=  2 for radial functions.
  Species O                   : Default cutoff onset for free atom density etc. : 0.40000000E+01 AA.
  Species O                   : Basic radial grid will be enhanced according to radial_multiplier =   2, to contain    73 grid points.
 
  Finished reading input file 'control.in'. Consistency checks are next.
 
  Target number of points in a grid batch is not set. Defaulting to  100
  Method for grid partitioning is not set. Defaulting to parallel hash+maxmin partitioning.
  Batch size limit is not set. Defaulting to    200
  By default, will store active basis functions for each batch.
  If in need of memory, prune_basis_once .false. can be used to disable this option.
  communication_type for Hartree potential was not specified.
  Defaulting to calc_hartree .
  Pulay mixer: Number of initial linear mixing iterations not set.
  Defaulting to    0 iterations.
  Work space size for distributed Hartree potential not set.
  Defaulting to   0.200000E+03 MB.
  Algorithm-dependent basis array size parameters:
  | n_max_pulay                         :       10
  Geometry relaxation not requested: no relaxation will be performed.
  Handling of forces: Unphysical translation and rotation will be removed from forces.
  No accuracy limit for integral partition fn. given. Defaulting to  0.1000E-14.
  No threshold value for u(r) in integrations given. Defaulting to  0.1000E-05.
  No accuracy for occupation numbers given. Defaulting to  0.1000E-07.
  No threshold value for occupation numbers given. Defaulting to  0.0000E+00.
  No accuracy for fermi level given. Defaulting to  0.1000E-19.
  Maximum # of iterations to find E_F not set. Defaulting to  200.
  Preferred method for the eigenvalue solver ('KS_method') not specified in 'control.in'.
  Calling blacs routine to test compilation state
  Since scalapack support is enabled, defaulting to 'elpa'.
  Preferred method for the MBD eigenvalue solver ('mbd_eigensolver') not specified in 'control.in'.
  Calling blacs routine to test compilation state
  Since scalapack support is enabled, defaulting to 'scaLAPACK'.
  Will not use alltoall communication since running on < 1024 CPUs.
  Threshold for basis singularities not set.
  Default threshold for basis singularities:  0.1000E-04
  partition_type (choice of integration weights) for integrals was not specified.
  | Using a version of the partition function of Stratmann and coworkers ('stratmann_smoother').
  | At each grid point, the set of atoms used to build the partition table is smoothly restricted to
  | only those atoms whose free-atom density would be non-zero at that grid point.
  Partitioning for Hartree potential was not defined. Using partition_type for integrals.
  | Adjusted default value of keyword multip_moments_threshold to:       0.10000000E-11
  | This value may affect high angular momentum components of the Hartree potential in periodic systems.
  No q(lm)/r^(l+1) cutoff set for long-range Hartree potential.
  | Using default value of  0.100000E-09 .
  | Verify using the multipole_threshold keyword.
  Defaulting to new monopole extrapolation.
  Density update method: automatic selection selected.
------------------------------------------------------------


------------------------------------------------------------
          Reading geometry description geometry.in.
------------------------------------------------------------
 * Warning! You did not set the 'relativistic' flag in input file 'control.in'.
 * Since you are not attempting to treat any elements beyond Ca(Z=20), FHI-aims
 * will default to 'relativistic none'.
 * You must ensure that this is really what you want!!
 * For example, DO NOT compute total-energy differences between results from
 * different settings of the 'relativistic' flag.
  Input structure read successfully.
  The structure contains       32 atoms,  and a total of        116.000 electrons.

  Input geometry:
  | No unit cell requested.
  | Atomic structure:
  |       Atom                x [A]            y [A]            z [A]
  |    1: Species C             -0.583017        -3.211010         0.492704
  |    2: Species C             -0.600954        -2.670117         1.905747
  |    3: Species O             -0.172125        -3.327394         2.860229
  |    4: Species H             -0.958610        -4.240441         0.500729
  |    5: Species H              0.459734        -3.240579         0.148618
  |    6: Species H             -1.170948        -2.614864        -0.215520
  |    7: Species N             -1.114579        -1.417832         2.060181
  |    8: Species C             -1.053145        -0.695151         3.332867
  |    9: Species C              0.428513        -0.628266         3.797587
  |   10: Species O              1.285039        -0.193420         3.032512
  |   11: Species H             -1.302371        -0.879049         1.224239
  |   12: Species H             -1.300585         0.348401         3.089803
  |   13: Species C             -2.085338        -1.218695         4.336399
  |   14: Species H             -1.892942        -2.265125         4.605389
  |   15: Species H             -3.088583        -1.168982         3.894995
  |   16: Species H             -2.096360        -0.603000         5.246243
  |   17: Species N              0.683567        -1.042865         5.067292
  |   18: Species C              2.023461        -1.107927         5.633168
  |   19: Species C              2.642154        -2.530695         5.614459
  |   20: Species O              3.660870        -2.768153         6.265099
  |   21: Species H             -0.072009        -1.463641         5.596619
  |   22: Species H              2.653168        -0.502951         4.963208
  |   23: Species C              2.056515        -0.526025         7.045605
  |   24: Species H              1.362372        -1.061226         7.710606
  |   25: Species H              1.779257         0.535160         7.030961
  |   26: Species H              3.063744        -0.634925         7.461180
  |   27: Species N              2.012382        -3.451706         4.847629
  |   28: Species C              2.553622        -4.788566         4.687218
  |   29: Species H              1.225969        -3.188751         4.253317
  |   30: Species H              1.838253        -5.382368         4.109014
  |   31: Species H              2.714991        -5.259631         5.665626
  |   32: Species H              3.520215        -4.774705         4.161381
  |

  | The smallest distance between any two atoms is         1.01210277 AA.
  |
  | The first atom of this pair is atom number                      7 .
  | The second atom of this pair is atom number                    11 .

  Number of empty states per atom not set in control.in - providing a guess from actual geometry.
  | Total number of empty states used during s.c.f. cycle:       71
  If you use a very high smearing, use empty_states (per atom!) in control.in to increase this value.

  Structure-dependent array size parameters: 
  | Maximum number of distinct radial functions  :       40
  | Maximum number of basis functions            :      840
  | Number of Kohn-Sham states (occupied + empty):      129
------------------------------------------------------------

------------------------------------------------------------
          Preparing all fixed parts of the calculation.
------------------------------------------------------------
  Determining machine precision:
    2.225073858507201E-308
  Setting up grids for atomic and cluster calculations.

  Creating wave function, potential, and density for free atoms.

  Species: H

  List of occupied orbitals and eigenvalues:
    n    l              occ      energy [Ha]    energy [eV]
    1    0           1.0000        -0.238382        -6.4867


  Species: C

  List of occupied orbitals and eigenvalues:
    n    l              occ      energy [Ha]    energy [eV]
    1    0           2.0000       -10.041232      -273.2358
    2    0           2.0000        -0.504327       -13.7234
    2    1           2.0000        -0.193750        -5.2722


  Species: N

  List of occupied orbitals and eigenvalues:
    n    l              occ      energy [Ha]    energy [eV]
    1    0           2.0000       -14.129007      -384.4699
    2    0           2.0000        -0.681802       -18.5528
    2    1           3.0000        -0.260543        -7.0897


  Species: O

  List of occupied orbitals and eigenvalues:
    n    l              occ      energy [Ha]    energy [eV]
    1    0           2.0000       -18.898576      -514.2564
    2    0           2.0000        -0.878795       -23.9132
    2    1           4.0000        -0.332075        -9.0362

  Creating fixed part of basis set: Ionic, confined, hydrogenic.
 
  H                    hydrogenic:
 
  List of hydrogenic basis orbitals: 
    n    l      effective z      eigenvalue [eV]  inner max. [A]     outer max. [A]     outer radius [A]   
    2    0         2.100000       -14.9965           0.193243           1.317208           5.373006
    2    1         3.500000       -41.6672           0.602369           0.602369           4.056063
    1    0         0.850000        -9.8292           0.624871           0.624871           5.373006
    2    1         3.700000       -46.5653           0.573622           0.573622           3.910002
    2    0         1.200000        -4.5995           0.334980           2.228188           5.505995
    3    2         7.000000       -74.0753           0.680699           0.680699           3.769201
 
 
  C                    hydrogenic:
 
  List of hydrogenic basis orbitals: 
    n    l      effective z      eigenvalue [eV]  inner max. [A]     outer max. [A]     outer radius [A]   
    2    1         1.700000        -9.8152           1.245706           1.245706           5.401630
    3    2         6.000000       -54.4226           0.792453           0.792453           4.178599
    2    0         4.900000       -81.6681           0.082559           0.562749           3.353238
    4    3         9.800000       -81.6681           0.863254           0.863254           4.028125
    3    1         5.200000       -40.8774           0.305389           1.215618           4.898362
    3    0         4.300000       -27.9508           0.091041           1.610311           5.401630
    5    4        14.400000      -112.8510           0.917666           0.917666           3.883070
    3    2         6.200000       -58.1113           0.763917           0.763917           4.077671
 
 
  N                    hydrogenic:
 
  List of hydrogenic basis orbitals: 
    n    l      effective z      eigenvalue [eV]  inner max. [A]     outer max. [A]     outer radius [A]   
    2    1         1.800000       -11.0118           1.177451           1.177451           5.427479
    3    2         6.800000       -69.9029           0.704619           0.704619           3.854246
    3    0         5.800000       -50.8549           0.067388           1.191934           4.629968
    4    3        10.800000       -99.1854           0.786571           0.786571           3.761152
    3    1         5.800000       -50.8549           0.274880           1.094176           4.518138
    1    0         0.800000        -8.7059           0.662839           0.662839           5.361532
    5    4        16.000000      -139.3222           0.825990           0.825990           3.625711
    3    2         4.900000       -36.2967           0.968267           0.968267           4.862000
 
 
  O                    hydrogenic:
 
  List of hydrogenic basis orbitals: 
    n    l      effective z      eigenvalue [eV]  inner max. [A]     outer max. [A]     outer radius [A]   
    2    1         1.800000       -11.0118           1.178562           1.178562           5.432602
    3    2         7.600000       -87.3182           0.624125           0.624125           3.541477
    3    0         6.400000       -61.9209           0.061167           1.081902           4.306578
    4    3        11.600000      -114.4238           0.731631           0.731631           3.585037
    3    1         6.200000       -58.1113           0.255680           1.030270           4.306578
    3    2         5.600000       -47.4081           0.847233           0.847233           4.413171
    5    4        17.600000      -168.5799           0.749740           0.749740           3.372465
    1    0         0.750000        -7.6499           0.705284           0.705284           5.366593
 

  Adding cutoff potential to free-atom effective potential.
  Creating atomic-like basis functions for current effective potential.

  Species H                   :

  List of atomic basis orbitals and eigenvalues:
    n    l      energy [Ha]    energy [eV]    outer radius [A]
    1    0        -0.238382        -6.4867       5.373006


  Species C                   :

  List of atomic basis orbitals and eigenvalues:
    n    l      energy [Ha]    energy [eV]    outer radius [A]
    1    0       -10.041232      -273.2358       1.934409
    2    0        -0.504327       -13.7234       5.271162
    2    1        -0.193750        -5.2722       5.401630


  Species N                   :

  List of atomic basis orbitals and eigenvalues:
    n    l      energy [Ha]    energy [eV]    outer radius [A]
    1    0       -14.129007      -384.4699       1.637919
    2    0        -0.681802       -18.5528       5.168461
    2    1        -0.260543        -7.0897       5.361532


  Species O                   :

  List of atomic basis orbitals and eigenvalues:
    n    l      energy [Ha]    energy [eV]    outer radius [A]
    1    0       -18.898576      -514.2564       1.415765
    2    0        -0.878795       -23.9132       5.048385
    2    1        -0.332075        -9.0362       5.301386

  Assembling full basis from fixed parts.
  | Species H :   atomic orbital   1 s accepted.
  | Species H :    hydro orbital   2 s accepted.
  | Species H :    hydro orbital   1 s accepted.
  | Species H :    hydro orbital   2 s accepted.
  | Species H :    hydro orbital   2 p accepted.
  | Species H :    hydro orbital   2 p accepted.
  | Species H :    hydro orbital   3 d accepted.
  | Species C :   atomic orbital   1 s accepted.
  | Species C :    hydro orbital   2 s accepted.
  | Species C :   atomic orbital   2 s accepted.
  | Species C :    hydro orbital   3 s accepted.
  | Species C :    hydro orbital   3 p accepted.
  | Species C :   atomic orbital   2 p accepted.
  | Species C :    hydro orbital   2 p accepted.
  | Species C :    hydro orbital   3 d accepted.
  | Species C :    hydro orbital   3 d accepted.
  | Species C :    hydro orbital   4 f accepted.
  | Species C :    hydro orbital   5 g accepted.
  | Species N :   atomic orbital   1 s accepted.
  | Species N :    hydro orbital   3 s accepted.
  | Species N :   atomic orbital   2 s accepted.
  | Species N :    hydro orbital   1 s accepted.
  | Species N :    hydro orbital   3 p accepted.
  | Species N :   atomic orbital   2 p accepted.
  | Species N :    hydro orbital   2 p accepted.
  | Species N :    hydro orbital   3 d accepted.
  | Species N :    hydro orbital   3 d accepted.
  | Species N :    hydro orbital   4 f accepted.
  | Species N :    hydro orbital   5 g accepted.
  | Species O :   atomic orbital   1 s accepted.
  | Species O :    hydro orbital   3 s accepted.
  | Species O :   atomic orbital   2 s accepted.
  | Species O :    hydro orbital   1 s accepted.
  | Species O :    hydro orbital   3 p accepted.
  | Species O :   atomic orbital   2 p accepted.
  | Species O :    hydro orbital   2 p accepted.
  | Species O :    hydro orbital   3 d accepted.
  | Species O :    hydro orbital   3 d accepted.
  | Species O :    hydro orbital   4 f accepted.
  | Species O :    hydro orbital   5 g accepted.
 
  Basis size parameters after reduction:
  | Total number of radial functions:       40
  | Total number of basis functions :      840
 
  Testing on-site integration grid accuracy.
  |  Species  Function  <phi|h_atom|phi> (log., in eV)  <phi|h_atom|phi> (rad., in eV)
           1        1                 -6.4869821809                 -6.4870742227
           1        2                 13.5044133542                 13.5041049177
           1        3                 32.7854418792                 32.7779770519
           1        4                 33.7995553101                 33.7152624900 ***
           1        5                 28.8558651799                 28.8558652046
           1        6                 59.6361831893                 59.6362535845
           1        7                 60.2733718049                 60.2733715484
           2        8               -273.2358277112               -273.2358261765
           2        9                -10.7624923123                -10.7625144012
           2       10                 17.4634079027                 17.4634252127
           2       11                 53.0363661832                 53.0366180446
           2       12                 15.0981351967                 15.0981317714
           2       13                  3.8522181899                  3.8522770949
           2       14                 12.1181835661                 12.1206868578
           2       15                 29.4320778347                 29.4320780959
           2       16                 54.8753777694                 54.8752901936
           2       17                 59.3533975461                 59.3533974833
           2       18                 93.4537491195                 93.4537492066
           3       19               -384.4698526889               -384.4698499465
           3       20                 12.5691022037                 12.5690910168
           3       21                -15.7489097511                -15.7489165588
           3       22                 27.0978334940                 27.0985589490
           3       23                 18.5949116966                 18.5949125562
           3       24                  1.2212828291                  1.2212855301
           3       25                 13.4428926797                 13.4434051125
           3       26                 35.9380614500                 35.9380613666
           3       27                 39.9231532098                 39.9231654735
           3       28                 72.9957335806                 72.9957336833
           3       29                116.4231321147                116.4231321431
           4       30               -514.2564144315               -514.2564099626
           4       31                 15.1726678541                 15.1726530877
           4       32                -21.5447785304                -21.5447874973
           4       33                 14.4944558459                 14.4944698284
           4       34                 20.8882174564                 20.8882178906
           4       35                 -2.4850315908                 -2.4850322289
           4       36                 13.8600193195                 13.8599826966
           4       37                 45.8243383616                 45.8243383675
           4       38                 52.1840606465                 52.1840622440
           4       39                 85.4074185510                 85.4074185819
           4       40                142.0983717302                142.0983717339
 * Note: Onsite integrals marked "***" above are less accurate than
 * onsite_accuracy_threshold =    0.03000 eV. Usually, this is harmless.
 * When in doubt, tighten the "radial" and/or "radial_multiplier" flags to check.

  Preparing densities etc. for the partition functions (integrals / Hartree potential).

  Preparations completed.
  max(cpu_time)          :      0.240 s.
  Wall clock time (cpu1) :      0.237 s.
------------------------------------------------------------

------------------------------------------------------------
          Begin self-consistency loop: Initialization.

          Date     :  20170309, Time     :  162741.194
------------------------------------------------------------

  Initializing index lists of integration centers etc. from given atomic structure:
  | Number of centers in hartree potential         :        32
  | Number of centers in hartree multipole         :        32
  | Number of centers in electron density summation:        32
  | Number of centers in basis integrals           :        32
  | Number of centers in integrals                 :        32
  | Number of centers in hamiltonian               :        32
  Using modified Scalapack Eigenvalue solver (ELPA)
  * Using 32 tasks for Scalapack Eigenvalue solver.
  Detailed listing of tasks and assigned k-points:
  (for non-periodic systems, the "k-point" denotes an internal label only)
   Task     0 k-point     1 on eos240
   Task     1 k-point     1 on eos240
   Task     2 k-point     1 on eos240
   Task     3 k-point     1 on eos240
   Task     4 k-point     1 on eos240
   Task     5 k-point     1 on eos240
   Task     6 k-point     1 on eos240
   Task     7 k-point     1 on eos240
   Task     8 k-point     1 on eos240
   Task     9 k-point     1 on eos240
   Task    10 k-point     1 on eos240
   Task    11 k-point     1 on eos240
   Task    12 k-point     1 on eos240
   Task    13 k-point     1 on eos240
   Task    14 k-point     1 on eos240
   Task    15 k-point     1 on eos240
   Task    16 k-point     1 on eos240
   Task    17 k-point     1 on eos240
   Task    18 k-point     1 on eos240
   Task    19 k-point     1 on eos240
   Task    20 k-point     1 on eos240
   Task    21 k-point     1 on eos240
   Task    22 k-point     1 on eos240
   Task    23 k-point     1 on eos240
   Task    24 k-point     1 on eos240
   Task    25 k-point     1 on eos240
   Task    26 k-point     1 on eos240
   Task    27 k-point     1 on eos240
   Task    28 k-point     1 on eos240
   Task    29 k-point     1 on eos240
   Task    30 k-point     1 on eos240
   Task    31 k-point     1 on eos240
  Tasks:    32 split into      8 X      4 BLACS grid
  Calculating blocksize based on n_basis =          840 max_nprow =            8 max_npcol =            4
  Scalapack blocksize set to:           16
  Required Scalapack workspace - INTEGER:            1 REAL:             1
  Partitioning the integration grid into batches with parallel hashing+maxmin method.
  | Number of batches:     4912
  | Maximal batch size:     188
  | Minimal batch size:      28
  | Average batch size:     107.436
  | Standard deviation of batch sizes:      34.034

  Integration load balanced across    32 MPI tasks.
  Work distribution over tasks is as follows:
  Task     0 has      16432 integration points.
  Task     1 has      16454 integration points.
  Task     2 has      16428 integration points.
  Task     3 has      16520 integration points.
  Task     4 has      16444 integration points.
  Task     5 has      16560 integration points.
  Task     6 has      16475 integration points.
  Task     7 has      16455 integration points.
  Task     8 has      16493 integration points.
  Task     9 has      16457 integration points.
  Task    10 has      16552 integration points.
  Task    11 has      16494 integration points.
  Task    12 has      16529 integration points.
  Task    13 has      16442 integration points.
  Task    14 has      16456 integration points.
  Task    15 has      16515 integration points.
  Task    16 has      16557 integration points.
  Task    17 has      16556 integration points.
  Task    18 has      16471 integration points.
  Task    19 has      16580 integration points.
  Task    20 has      16534 integration points.
  Task    21 has      16467 integration points.
  Task    22 has      16429 integration points.
  Task    23 has      16471 integration points.
  Task    24 has      16496 integration points.
  Task    25 has      16512 integration points.
  Task    26 has      16428 integration points.
  Task    27 has      16521 integration points.
  Task    28 has      16459 integration points.
  Task    29 has      16516 integration points.
  Task    30 has      16573 integration points.
  Task    31 has      16452 integration points.
  Initializing partition tables, free-atom densities, potentials, etc. across the integration grid (initialize_grid_storage).
  | initialize_grid_storage: Actual outermost partition radius vs. multipole_radius_free
  | (-- VB: in principle, multipole_radius_free should be larger, hence this output)
  | Species        1: Confinement radius =              6.000000000000000 AA, multipole_radius_free =              6.071692442739658 AA.
  | Species        1: outer_partition_radius set to              6.071692442739658 AA .
  | Species        2: Confinement radius =              6.000000000000000 AA, multipole_radius_free =              6.029870734432609 AA.
  | Species        2: outer_partition_radius set to              6.029870734432609 AA .
  | Species        3: Confinement radius =              6.000000000000000 AA, multipole_radius_free =              6.058726835495003 AA.
  | Species        3: outer_partition_radius set to              6.058726835495003 AA .
  | Species        4: Confinement radius =              6.000000000000000 AA, multipole_radius_free =              6.064445521808699 AA.
  | Species        4: outer_partition_radius set to              6.064445521808699 AA .
  | Original list of interatomic distances with          32 x         32 entries is created.
  | Net number of integration points:   527728
  | of which are non-zero points    :   414841
  Obtaining max. number of non-zero basis functions in each batch (get_n_compute_maxes).
  | Maximal number of non-zero basis functions:      768 in task     0
  | Maximal number of non-zero basis functions:      786 in task     1
  | Maximal number of non-zero basis functions:      794 in task     2
  | Maximal number of non-zero basis functions:      788 in task     3
  | Maximal number of non-zero basis functions:      748 in task     4
  | Maximal number of non-zero basis functions:      787 in task     5
  | Maximal number of non-zero basis functions:      782 in task     6
  | Maximal number of non-zero basis functions:      794 in task     7
  | Maximal number of non-zero basis functions:      794 in task     8
  | Maximal number of non-zero basis functions:      763 in task     9
  | Maximal number of non-zero basis functions:      768 in task    10
  | Maximal number of non-zero basis functions:      786 in task    11
  | Maximal number of non-zero basis functions:      784 in task    12
  | Maximal number of non-zero basis functions:      785 in task    13
  | Maximal number of non-zero basis functions:      799 in task    14
  | Maximal number of non-zero basis functions:      789 in task    15
  | Maximal number of non-zero basis functions:      784 in task    16
  | Maximal number of non-zero basis functions:      796 in task    17
  | Maximal number of non-zero basis functions:      788 in task    18
  | Maximal number of non-zero basis functions:      794 in task    19
  | Maximal number of non-zero basis functions:      751 in task    20
  | Maximal number of non-zero basis functions:      763 in task    21
  | Maximal number of non-zero basis functions:      802 in task    22
  | Maximal number of non-zero basis functions:      799 in task    23
  | Maximal number of non-zero basis functions:      762 in task    24
  | Maximal number of non-zero basis functions:      780 in task    25
  | Maximal number of non-zero basis functions:      770 in task    26
  | Maximal number of non-zero basis functions:      794 in task    27
  | Maximal number of non-zero basis functions:      793 in task    28
  | Maximal number of non-zero basis functions:      789 in task    29
  | Maximal number of non-zero basis functions:      778 in task    30
  | Maximal number of non-zero basis functions:      792 in task    31
  Selecting the method for density update.
  Loop over occupied states selected for charge density update.
  Integrating Hamiltonian matrix: batch-based integration.
  Time summed over all CPUs for integration: real work       21.623 s, elapsed       22.547 s
  Integrating overlap matrix.
  Time summed over all CPUs for integration: real work       13.182 s, elapsed       13.876 s
  Deallocating overlap matrix.

  Updating Kohn-Sham eigenvalues, eigenvectors, occupation numbers, and Fermi level.
  Solving generalized eigenproblem
  Solving real symmetric generalised eigenvalue problem by standard ScaLAPACK.
  Transforming overlap matrix with ScaLAPACK and checking for singularities.
  : Overlap matrix is nonsingular, using Cholesky decomposition
  | Lowest eigenvalue:  0.763681E-04
  Factoring overlap matrix with Cholesky decomposition
  Using Cholesky factor for transformation
  Using 1-stage real ELPA solver
  Determining occupation numbers for Kohn-Sham eigenstates.
  | Chemical potential (Fermi level) in eV                 : -.96309639E+01
  | Error in electron count due to remaining E_F inaccuracy: 0.00000000E+00
  | Maximum occupation number of highest empty state:  0.00E+00

  Writing Kohn-Sham eigenvalues.

  State    Occupation    Eigenvalue [Ha]    Eigenvalue [eV]
      1       2.00000         -18.974394         -516.31953
      2       2.00000         -18.974106         -516.31170
      3       2.00000         -18.973436         -516.29345
      4       2.00000         -14.256845         -387.94848
      5       2.00000         -14.256529         -387.93990
      6       2.00000         -14.255227         -387.90448
      7       2.00000         -10.171348         -276.77646
      8       2.00000         -10.171175         -276.77174
      9       2.00000         -10.170922         -276.76486
     10       2.00000         -10.166907         -276.65562
     11       2.00000         -10.148512         -276.15506
     12       2.00000         -10.147294         -276.12193
     13       2.00000         -10.136676         -275.83299
     14       2.00000         -10.134552         -275.77520
     15       2.00000         -10.134400         -275.77105
     16       2.00000          -1.135185          -30.88994
     17       2.00000          -1.129859          -30.74503
     18       2.00000          -1.126815          -30.66218
     19       2.00000          -1.024696          -27.88339
     20       2.00000          -1.014959          -27.61843
     21       2.00000          -1.007656          -27.41973
     22       2.00000          -0.893538          -24.31440
     23       2.00000          -0.872681          -23.74687
     24       2.00000          -0.841759          -22.90544
     25       2.00000          -0.821142          -22.34441
     26       2.00000          -0.773852          -21.05759
     27       2.00000          -0.753484          -20.50334
     28       2.00000          -0.705178          -19.18888
     29       2.00000          -0.690166          -18.78037
     30       2.00000          -0.676649          -18.41255
     31       2.00000          -0.652725          -17.76156
     32       2.00000          -0.635495          -17.29269
     33       2.00000          -0.610303          -16.60720
     34       2.00000          -0.604456          -16.44807
     35       2.00000          -0.592110          -16.11214
     36       2.00000          -0.580199          -15.78801
     37       2.00000          -0.563797          -15.34171
     38       2.00000          -0.559319          -15.21986
     39       2.00000          -0.557239          -15.16323
     40       2.00000          -0.553917          -15.07285
     41       2.00000          -0.547344          -14.89400
     42       2.00000          -0.543606          -14.79228
     43       2.00000          -0.533838          -14.52648
     44       2.00000          -0.530874          -14.44580
     45       2.00000          -0.518812          -14.11760
     46       2.00000          -0.517031          -14.06912
     47       2.00000          -0.513651          -13.97715
     48       2.00000          -0.508478          -13.83640
     49       2.00000          -0.495620          -13.48649
     50       2.00000          -0.479541          -13.04898
     51       2.00000          -0.476010          -12.95289
     52       2.00000          -0.472361          -12.85361
     53       2.00000          -0.419838          -11.42437
     54       2.00000          -0.406959          -11.07392
     55       2.00000          -0.404279          -11.00098
     56       2.00000          -0.388520          -10.57218
     57       2.00000          -0.387252          -10.53765
     58       2.00000          -0.378958          -10.31197
     59       0.00000          -0.165566           -4.50528
     60       0.00000          -0.156952           -4.27089
     61       0.00000          -0.153209           -4.16904
     62       0.00000          -0.078864           -2.14599
     63       0.00000          -0.062602           -1.70348
     64       0.00000          -0.056332           -1.53288
     65       0.00000          -0.048282           -1.31382
     66       0.00000          -0.044413           -1.20854
     67       0.00000          -0.039926           -1.08645
     68       0.00000          -0.030854           -0.83959
     69       0.00000          -0.027576           -0.75039
     70       0.00000          -0.025249           -0.68706
     71       0.00000          -0.015532           -0.42265
     72       0.00000          -0.014075           -0.38299
     73       0.00000          -0.010366           -0.28208
     74       0.00000          -0.008021           -0.21826
     75       0.00000          -0.004001           -0.10888
     76       0.00000          -0.001505           -0.04096
     77       0.00000           0.000613            0.01668
     78       0.00000           0.003863            0.10511
     79       0.00000           0.005518            0.15016
     80       0.00000           0.013454            0.36610
     81       0.00000           0.018700            0.50885
     82       0.00000           0.028263            0.76907
     83       0.00000           0.032528            0.88514
     84       0.00000           0.043090            1.17255
     85       0.00000           0.049053            1.33480
     86       0.00000           0.049636            1.35066
     87       0.00000           0.053899            1.46667
     88       0.00000           0.057457            1.56348
     89       0.00000           0.063405            1.72533
     90       0.00000           0.067624            1.84014
     91       0.00000           0.069857            1.90091
     92       0.00000           0.080521            2.19107
     93       0.00000           0.086935            2.36561
     94       0.00000           0.089502            2.43547
     95       0.00000           0.093010            2.53092
     96       0.00000           0.098997            2.69384
     97       0.00000           0.107213            2.91741
     98       0.00000           0.110086            2.99559
     99       0.00000           0.115820            3.15163
    100       0.00000           0.119285            3.24592
    101       0.00000           0.126484            3.44182
    102       0.00000           0.130519            3.55159
    103       0.00000           0.140032            3.81047
    104       0.00000           0.144251            3.92528
    105       0.00000           0.148744            4.04752
    106       0.00000           0.154128            4.19403
    107       0.00000           0.156084            4.24727
    108       0.00000           0.161955            4.40701
    109       0.00000           0.166776            4.53821
    110       0.00000           0.168921            4.59658
    111       0.00000           0.173674            4.72591
    112       0.00000           0.181799            4.94700
    113       0.00000           0.182060            4.95411
    114       0.00000           0.191349            5.20688
    115       0.00000           0.197040            5.36174
    116       0.00000           0.199658            5.43297
    117       0.00000           0.205200            5.58378
    118       0.00000           0.206823            5.62795
    119       0.00000           0.212014            5.76919
    120       0.00000           0.216567            5.89308
    121       0.00000           0.222786            6.06232
    122       0.00000           0.228119            6.20743
    123       0.00000           0.230858            6.28197
    124       0.00000           0.236912            6.44671
    125       0.00000           0.244725            6.65930
    126       0.00000           0.248985            6.77523
    127       0.00000           0.253749            6.90485
    128       0.00000           0.262068            7.13123
    129       0.00000           0.267517            7.27951

  Highest occupied state (VBM) at    -10.31196506 eV
  | Occupation number:      2.00000000

  Lowest unoccupied state (CBM) at    -4.50528259 eV
  | Occupation number:      0.00000000

  Overall HOMO-LUMO gap:      5.80668246 eV.
  Calculating total energy contributions from superposition of free atom densities.

  Total energy components:
  | Sum of eigenvalues            :        -437.94494707 Ha      -11917.08834452 eV
  | XC energy correction          :         -98.82821500 Ha       -2689.25255771 eV
  | XC potential correction       :         127.03219063 Ha        3456.72178318 eV
  | Free-atom electrostatic energy:        -333.56162096 Ha       -9076.67352249 eV
  | Hartree energy correction     :           0.00000000 Ha           0.00000000 eV
  | MBD@rsSCS energy              :           0.00000000 Ha           0.00000000 eV
  | Entropy correction            :          -0.00000000 Ha          -0.00000000 eV
  | ---------------------------
  | Total energy                  :        -743.30259240 Ha      -20226.29264153 eV
  | Total energy, T -> 0          :        -743.30259240 Ha      -20226.29264153 eV  <-- do not rely on this value for anything but (periodic) metals
  | Electronic free energy        :        -743.30259240 Ha      -20226.29264153 eV

  Derived energy quantities:
  | Kinetic energy                :         735.16759060 Ha       20004.92797985 eV
  | Electrostatic energy          :       -1379.64196800 Ha      -37541.96806367 eV
  | Energy correction for multipole
  | error in Hartree potential    :           0.00000000 Ha           0.00000000 eV
  | Sum of eigenvalues per atom                           :        -372.40901077 eV
  | Total energy (T->0) per atom                          :        -632.07164505 eV  <-- do not rely on this value for anything but (periodic) metals
  | Electronic free energy per atom                       :        -632.07164505 eV
  Initialize hartree_potential_storage
  Max. number of atoms included in rho_multipole:           32

  End scf initialization - timings             :  max(cpu_time)    wall_clock(cpu1)
  | Time for scf. initialization               :        1.936 s           1.931 s
  | Boundary condition initialization          :        0.004 s           0.001 s
  | Integration                                :        1.164 s           1.162 s
  | Solution of K.-S. eqns.                    :        0.076 s           0.077 s
  | Grid partitioning                          :        0.344 s           0.338 s
  | Preloading free-atom quantities on grid    :        0.028 s           0.028 s
  | Free-atom superposition energy             :        0.040 s           0.040 s
  | Total energy evaluation                    :        0.004 s           0.001 s
------------------------------------------------------------

------------------------------------------------------------
          Begin self-consistency iteration #    1

  Date     :  20170309, Time     :  162743.126
------------------------------------------------------------
  Evaluating new KS density.
  Integration grid: deviation in total charge (<rho> - N_e) =   5.684342E-14
  Pulay mixing of updated and previous charge densities.

  Evaluating partitioned Hartree potential by multipole expansion.
  | Analytical far-field extrapolation by fixed multipoles:
  | Hartree multipole sum: apparent total charge =  -0.188504E-04
  Summing up the Hartree potential.
  Time summed over all CPUs for potential: real work        9.576 s, elapsed        9.870 s
  | RMS charge density error from multipole expansion :   0.105347E-01

  Integrating Hamiltonian matrix: batch-based integration.
  Time summed over all CPUs for integration: real work       21.372 s, elapsed       22.307 s

  Updating Kohn-Sham eigenvalues, eigenvectors, occupation numbers, and Fermi level.
  Solving generalized eigenproblem
  Solving real symmetric generalised eigenvalue problem by standard ScaLAPACK.
  Using Cholesky factor for transformation
  Using 2-stage real ELPA solver
  K-Point:    1, Trafo times: 1-stage=     0.021 s, 2-stage=     0.020 s ==> Using 2-stage solver
  Determining occupation numbers for Kohn-Sham eigenstates.
  | Chemical potential (Fermi level) in eV                 : -.37286212E+01
  | Error in electron count due to remaining E_F inaccuracy: 0.00000000E+00
  | Maximum occupation number of highest empty state:  0.00E+00

  Writing Kohn-Sham eigenvalues.

  State    Occupation    Eigenvalue [Ha]    Eigenvalue [eV]
      1       2.00000         -18.634726         -507.07670
      2       2.00000         -18.617029         -506.59514
      3       2.00000         -18.593731         -505.96116
      4       2.00000         -13.998693         -380.92381
      5       2.00000         -13.996557         -380.86568
      6       2.00000         -13.959429         -379.85538
      7       2.00000         -10.058924         -273.71725
      8       2.00000         -10.058058         -273.69368
      9       2.00000         -10.029019         -272.90348
     10       2.00000          -9.971955         -271.35070
     11       2.00000          -9.948530         -270.71329
     12       2.00000          -9.861994         -268.35851
     13       2.00000          -9.853592         -268.12989
     14       2.00000          -9.847714         -267.96994
     15       2.00000          -9.823771         -267.31840
     16       2.00000          -0.973458          -26.48915
     17       2.00000          -0.959481          -26.10880
     18       2.00000          -0.936579          -25.48561
     19       2.00000          -0.873866          -23.77909
     20       2.00000          -0.870130          -23.67743
     21       2.00000          -0.832971          -22.66630
     22       2.00000          -0.751819          -20.45803
     23       2.00000          -0.716065          -19.48513
     24       2.00000          -0.691552          -18.81808
     25       2.00000          -0.654849          -17.81936
     26       2.00000          -0.634506          -17.26578
     27       2.00000          -0.603927          -16.43369
     28       2.00000          -0.578203          -15.73369
     29       2.00000          -0.556874          -15.15331
     30       2.00000          -0.533483          -14.51681
     31       2.00000          -0.517005          -14.06842
     32       2.00000          -0.506468          -13.78168
     33       2.00000          -0.466402          -12.69144
     34       2.00000          -0.450616          -12.26188
     35       2.00000          -0.448327          -12.19960
     36       2.00000          -0.431202          -11.73361
     37       2.00000          -0.422574          -11.49881
     38       2.00000          -0.412163          -11.21552
     39       2.00000          -0.403645          -10.98375
     40       2.00000          -0.399299          -10.86547
     41       2.00000          -0.392489          -10.68016
     42       2.00000          -0.382848          -10.41782
     43       2.00000          -0.378006          -10.28606
     44       2.00000          -0.375301          -10.21246
     45       2.00000          -0.371444          -10.10752
     46       2.00000          -0.367574          -10.00220
     47       2.00000          -0.360986           -9.82293
     48       2.00000          -0.355287           -9.66786
     49       2.00000          -0.344834           -9.38341
     50       2.00000          -0.339829           -9.24723
     51       2.00000          -0.330733           -8.99969
     52       2.00000          -0.315623           -8.58855
     53       2.00000          -0.251905           -6.85467
     54       2.00000          -0.242646           -6.60273
     55       2.00000          -0.224216           -6.10124
     56       2.00000          -0.215702           -5.86955
     57       2.00000          -0.210221           -5.72040
     58       2.00000          -0.188468           -5.12847
     59       0.00000          -0.058860           -1.60167
     60       0.00000          -0.050856           -1.38387
     61       0.00000          -0.032999           -0.89794
     62       0.00000          -0.024785           -0.67444
     63       0.00000          -0.018788           -0.51125
     64       0.00000          -0.011452           -0.31163
     65       0.00000           0.002317            0.06305
     66       0.00000           0.006063            0.16499
     67       0.00000           0.010246            0.27880
     68       0.00000           0.021811            0.59351
     69       0.00000           0.027544            0.74951
     70       0.00000           0.030673            0.83465
     71       0.00000           0.035086            0.95473
     72       0.00000           0.038934            1.05945
     73       0.00000           0.045368            1.23454
     74       0.00000           0.048696            1.32509
     75       0.00000           0.055247            1.50336
     76       0.00000           0.060256            1.63965
     77       0.00000           0.063839            1.73713
     78       0.00000           0.070098            1.90748
     79       0.00000           0.078287            2.13029
     80       0.00000           0.085045            2.31419
     81       0.00000           0.096506            2.62606
     82       0.00000           0.103987            2.82963
     83       0.00000           0.106148            2.88843
     84       0.00000           0.109268            2.97334
     85       0.00000           0.115820            3.15163
     86       0.00000           0.118219            3.21690
     87       0.00000           0.125563            3.41676
     88       0.00000           0.128436            3.49493
     89       0.00000           0.132247            3.59862
     90       0.00000           0.136851            3.72390
     91       0.00000           0.143540            3.90592
     92       0.00000           0.147210            4.00578
     93       0.00000           0.152928            4.16138
     94       0.00000           0.160786            4.37521
     95       0.00000           0.164183            4.46766
     96       0.00000           0.173457            4.72001
     97       0.00000           0.178912            4.86845
     98       0.00000           0.183641            4.99714
     99       0.00000           0.189512            5.15687
    100       0.00000           0.192740            5.24472
    101       0.00000           0.196286            5.34121
    102       0.00000           0.202053            5.49813
    103       0.00000           0.211951            5.76749
    104       0.00000           0.213258            5.80304
    105       0.00000           0.216220            5.88365
    106       0.00000           0.217613            5.92156
    107       0.00000           0.220818            6.00876
    108       0.00000           0.224003            6.09543
    109       0.00000           0.225745            6.14284
    110       0.00000           0.230978            6.28524
    111       0.00000           0.234046            6.36873
    112       0.00000           0.239280            6.51115
    113       0.00000           0.252752            6.87773
    114       0.00000           0.254381            6.92206
    115       0.00000           0.263200            7.16204
    116       0.00000           0.264833            7.20646
    117       0.00000           0.265613            7.22770
    118       0.00000           0.274511            7.46982
    119       0.00000           0.280879            7.64311
    120       0.00000           0.287563            7.82498
    121       0.00000           0.293171            7.97760
    122       0.00000           0.297698            8.10078
    123       0.00000           0.303545            8.25988
    124       0.00000           0.305381            8.30985
    125       0.00000           0.313965            8.54343
    126       0.00000           0.323884            8.81332
    127       0.00000           0.332617            9.05097
    128       0.00000           0.343160            9.33787
    129       0.00000           0.345921            9.41299

  Highest occupied state (VBM) at     -5.12846538 eV
  | Occupation number:      2.00000000

  Lowest unoccupied state (CBM) at    -1.60167452 eV
  | Occupation number:      0.00000000

  Overall HOMO-LUMO gap:      3.52679087 eV.

  Total energy components:
  | Sum of eigenvalues            :        -417.05459068 Ha      -11348.63282459 eV
  | XC energy correction          :        -100.76544610 Ha       -2741.96729807 eV
  | XC potential correction       :         129.54497808 Ha        3525.09820867 eV
  | Free-atom electrostatic energy:        -333.56162096 Ha       -9076.67352249 eV
  | Hartree energy correction     :         -20.89238653 Ha        -568.51076292 eV
  | MBD@rsSCS energy              :           0.00000000 Ha           0.00000000 eV
  | Entropy correction            :           0.00000000 Ha           0.00000000 eV
  | ---------------------------
  | Total energy                  :        -742.72906619 Ha      -20210.68619938 eV
  | Total energy, T -> 0          :        -742.72906619 Ha      -20210.68619938 eV  <-- do not rely on this value for anything but (periodic) metals
  | Electronic free energy        :        -742.72906619 Ha      -20210.68619938 eV

  Derived energy quantities:
  | Kinetic energy                :         744.06524410 Ha       20247.04545032 eV
  | Electrostatic energy          :       -1386.02886419 Ha      -37715.76435163 eV
  | Energy correction for multipole
  | error in Hartree potential    :          -0.04139488 Ha          -1.12641208 eV
  | Sum of eigenvalues per atom                           :        -354.64477577 eV
  | Total energy (T->0) per atom                          :        -631.58394373 eV  <-- do not rely on this value for anything but (periodic) metals
  | Electronic free energy per atom                       :        -631.58394373 eV

  Self-consistency convergence accuracy:
  | Change of charge density      :  0.9018E+00
  | Change of sum of eigenvalues  :  0.5685E+03 eV
  | Change of total energy        :  0.1561E+02 eV

  End self-consistency iteration #     1       :  max(cpu_time)    wall_clock(cpu1)
  | Time for this iteration                    :        1.540 s           1.540 s
[...]
   Multipole                     : -0.499066E+00  0.100053E+00 -0.316079E+00
   Pulay + GGA                   : -0.110792E+02  0.227948E+01 -0.708058E+01
   MBD@rsSCS                     : -0.164827E-01  0.654552E-02 -0.753236E-02
   ----------------------------------------------------------------
   Total forces(  20)            : -0.142567E-01  0.157805E-02 -0.908156E-02
  atom #   21
   Hellmann-Feynman              :  0.356698E-01  0.171149E-02 -0.327495E-01
   Ionic forces                  :  0.000000E+00  0.000000E+00  0.000000E+00
   Multipole                     :  0.277007E-01  0.851764E-02  0.147187E-01
   Pulay + GGA                   : -0.557961E-01 -0.138120E-01  0.284287E-01
   MBD@rsSCS                     :  0.479049E-02 -0.431006E-02 -0.395254E-02
   ----------------------------------------------------------------
   Total forces(  21)            :  0.123649E-01 -0.789289E-02  0.644533E-02
  atom #   22
   Hellmann-Feynman              : -0.470735E-01 -0.299179E-01  0.212386E-01
   Ionic forces                  :  0.000000E+00  0.000000E+00  0.000000E+00
   Multipole                     :  0.175114E-01 -0.730953E-02  0.182241E-01
   Pulay + GGA                   :  0.350918E-01  0.379051E-01 -0.306280E-01
   MBD@rsSCS                     : -0.418890E-02 -0.483844E-02  0.142076E-02
   ----------------------------------------------------------------
   Total forces(  22)            :  0.134084E-02 -0.416072E-02  0.102554E-01
  atom #   23
   Hellmann-Feynman              :  0.389153E+00  0.473108E+00  0.939768E+00
   Ionic forces                  :  0.000000E+00  0.000000E+00  0.000000E+00
   Multipole                     :  0.790732E-02 -0.806277E-01 -0.295209E+00
   Pulay + GGA                   : -0.390900E+00 -0.392576E+00 -0.634545E+00
   MBD@rsSCS                     : -0.410230E-02 -0.591256E-02 -0.979499E-02
   ----------------------------------------------------------------
   Total forces(  23)            :  0.205853E-02 -0.600842E-02  0.217820E-03
  atom #   24
   Hellmann-Feynman              :  0.435719E-01  0.393669E-03 -0.323654E-01
   Ionic forces                  :  0.000000E+00  0.000000E+00  0.000000E+00
   Multipole                     :  0.125324E-01  0.250658E-01  0.106495E-03
   Pulay + GGA                   : -0.600504E-01 -0.266439E-01  0.258997E-01
   MBD@rsSCS                     : -0.245377E-02 -0.568155E-02 -0.108914E-01
   ----------------------------------------------------------------
   Total forces(  24)            : -0.639982E-02 -0.686591E-02 -0.172506E-01
  atom #   25
   Hellmann-Feynman              :  0.130624E-01 -0.370480E-01 -0.400628E-01
   Ionic forces                  :  0.000000E+00  0.000000E+00  0.000000E+00
   Multipole                     :  0.485508E-02 -0.195289E-01  0.327518E-01
   Pulay + GGA                   : -0.175789E-01  0.594741E-01  0.620146E-02
   MBD@rsSCS                     : -0.298667E-02 -0.486283E-02 -0.100939E-01
   ----------------------------------------------------------------
   Total forces(  25)            : -0.264804E-02 -0.196552E-02 -0.112033E-01
  atom #   26
   Hellmann-Feynman              : -0.155395E-01 -0.433147E-01 -0.610092E-01
   Ionic forces                  :  0.000000E+00  0.000000E+00  0.000000E+00
   Multipole                     : -0.261629E-01  0.200834E-01  0.229649E-01
   Pulay + GGA                   :  0.455782E-01  0.193756E-01  0.338604E-01
   MBD@rsSCS                     : -0.239814E-02 -0.520245E-02 -0.898208E-02
   ----------------------------------------------------------------
   Total forces(  26)            :  0.147770E-02 -0.905816E-02 -0.131660E-01
  atom #   27
   Hellmann-Feynman              : -0.115194E+01  0.803711E+00  0.660851E+00
   Ionic forces                  :  0.000000E+00  0.000000E+00  0.000000E+00
   Multipole                     :  0.378079E-01  0.199137E+00  0.160470E+00
   Pulay + GGA                   :  0.111277E+01 -0.100795E+01 -0.825334E+00
   MBD@rsSCS                     : -0.139772E-01  0.338465E-01 -0.244902E-02
   ----------------------------------------------------------------
   Total forces(  27)            : -0.153331E-01  0.287452E-01 -0.646237E-02
  atom #   28
   Hellmann-Feynman              :  0.741446E+00 -0.202761E+01 -0.206480E+00
   Ionic forces                  :  0.000000E+00  0.000000E+00  0.000000E+00
   Multipole                     : -0.921944E-01  0.556187E-01 -0.132530E-01
   Pulay + GGA                   : -0.633569E+00  0.195541E+01  0.226646E+00
   MBD@rsSCS                     : -0.745070E-02  0.127613E-01 -0.108672E-02
   ----------------------------------------------------------------
   Total forces(  28)            :  0.823140E-02 -0.382394E-02  0.582629E-02
  atom #   29
   Hellmann-Feynman              :  0.323868E-01 -0.295543E-01  0.281186E-02
   Ionic forces                  :  0.000000E+00  0.000000E+00  0.000000E+00
   Multipole                     :  0.136774E-01 -0.515392E-02  0.178364E-01
   Pulay + GGA                   : -0.452422E-01  0.302324E-01 -0.200268E-01
   MBD@rsSCS                     : -0.434884E-02  0.802214E-02 -0.711204E-03
   ----------------------------------------------------------------
   Total forces(  29)            : -0.352687E-02  0.354635E-02 -0.897892E-04
  atom #   30
   Hellmann-Feynman              : -0.662897E-02  0.631050E-01  0.152852E-01
   Ionic forces                  :  0.000000E+00  0.000000E+00  0.000000E+00
   Multipole                     :  0.400002E-01 -0.224953E-01  0.116824E-01
   Pulay + GGA                   : -0.309024E-01 -0.488507E-01 -0.277951E-01
   MBD@rsSCS                     : -0.469681E-02  0.693876E-02 -0.178175E-02
   ----------------------------------------------------------------
   Total forces(  30)            : -0.222800E-02 -0.130228E-02 -0.260929E-02
  atom #   31
   Hellmann-Feynman              : -0.191579E-02  0.801812E-01 -0.133371E-01
   Ionic forces                  :  0.000000E+00  0.000000E+00  0.000000E+00
   Multipole                     :  0.851728E-02 -0.125803E-01 -0.321028E-01
   Pulay + GGA                   : -0.213872E-02 -0.595919E-01  0.477092E-01
   MBD@rsSCS                     : -0.732807E-03  0.822091E-02  0.132586E-03
   ----------------------------------------------------------------
   Total forces(  31)            :  0.372995E-02  0.162299E-01  0.240186E-02
  atom #   32
   Hellmann-Feynman              : -0.380293E-01  0.557296E-01  0.407957E-01
   Ionic forces                  :  0.000000E+00  0.000000E+00  0.000000E+00
   Multipole                     : -0.180680E-01 -0.215800E-01  0.123177E-01
   Pulay + GGA                   :  0.552715E-01 -0.271957E-01 -0.467327E-01
   MBD@rsSCS                     : -0.252475E-02  0.747193E-02  0.284641E-02
   ----------------------------------------------------------------
   Total forces(  32)            : -0.335057E-02  0.144259E-01  0.922717E-02

  Removing unitary transformations (pure translations, rotations) from forces on atoms.
  Atomic forces before filtering:
  | Net force on center of mass :  -0.289945E-03  0.512806E-05  0.110270E-03 eV/A
  | Net torque on center of mass:  -0.480571E-03 -0.425483E-03 -0.200681E-02 eV
  Atomic forces after filtering:
  | Net force on center of mass :   0.104535E-16  0.278760E-17  0.167256E-16 eV/A
  | Net torque on center of mass:  -0.200987E-16 -0.767069E-16  0.324529E-16 eV

  Energy and forces in a compact form:
  | Total energy uncorrected      :         -0.202093732234483E+05 eV
  | Total energy corrected        :         -0.202093732234483E+05 eV  <-- do not rely on this value for anything but (periodic) metals
  | Electronic free energy        :         -0.202093732234483E+05 eV
  Total atomic forces (unitary forces cleaned) [eV/Ang]:
  |   1         -0.427941898520366E-02          0.139593828184584E-02         -0.526240088504604E-02
  |   2         -0.105762376344154E-03          0.176115324262626E-01          0.356288442634735E-01
  |   3         -0.585480148232384E-02          0.205981316659894E-01          0.443025001787956E-02
  |   4          0.170890301849766E-02          0.899518877890645E-03          0.618659617548549E-02
  |   5         -0.124991515819926E-02         -0.144711129711140E-02          0.665523148186513E-02
  |   6         -0.897146870660707E-03          0.851175453973206E-02          0.933359365419582E-02
  |   7          0.177980764927530E-02         -0.883411903648136E-02          0.223255415387979E-02
  |   8          0.866418494396118E-03         -0.691309880539041E-02          0.460512941483433E-02
  |   9         -0.256816124001050E-03         -0.335576686958416E-01          0.964358282622737E-02
  |  10         -0.147918837436481E-01         -0.575125779428329E-02         -0.188283839526203E-02
  |  11          0.782738997176974E-03         -0.591379322401911E-03         -0.433024851220805E-02
  |  12         -0.246191695226156E-02         -0.707090875753085E-03          0.364407892689046E-02
  |  13          0.202835063070744E-01         -0.120256576918398E-01         -0.959170911996207E-02
  |  14          0.286235327251997E-01          0.283150105197592E-02         -0.200397463056242E-01
  |  15          0.498047999505384E-02          0.522094868294799E-02         -0.936285488228986E-02
  |  16          0.224576728271397E-01          0.326149577488557E-02         -0.757471414942578E-02
  |  17         -0.251812900709035E-01         -0.532785817148156E-02          0.287138593678444E-02
  |  18          0.220832271931653E-02          0.473407853053137E-03         -0.582770990655059E-02
  |  19         -0.103248091114802E-01         -0.924355046140850E-02          0.426328084646643E-02
  |  20         -0.142331361409908E-01          0.160481668430919E-02         -0.909669423557207E-02
  |  21          0.123702418585654E-01         -0.790964221928426E-02          0.644682053439940E-02
  |  22          0.133243576240949E-02         -0.413951910591957E-02          0.102552945172540E-01
  |  23          0.205567990246096E-02         -0.600623866351769E-02          0.219093058394917E-03
  |  24         -0.639421818286909E-02         -0.687616474199943E-02         -0.172505686516559E-01
  |  25         -0.266433765113570E-02         -0.196676471616795E-02         -0.111955197202738E-01
  |  26          0.147727851671379E-02         -0.904553357432405E-02         -0.131678642963693E-01
  |  27         -0.153045574094817E-01          0.287588839789534E-01         -0.647710435178667E-02
  |  28          0.827648979636589E-02         -0.380248187220519E-02          0.580282691373380E-02
  |  29         -0.350310591622691E-02          0.355341056158856E-02         -0.101085069868922E-03
  |  30         -0.217687002920734E-02         -0.128667648596711E-02         -0.263422126348762E-02
  |  31          0.378346774838416E-02          0.162480082605448E-01          0.237538482721014E-02
  |  32         -0.330699011309231E-02          0.144624648913990E-01          0.920133219640831E-02

  ------------------------------------ 
  Start decomposition of the XC Energy 
  ------------------------------------ 
  Hartree-Fock part   :          0.000000000 Ha              0.000000000 eV
  ------------------------------------ 
  X Energy            :        -96.995617074 Ha          -2639.385031023 eV
  C Energy GGA        :         -3.871079127 Ha           -105.337422560 eV
  Total XC Energy     :       -100.866696201 Ha          -2744.722453584 eV
  LDA X and C from self-consistent density 
  X Energy LDA        :        -88.016352681 Ha          -2395.046815085 eV
  C Energy LDA        :         -7.532964730 Ha           -204.982399684 eV
  ------------------------------------ 
  End decomposition of the XC Energy 
  ------------------------------------ 
   
  ESP charge fitting starts.
  | Calculation :  00000001  of  00000001
  | Full density
  Computing multipole expansion for total density.
  Generating points for esp charges.
  Partitioning the integration grid into batches with parallel hashing+maxmin method.
  | Number of batches:     3911
  | Maximal batch size:     197
  | Minimal batch size:      53
  | Average batch size:     124.598
  | Standard deviation of batch sizes:      15.619

  Integration load balanced across    32 MPI tasks.
  Work distribution over tasks is as follows:
  Initializing partition tables, free-atom densities, potentials, etc. across the integration grid (initialize_grid_storage).
  | Original list of interatomic distances with          32 x         32 entries is created.
  | Net number of integration points:   487303
  | of which are non-zero points    :   487303
  Summing up potential from multipole expanded  density.
  Summing up the Hartree potential.
  Time summed over all CPUs for potential: real work        6.371 s, elapsed        6.564 s
  Fitting esp charges to potential.
  |
  | ESP charges fitted to the electrostatic potential :
  |
  | Atom         1: C, ESP charge:      0.69387793
  |
  | Atom         2: C, ESP charge:     -0.70904892
  |
  | Atom         3: O, ESP charge:      0.49854528
  |
  | Atom         4: H, ESP charge:     -0.20207806
  |
  | Atom         5: H, ESP charge:     -0.21109095
  |
  | Atom         6: H, ESP charge:     -0.17085008
  |
  | Atom         7: N, ESP charge:      0.50047469
  |
  | Atom         8: C, ESP charge:      0.10087274
  |
  | Atom         9: C, ESP charge:     -0.23416535
  |
  | Atom        10: O, ESP charge:      0.47042459
  |
  | Atom        11: H, ESP charge:     -0.33425098
  |
  | Atom        12: H, ESP charge:     -0.18878046
  |
  | Atom        13: C, ESP charge:      0.27488011
  |
  | Atom        14: H, ESP charge:     -0.11536797
  |
  | Atom        15: H, ESP charge:     -0.11383826
  |
  | Atom        16: H, ESP charge:     -0.07837070
  |
  | Atom        17: N, ESP charge:      0.08252461
  |
  | Atom        18: C, ESP charge:     -0.27402891
  |
  | Atom        19: C, ESP charge:     -0.27136646
  |
  | Atom        20: O, ESP charge:      0.49734248
  |
  | Atom        21: H, ESP charge:     -0.12933636
  |
  | Atom        22: H, ESP charge:     -0.06380600
  |
  | Atom        23: C, ESP charge:      0.47610107
  |
  | Atom        24: H, ESP charge:     -0.12283364
  |
  | Atom        25: H, ESP charge:     -0.10256429
  |
  | Atom        26: H, ESP charge:     -0.14706149
  |
  | Atom        27: N, ESP charge:      0.02470092
  |
  | Atom        28: C, ESP charge:      0.50526162
  |
  | Atom        29: H, ESP charge:     -0.14825799
  |
  | Atom        30: H, ESP charge:     -0.15694022
  |
  | Atom        31: H, ESP charge:     -0.17595645
  |
  | Atom        32: H, ESP charge:     -0.17501248

  RRMS:       0.00207079

  Done.

------------------------------------------------------------------------------
  Final output of selected total energy values:

  The following output summarizes some interesting total energy values
  at the end of a run (AFTER all relaxation, molecular dynamics, etc.).

  | Total energy of the DFT / Hartree-Fock s.c.f. calculation      :         -20209.373223448 eV
  | Final zero-broadening corrected energy (caution - metals only) :         -20209.373223448 eV
  | For reference only, the value of 1 Hartree used in FHI-aims is :             27.211384500 eV

  Before relying on these values, please be sure to understand exactly which
  total energy value is referred to by a given number. Different objects may
  all carry the same name 'total energy'. Definitions:

  Total energy of the DFT / Hartree-Fock s.c.f. calculation:
  | Note that this energy does not include ANY quantities calculated after the
  | s.c.f. cycle, in particular not ANY RPA, MP2, etc. many-body perturbation terms.

  Final zero-broadening corrected energy:
  | For metallic systems only, a broadening of the occupation numbers at the Fermi
  | level can be extrapolated back to zero broadening by an electron-gas inspired
  | formula. For all systems that are not real metals, this value can be
  | meaningless and should be avoided.

------------------------------------------------------------------------------
  Methods described in the following list of references were used in this FHI-aims run.
  If you publish the results, please make sure to cite these reference if they apply.
  FHI-aims is an academic code, and for our developers (often, Ph.D. students
  and postdocs), scientific credit in the community is essential.
  Thank you for helping us!

  For any use of FHI-aims, please cite:

    Volker Blum, Ralf Gehrke, Felix Hanke, Paula Havu, Ville Havu,
    Xinguo Ren, Karsten Reuter, and Matthias Scheffler
    'Ab initio molecular simulations with numeric atom-centered orbitals'
    Computer Physics Communications 180, 2175-2196 (2009)
    http://dx.doi.org/10.1016/j.cpc.2009.06.022


  The scalable eigensolver library ELPA was used in your run.
  ELPA is essential especially for large systems on hundreds or thousands of CPUs.
  For ELPA, please cite:

    Andreas Marek, Volker Blum, Rainer Johanni, Ville Havu, Bruno Lang,
    Thomas Auckenthaler, Alexander Heinecke, Hans-Joachim Bungartz, and Hermann Lederer,
    'The ELPA Library - Scalable Parallel Eigenvalue Solutions
    for Electronic Structure Theory and Computational Science'
    The Journal of Physics: Condensed Matter 26, 213201 (2014).
    http://dx.doi.org/10.1088/0953-8984/26/21/213201


  For ELPA's efficient two-stage tridiagonalization used in your run, please cite:

    T. Auckenthaler, V. Blum, H.-J. Bungartz, T. Huckle, R. Johanni, L. Kraemer,
    B. Lang, H. Lederer, and P. R. Willems,
    'Parallel solution of partial symmetric eigenvalue problems'
    'from  electronic structure calculations'
    Parallel Computing 37, 783-794 (2011).
    http://dx.doi.org/10.1016/j.parco.2011.05.002


  For the real-space grid partitioning and parallelization used in this calculation, please cite:

    Ville Havu, Volker Blum, Paula Havu, and Matthias Scheffler,
    'Efficient O(N) integration for all-electron electronic structure calculation'
    'using numerically tabulated basis functions'
    Journal of Computational Physics 228, 8367-8379 (2009).
    http://dx.doi.org/10.1016/j.jcp.2009.08.008

  Of course, there are many other important community references, e.g., those cited in the
  above references. Our list is limited to references that describe implementations in the
  FHI-aims code. The reason is purely practical (length of this list) - please credit others as well.

------------------------------------------------------------
          Leaving FHI-aims.
          Date     :  20170309, Time     :  162813.768

          Computational steps:
          | Number of self-consistency cycles          :           14

          Detailed time accounting                     :  max(cpu_time)    wall_clock(cpu1)
          | Total time                                 :       33.318 s          33.610 s
          | Preparation time                           :        0.240 s           0.237 s
          | Grid partitioning                          :        0.344 s           0.338 s
          | Preloading free-atom quantities on grid    :        0.028 s           0.028 s
          | Free-atom superposition energy             :        0.040 s           0.040 s
          | Total time for integrations                :       11.121 s          11.098 s
          | Total time for solution of K.-S. equations :        0.528 s           0.497 s
          | Total time for density & force components  :        9.645 s           9.627 s
          | Total time for mixing                      :        0.128 s           0.107 s
          | Total time for Hartree multipole update    :        0.068 s           0.057 s
          | Total time for Hartree multipole sum       :        6.432 s           6.405 s
          | Total time for total energy evaluation     :        0.032 s           0.019 s

          Have a nice day.
------------------------------------------------------------
