  MPI-parallelism will be employed.
------------------------------------------------------------
          Invoking FHI-aims ...
          Version 150427
          Git rev.: 9dd23e0 BL: Update Version stamp
          Compiled on 2015/11/03 at 22:05:20 on host eos03.

          When using FHI-aims, please cite the following reference:

          Volker Blum, Ralf Gehrke, Felix Hanke, Paula Havu,
          Ville Havu, Xinguo Ren, Karsten Reuter, and Matthias Scheffler,
          'Ab Initio Molecular Simulations with Numeric Atom-Centered Orbitals: FHI-aims',
          Computer Physics Communications 180, 2175-2196 (2009)

          For any questions about FHI-aims, please visit the aimsclub website
          with its forums and wiki. Contributions to both the forums and the
          wiki are warmly encouraged - they are for you, and everyone is welcome there.

------------------------------------------------------------

  Date     :  20170309, Time     :  175555.507
  Time zero on CPU 1             :   0.368022000000000E+00  s.
  Internal wall clock time zero  :           258314155.507  s.

  Using       32 parallel tasks.
  Task        0 on host eos383 reporting.
  Task        1 on host eos383 reporting.
  Task        2 on host eos383 reporting.
  Task        3 on host eos383 reporting.
  Task        4 on host eos383 reporting.
  Task        5 on host eos383 reporting.
  Task        6 on host eos383 reporting.
  Task        7 on host eos383 reporting.
  Task        8 on host eos383 reporting.
  Task        9 on host eos383 reporting.
  Task       10 on host eos383 reporting.
  Task       11 on host eos383 reporting.
  Task       12 on host eos383 reporting.
  Task       13 on host eos383 reporting.
  Task       14 on host eos383 reporting.
  Task       15 on host eos383 reporting.
  Task       16 on host eos383 reporting.
  Task       17 on host eos383 reporting.
  Task       18 on host eos383 reporting.
  Task       19 on host eos383 reporting.
  Task       20 on host eos383 reporting.
  Task       21 on host eos383 reporting.
  Task       22 on host eos383 reporting.
  Task       23 on host eos383 reporting.
  Task       24 on host eos383 reporting.
  Task       25 on host eos383 reporting.
  Task       26 on host eos383 reporting.
  Task       27 on host eos383 reporting.
  Task       28 on host eos383 reporting.
  Task       29 on host eos383 reporting.
  Task       30 on host eos383 reporting.
  Task       31 on host eos383 reporting.

  Performing system and environment tests:
  | Environment variable OMP_NUM_THREADS correctly set to 1.
  | Stacksize not measured: no C compiler
  | Checking for scalapack...
  | Testing pdtran()...
  | All pdtran() tests passed.

  Obtaining array dimensions for all initial allocations:
  
  -----------------------------------------------------------------------
  Parsing control.in (first pass over file, find array dimensions only).
  The contents of control.in will be repeated verbatim below
  unless switched off by setting 'verbatim_writeout .false.' .
  in the first line of control.in .
  -----------------------------------------------------------------------
  
  #########################################################################################
  #
  # Input for System
  #
  #########################################################################################
  #
  #
  #  Physical model
  #
    xc                 pbe
    many_body_dispersion
    spin               none
    charge             0.
  #
  #  SCF convergence
  #
    occupation_type    gaussian 0.05
    mixer              pulay
      n_max_pulay        10
      charge_mix_param   0.5
    sc_accuracy_rho    1E-4
    sc_accuracy_eev    1E-2
    sc_accuracy_etot   1E-5
    sc_accuracy_forces 1E-4
    sc_iter_limit      1000
  #
  #  ESP charge
  #
    output esp
    esp equal_grid_n 80 80 80
  #
  #
  ################################################################################
  #
  #  FHI-aims code project
  # Volker Blum, Fritz Haber Institute Berlin, 2009
  #
  #  Suggested "tight" defaults for H atom (to be pasted into control.in file)
  #
  ################################################################################
    species        H
  #     global species definitions
      nucleus             1
      mass                1.00794
  #
      l_hartree           6
  #
      cut_pot             4.0  2.0  1.0
      basis_dep_cutoff    1e-4
  #
      radial_base         24 7.0
      radial_multiplier   2
      angular_grids       specified
        division   0.1930   50
        division   0.3175  110
        division   0.4293  194
        division   0.5066  302
        division   0.5626  434
  #      division   0.5922  590
  #      division   0.6227  974
  #      division   0.6868 1202
  #      outer_grid  770
        outer_grid  434
  ################################################################################
  #
  #  Definition of "minimal" basis
  #
  ################################################################################
  #     valence basis states
      valence      1  s   1.
  #     ion occupancy
      ion_occ      1  s   0.5
  ################################################################################
  #
  #  Suggested additional basis functions. For production calculations,
  #  uncomment them one after another (the most important basis functions are
  #  listed first).
  #
  #  Basis constructed for dimers: 0.5 A, 0.7 A, 1.0 A, 1.5 A, 2.5 A
  #
  ################################################################################
  #  "First tier" - improvements: -1014.90 meV to -62.69 meV
       hydro 2 s 2.1
       hydro 2 p 3.5
  #  "Second tier" - improvements: -12.89 meV to -1.83 meV
       hydro 1 s 0.85
       hydro 2 p 3.7
       hydro 2 s 1.2
       hydro 3 d 7
  #  "Third tier" - improvements: -0.25 meV to -0.12 meV
  #     hydro 4 f 11.2
  #     hydro 3 p 4.8
  #     hydro 4 d 9
  #     hydro 3 s 3.2
  ################################################################################
  #
  # For methods that use the localized form of the "resolution of identity" for
  # the two-electron Coulomb operator (RI_method LVL), particularly Hartree-Fock and
  # hybrid density functional calculations, the highest accuracy can be obtained by
  # uncommenting the line beginning with "for_aux"  below, thus adding an extra g radial
  # function to the construction of the product basis set for the expansion.
  # See Ref. New J. Phys. 17, 093020 (2015) for more information, particularly Figs. 1 and 6.
  #
  ################################################################################
  #
  # for_aux hydro 5 g 6.0
  ################################################################################
  #
  #  FHI-aims code project
  # Volker Blum, Fritz Haber Institute Berlin, 2009
  #
  #  Suggested "tight" defaults for C atom (to be pasted into control.in file)
  #
  ################################################################################
    species        C
  #     global species definitions
      nucleus             6
      mass                12.0107
  #
      l_hartree           6
  #
      cut_pot             4.0  2.0  1.0
      basis_dep_cutoff    1e-4
  #
      radial_base         34 7.0
      radial_multiplier   2
      angular_grids specified
        division   0.2187   50
        division   0.4416  110
        division   0.6335  194
        division   0.7727  302
        division   0.8772  434
  #      division   0.9334  590
  #      division   0.9924  770
  #      division   1.0230  974
  #      division   1.5020 1202
  #     outer_grid  974
        outer_grid  434
  ################################################################################
  #
  #  Definition of "minimal" basis
  #
  ################################################################################
  #     valence basis states
      valence      2  s   2.
      valence      2  p   2.
  #     ion occupancy
      ion_occ      2  s   1.
      ion_occ      2  p   1.
  ################################################################################
  #
  #  Suggested additional basis functions. For production calculations,
  #  uncomment them one after another (the most important basis functions are
  #  listed first).
  #
  #  Constructed for dimers: 1.0 A, 1.25 A, 1.5 A, 2.0 A, 3.0 A
  #
  ################################################################################
  #  "First tier" - improvements: -1214.57 meV to -155.61 meV
       hydro 2 p 1.7
       hydro 3 d 6
       hydro 2 s 4.9
  #  "Second tier" - improvements: -67.75 meV to -5.23 meV
       hydro 4 f 9.8
       hydro 3 p 5.2
       hydro 3 s 4.3
       hydro 5 g 14.4
       hydro 3 d 6.2
  #  "Third tier" - improvements: -2.43 meV to -0.60 meV
  #     hydro 2 p 5.6
  #     hydro 2 s 1.4
  #     hydro 3 d 4.9
  #     hydro 4 f 11.2
  #  "Fourth tier" - improvements: -0.39 meV to -0.18 meV
  #     hydro 2 p 2.1
  #     hydro 5 g 16.4
  #     hydro 4 d 13.2
  #     hydro 3 s 13.6
  #     hydro 4 f 17.6
  #  Further basis functions - improvements: -0.08 meV and below
  #     hydro 3 s 2
  #     hydro 3 p 6
  #     hydro 4 d 20
  ################################################################################
  #
  # For methods that use the localized form of the "resolution of identity" for
  # the two-electron Coulomb operator (RI_method LVL), particularly Hartree-Fock and
  # hybrid density functional calculations, the highest accuracy can be obtained by
  # uncommenting the line beginning with "for_aux"  below, thus adding an extra g radial
  # function to the construction of the product basis set for the expansion.
  # See Ref. New J. Phys. 17, 093020 (2015) for more information, particularly Figs. 1 and 6.
  #
  ################################################################################
  #
  # for_aux hydro 5 g 6.0
  ################################################################################
  #
  #  FHI-aims code project
  # Volker Blum, Fritz Haber Institute Berlin, 2009
  #
  #  Suggested "tight" defaults for N atom (to be pasted into control.in file)
  #
  ################################################################################
    species        N
  #     global species definitions
      nucleus             7
      mass                14.0067
  #
      l_hartree           6
  #
      cut_pot             4.0  2.0  1.0
      basis_dep_cutoff    1e-4
  #
      radial_base         35 7.0
      radial_multiplier   2
      angular_grids       specified
        division   0.1841   50
        division   0.3514  110
        division   0.5126  194
        division   0.6292  302
        division   0.6939  434
  #      division   0.7396  590
  #      division   0.7632  770
  #      division   0.8122  974
  #      division   1.1604 1202
  #      outer_grid  974
        outer_grid  434
  ################################################################################
  #
  #  Definition of "minimal" basis
  #
  ################################################################################
  #     valence basis states
      valence      2  s   2.
      valence      2  p   3.
  #     ion occupancy
      ion_occ      2  s   1.
      ion_occ      2  p   2.
  ################################################################################
  #
  #  Suggested additional basis functions. For production calculations,
  #  uncomment them one after another (the most important basis functions are
  #  listed first).
  #
  #  Constructed for dimers: 1.0 A, 1.1 A, 1.5 A, 2.0 A, 3.0 A
  #
  ################################################################################
  #  "First tier" - improvements: -1193.42 meV to -220.60 meV
       hydro 2 p 1.8
       hydro 3 d 6.8
       hydro 3 s 5.8
  #  "Second tier" - improvements: -80.21 meV to -6.86 meV
       hydro 4 f 10.8
       hydro 3 p 5.8
       hydro 1 s 0.8
       hydro 5 g 16
       hydro 3 d 4.9
  #  "Third tier" - improvements: -4.29 meV to -0.53 meV
  #     hydro 3 s 16
  #     ionic 2 p auto
  #     hydro 3 d 6.6
  #     hydro 4 f 11.6
  #  "Fourth tier" - improvements: -0.75 meV to -0.25 meV
  #     hydro 2 p 4.5
  #     hydro 2 s 2.4
  #     hydro 5 g 14.4
  #     hydro 4 d 14.4
  #     hydro 4 f 16.8
  # Further basis functions - -0.21 meV and below
  #     hydro 3 p 14.8
  #     hydro 3 s 4.4
  #     hydro 3 d 19.6
  #     hydro 5 g 12.8
  ################################################################################
  #
  # For methods that use the localized form of the "resolution of identity" for
  # the two-electron Coulomb operator (RI_method LVL), particularly Hartree-Fock and
  # hybrid density functional calculations, the highest accuracy can be obtained by
  # uncommenting the line beginning with "for_aux"  below, thus adding an extra g radial
  # function to the construction of the product basis set for the expansion.
  # See Ref. New J. Phys. 17, 093020 (2015) for more information, particularly Figs. 1 and 6.
  #
  ################################################################################
  #
  # for_aux hydro 5 g 6.0
  ################################################################################
  #
  #  FHI-aims code project
  # Volker Blum, Fritz Haber Institute Berlin, 2009
  #
  #  Suggested "tight" defaults for O atom (to be pasted into control.in file)
  #
  ################################################################################
    species        O
  #     global species definitions
      nucleus             8
      mass                15.9994
  #
      l_hartree           6
  #
      cut_pot             4.0  2.0  1.0
      basis_dep_cutoff    1e-4
  #
      radial_base         36 7.0
      radial_multiplier   2
       angular_grids specified
        division   0.1817   50
        division   0.3417  110
        division   0.4949  194
        division   0.6251  302
        division   0.8014  434
  #      division   0.8507  590
  #      division   0.8762  770
  #      division   0.9023  974
  #      division   1.2339 1202
  #      outer_grid 974
        outer_grid  434
  ################################################################################
  #
  #  Definition of "minimal" basis
  #
  ################################################################################
  #     valence basis states
      valence      2  s   2.
      valence      2  p   4.
  #     ion occupancy
      ion_occ      2  s   1.
      ion_occ      2  p   3.
  ################################################################################
  #
  #  Suggested additional basis functions. For production calculations,
  #  uncomment them one after another (the most important basis functions are
  #  listed first).
  #
  #  Constructed for dimers: 1.0 A, 1.208 A, 1.5 A, 2.0 A, 3.0 A
  #
  ################################################################################
  #  "First tier" - improvements: -699.05 meV to -159.38 meV
       hydro 2 p 1.8
       hydro 3 d 7.6
       hydro 3 s 6.4
  #  "Second tier" - improvements: -49.91 meV to -5.39 meV
       hydro 4 f 11.6
       hydro 3 p 6.2
       hydro 3 d 5.6
       hydro 5 g 17.6
       hydro 1 s 0.75
  #  "Third tier" - improvements: -2.83 meV to -0.50 meV
  #     ionic 2 p auto
  #     hydro 4 f 10.8
  #     hydro 4 d 4.7
  #     hydro 2 s 6.8
  #  "Fourth tier" - improvements: -0.40 meV to -0.12 meV
  #     hydro 3 p 5
  #     hydro 3 s 3.3
  #     hydro 5 g 15.6
  #     hydro 4 f 17.6
  #     hydro 4 d 14
  # Further basis functions - -0.08 meV and below
  #     hydro 3 s 2.1
  #     hydro 4 d 11.6
  #     hydro 3 p 16
  #     hydro 2 s 17.2
  ################################################################################
  #
  # For methods that use the localized form of the "resolution of identity" for
  # the two-electron Coulomb operator (RI_method LVL), particularly Hartree-Fock and
  # hybrid density functional calculations, the highest accuracy can be obtained by
  # uncommenting the line beginning with "for_aux"  below, thus adding an extra g radial
  # function to the construction of the product basis set for the expansion.
  # See Ref. New J. Phys. 17, 093020 (2015) for more information, particularly Figs. 1 and 6.
  #
  ################################################################################
  #
  # for_aux hydro 5 g 6.0
  
  -----------------------------------------------------------------------
  Completed first pass over input file control.in .
  -----------------------------------------------------------------------
  
  
  -----------------------------------------------------------------------
  Parsing geometry.in (first pass over file, find array dimensions only).
  The contents of geometry.in will be repeated verbatim below
  unless switched off by setting 'verbatim_writeout .false.' .
  in the first line of geometry.in .
  -----------------------------------------------------------------------
  
  #
  # This is the geometry file that corresponds to the current relaxation step.
  # If you do not want this file to be written, set the "write_restart_geometry" flag to .false.
  #
  atom       0.18398028      0.69353321      0.49551499 C
  atom      -0.01431321      0.18280939      1.91640708 C
  atom       0.93867167     -0.09102767      2.64219105 O
  atom       1.25768587      0.69942381      0.29026768 H
  atom      -0.20209435      1.71722970      0.38031154 H
  atom      -0.31956033      0.06048118     -0.24821812 H
  atom      -1.30388083      0.05960871      2.35948253 N
  atom      -2.53496839      0.27589948      1.61715464 C
  atom      -3.59138005      0.74907993      2.63388451 C
  atom      -3.69884997      0.16496137      3.71101327 O
  atom      -1.42341117     -0.28693125      3.31061373 H
  atom      -2.35061572      1.04623192      0.85769629 H
  atom      -3.04509962     -1.00445946      0.92910792 C
  atom      -3.98180246     -0.82154836      0.38496939 H
  atom      -3.23171997     -1.77887848      1.68341481 H
  atom      -2.29694635     -1.37992985      0.21947852 H
  atom      -4.41104991      1.77956812      2.28807884 N
  atom      -4.33288113      2.68641622      1.15601114 C
  atom      -4.96725054      4.01324679      1.62244984 C
  atom      -5.82322823      4.02340496      2.50503137 O
  atom      -5.10921715      2.05155288      2.98419247 H
  atom      -3.27854346      2.86019734      0.89613482 H
  atom      -5.09384948      2.17174341     -0.08159959 C
  atom      -5.07128781      2.90006797     -0.90317452 H
  atom      -6.14153010      1.98111692      0.18256448 H
  atom      -4.65175605      1.23598478     -0.44421287 H
  atom      -4.57740902      5.14923150      0.98019860 N
  atom      -3.48941251      5.31337820      0.02768595 C
  atom      -5.04849633      5.98314411      1.31715670 H
  atom      -3.45507791      6.36490617     -0.27516089 H
  atom      -3.63894379      4.71404892     -0.88117297 H
  atom      -2.51147199      5.05866508      0.46316982 H
  
  -----------------------------------------------------------------------
  Completed first pass over input file geometry.in .
  -----------------------------------------------------------------------
  

  Basic array size parameters:
  | Number of species                 :        4
  | Number of atoms                   :       32
  | Max. basis fn. angular momentum   :        4
  | Max. atomic/ionic basis occupied n:        2
  | Max. number of basis fn. types    :        2
  | Max. radial fns per species/type  :        8
  | Max. logarithmic grid size        :     1301
  | Max. radial integration grid size :       73
  | Max. angular integration grid size:      434
  | Max. angular grid division number :        8
  | Radial grid for Hartree potential :     1301
  | Number of spin channels           :        1

------------------------------------------------------------
          Reading file control.in.
------------------------------------------------------------
  XC: Using PBE gradient-corrected functionals.
  Self-consistent screening and van der Waals energy (TS, TS+SCS,MBD) module
  Spin treatment: No spin polarisation.
  Charge =   0.000000E+00: Neutral system requested explicitly.
  Occupation type: Gaussian broadening, width =   0.500000E-01 eV.
  Using pulay charge density mixing.
  Pulay mixing - number of memorized iterations:   10
  Charge density mixing - mixing parameter:     0.5000
  Convergence accuracy of self-consistent charge density:  0.1000E-03
  Convergence accuracy of sum of eigenvalues:  0.1000E-01
  Convergence accuracy of total energy:  0.1000E-04
  Convergence accuracy of forces:  0.1000E-03
  Maximum number of s.-c. iterations  :  1000
  Fitting ESP-charges to Potential. 
  | Esp charge output options: 
  | ESP Grid method: 3, cubic grid
  | Number of points in x, ,y, z:  0080 0080 0080
  |
 
  Reading configuration options for species H                   .
  | Found nuclear charge :   1.0000
  | Found atomic mass :    1.00794000000000      amu
  | Found l_max for Hartree potential  :   6
  | Found cutoff potl. onset [A], width [A], scale factor :    4.00000    2.00000    1.00000
  | Threshold for basis-dependent cutoff potential is   0.100000E-03
  | Found data for basic radial integration grid :    24 points, outermost radius =    7.000 A
  | Found multiplier for basic radial grid :   2
  | Found angular grid specification: user-specified.
  | Specified grid contains     6 separate shells.
  | Check grid settings after all constraints further below.
  | Found free-atom valence shell :  1 s   1.000
  | No ionic wave fns used. Skipping ion_occ.
  | Found hydrogenic basis function :  2 s   2.100
  | Found hydrogenic basis function :  2 p   3.500
  | Found hydrogenic basis function :  1 s   0.850
  | Found hydrogenic basis function :  2 p   3.700
  | Found hydrogenic basis function :  2 s   1.200
  | Found hydrogenic basis function :  3 d   7.000
  Species H                   : Missing cutoff potential type.
  Defaulting to exp(1/x)/(1-x)^2 type cutoff potential.
  Species H : No 'logarithmic' tag. Using default grid for free atom:
  | Default logarithmic grid data [bohr] : 0.1000E-03 0.1000E+03 0.1012E+01
  Species H : On-site basis accuracy parameter (for Gram-Schmidt orthonormalisation) not specified.
  Using default value basis_acc =  0.1000000E-03.
  Species H                   : Using default innermost maximum threshold i_radial=  2 for radial functions.
  Species H                   : Default cutoff onset for free atom density etc. : 0.40000000E+01 AA.
  Species H                   : Basic radial grid will be enhanced according to radial_multiplier =   2, to contain    49 grid points.
 
  Reading configuration options for species C                   .
  | Found nuclear charge :   6.0000
  | Found atomic mass :    12.0107000000000      amu
  | Found l_max for Hartree potential  :   6
  | Found cutoff potl. onset [A], width [A], scale factor :    4.00000    2.00000    1.00000
  | Threshold for basis-dependent cutoff potential is   0.100000E-03
  | Found data for basic radial integration grid :    34 points, outermost radius =    7.000 A
  | Found multiplier for basic radial grid :   2
  | Found angular grid specification: user-specified.
  | Specified grid contains     6 separate shells.
  | Check grid settings after all constraints further below.
  | Found free-atom valence shell :  2 s   2.000
  | Found free-atom valence shell :  2 p   2.000
  | No ionic wave fns used. Skipping ion_occ.
  | No ionic wave fns used. Skipping ion_occ.
  | Found hydrogenic basis function :  2 p   1.700
  | Found hydrogenic basis function :  3 d   6.000
  | Found hydrogenic basis function :  2 s   4.900
  | Found hydrogenic basis function :  4 f   9.800
  | Found hydrogenic basis function :  3 p   5.200
  | Found hydrogenic basis function :  3 s   4.300
  | Found hydrogenic basis function :  5 g  14.400
  | Found hydrogenic basis function :  3 d   6.200
  Species C                   : Missing cutoff potential type.
  Defaulting to exp(1/x)/(1-x)^2 type cutoff potential.
  Species C : No 'logarithmic' tag. Using default grid for free atom:
  | Default logarithmic grid data [bohr] : 0.1000E-03 0.1000E+03 0.1012E+01
  Species C : On-site basis accuracy parameter (for Gram-Schmidt orthonormalisation) not specified.
  Using default value basis_acc =  0.1000000E-03.
  Species C                   : Using default innermost maximum threshold i_radial=  2 for radial functions.
  Species C                   : Default cutoff onset for free atom density etc. : 0.40000000E+01 AA.
  Species C                   : Basic radial grid will be enhanced according to radial_multiplier =   2, to contain    69 grid points.
 
  Reading configuration options for species N                   .
  | Found nuclear charge :   7.0000
  | Found atomic mass :    14.0067000000000      amu
  | Found l_max for Hartree potential  :   6
  | Found cutoff potl. onset [A], width [A], scale factor :    4.00000    2.00000    1.00000
  | Threshold for basis-dependent cutoff potential is   0.100000E-03
  | Found data for basic radial integration grid :    35 points, outermost radius =    7.000 A
  | Found multiplier for basic radial grid :   2
  | Found angular grid specification: user-specified.
  | Specified grid contains     6 separate shells.
  | Check grid settings after all constraints further below.
  | Found free-atom valence shell :  2 s   2.000
  | Found free-atom valence shell :  2 p   3.000
  | No ionic wave fns used. Skipping ion_occ.
  | No ionic wave fns used. Skipping ion_occ.
  | Found hydrogenic basis function :  2 p   1.800
  | Found hydrogenic basis function :  3 d   6.800
  | Found hydrogenic basis function :  3 s   5.800
  | Found hydrogenic basis function :  4 f  10.800
  | Found hydrogenic basis function :  3 p   5.800
  | Found hydrogenic basis function :  1 s   0.800
  | Found hydrogenic basis function :  5 g  16.000
  | Found hydrogenic basis function :  3 d   4.900
  Species N                   : Missing cutoff potential type.
  Defaulting to exp(1/x)/(1-x)^2 type cutoff potential.
  Species N : No 'logarithmic' tag. Using default grid for free atom:
  | Default logarithmic grid data [bohr] : 0.1000E-03 0.1000E+03 0.1012E+01
  Species N : On-site basis accuracy parameter (for Gram-Schmidt orthonormalisation) not specified.
  Using default value basis_acc =  0.1000000E-03.
  Species N                   : Using default innermost maximum threshold i_radial=  2 for radial functions.
  Species N                   : Default cutoff onset for free atom density etc. : 0.40000000E+01 AA.
  Species N                   : Basic radial grid will be enhanced according to radial_multiplier =   2, to contain    71 grid points.
 
  Reading configuration options for species O                   .
  | Found nuclear charge :   8.0000
  | Found atomic mass :    15.9994000000000      amu
  | Found l_max for Hartree potential  :   6
  | Found cutoff potl. onset [A], width [A], scale factor :    4.00000    2.00000    1.00000
  | Threshold for basis-dependent cutoff potential is   0.100000E-03
  | Found data for basic radial integration grid :    36 points, outermost radius =    7.000 A
  | Found multiplier for basic radial grid :   2
  | Found angular grid specification: user-specified.
  | Specified grid contains     6 separate shells.
  | Check grid settings after all constraints further below.
  | Found free-atom valence shell :  2 s   2.000
  | Found free-atom valence shell :  2 p   4.000
  | No ionic wave fns used. Skipping ion_occ.
  | No ionic wave fns used. Skipping ion_occ.
  | Found hydrogenic basis function :  2 p   1.800
  | Found hydrogenic basis function :  3 d   7.600
  | Found hydrogenic basis function :  3 s   6.400
  | Found hydrogenic basis function :  4 f  11.600
  | Found hydrogenic basis function :  3 p   6.200
  | Found hydrogenic basis function :  3 d   5.600
  | Found hydrogenic basis function :  5 g  17.600
  | Found hydrogenic basis function :  1 s   0.750
  Species O                   : Missing cutoff potential type.
  Defaulting to exp(1/x)/(1-x)^2 type cutoff potential.
  Species O : No 'logarithmic' tag. Using default grid for free atom:
  | Default logarithmic grid data [bohr] : 0.1000E-03 0.1000E+03 0.1012E+01
  Species O : On-site basis accuracy parameter (for Gram-Schmidt orthonormalisation) not specified.
  Using default value basis_acc =  0.1000000E-03.
  Species O                   : Using default innermost maximum threshold i_radial=  2 for radial functions.
  Species O                   : Default cutoff onset for free atom density etc. : 0.40000000E+01 AA.
  Species O                   : Basic radial grid will be enhanced according to radial_multiplier =   2, to contain    73 grid points.
 
  Finished reading input file 'control.in'. Consistency checks are next.
 
  Target number of points in a grid batch is not set. Defaulting to  100
  Method for grid partitioning is not set. Defaulting to parallel hash+maxmin partitioning.
  Batch size limit is not set. Defaulting to    200
  By default, will store active basis functions for each batch.
  If in need of memory, prune_basis_once .false. can be used to disable this option.
  communication_type for Hartree potential was not specified.
  Defaulting to calc_hartree .
  Pulay mixer: Number of initial linear mixing iterations not set.
  Defaulting to    0 iterations.
  Work space size for distributed Hartree potential not set.
  Defaulting to   0.200000E+03 MB.
  Algorithm-dependent basis array size parameters:
  | n_max_pulay                         :       10
  Geometry relaxation not requested: no relaxation will be performed.
  Handling of forces: Unphysical translation and rotation will be removed from forces.
  No accuracy limit for integral partition fn. given. Defaulting to  0.1000E-14.
  No threshold value for u(r) in integrations given. Defaulting to  0.1000E-05.
  No accuracy for occupation numbers given. Defaulting to  0.1000E-07.
  No threshold value for occupation numbers given. Defaulting to  0.0000E+00.
  No accuracy for fermi level given. Defaulting to  0.1000E-19.
  Maximum # of iterations to find E_F not set. Defaulting to  200.
  Preferred method for the eigenvalue solver ('KS_method') not specified in 'control.in'.
  Calling blacs routine to test compilation state
  Since scalapack support is enabled, defaulting to 'elpa'.
  Preferred method for the MBD eigenvalue solver ('mbd_eigensolver') not specified in 'control.in'.
  Calling blacs routine to test compilation state
  Since scalapack support is enabled, defaulting to 'scaLAPACK'.
  Will not use alltoall communication since running on < 1024 CPUs.
  Threshold for basis singularities not set.
  Default threshold for basis singularities:  0.1000E-04
  partition_type (choice of integration weights) for integrals was not specified.
  | Using a version of the partition function of Stratmann and coworkers ('stratmann_smoother').
  | At each grid point, the set of atoms used to build the partition table is smoothly restricted to
  | only those atoms whose free-atom density would be non-zero at that grid point.
  Partitioning for Hartree potential was not defined. Using partition_type for integrals.
  | Adjusted default value of keyword multip_moments_threshold to:       0.10000000E-11
  | This value may affect high angular momentum components of the Hartree potential in periodic systems.
  No q(lm)/r^(l+1) cutoff set for long-range Hartree potential.
  | Using default value of  0.100000E-09 .
  | Verify using the multipole_threshold keyword.
  Defaulting to new monopole extrapolation.
  Density update method: automatic selection selected.
------------------------------------------------------------


------------------------------------------------------------
          Reading geometry description geometry.in.
------------------------------------------------------------
 * Warning! You did not set the 'relativistic' flag in input file 'control.in'.
 * Since you are not attempting to treat any elements beyond Ca(Z=20), FHI-aims
 * will default to 'relativistic none'.
 * You must ensure that this is really what you want!!
 * For example, DO NOT compute total-energy differences between results from
 * different settings of the 'relativistic' flag.
  Input structure read successfully.
  The structure contains       32 atoms,  and a total of        116.000 electrons.

  Input geometry:
  | No unit cell requested.
  | Atomic structure:
  |       Atom                x [A]            y [A]            z [A]
  |    1: Species C              0.183980         0.693533         0.495515
  |    2: Species C             -0.014313         0.182809         1.916407
  |    3: Species O              0.938672        -0.091028         2.642191
  |    4: Species H              1.257686         0.699424         0.290268
  |    5: Species H             -0.202094         1.717230         0.380312
  |    6: Species H             -0.319560         0.060481        -0.248218
  |    7: Species N             -1.303881         0.059609         2.359483
  |    8: Species C             -2.534968         0.275899         1.617155
  |    9: Species C             -3.591380         0.749080         2.633885
  |   10: Species O             -3.698850         0.164961         3.711013
  |   11: Species H             -1.423411        -0.286931         3.310614
  |   12: Species H             -2.350616         1.046232         0.857696
  |   13: Species C             -3.045100        -1.004459         0.929108
  |   14: Species H             -3.981802        -0.821548         0.384969
  |   15: Species H             -3.231720        -1.778878         1.683415
  |   16: Species H             -2.296946        -1.379930         0.219479
  |   17: Species N             -4.411050         1.779568         2.288079
  |   18: Species C             -4.332881         2.686416         1.156011
  |   19: Species C             -4.967251         4.013247         1.622450
  |   20: Species O             -5.823228         4.023405         2.505031
  |   21: Species H             -5.109217         2.051553         2.984192
  |   22: Species H             -3.278543         2.860197         0.896135
  |   23: Species C             -5.093849         2.171743        -0.081600
  |   24: Species H             -5.071288         2.900068        -0.903175
  |   25: Species H             -6.141530         1.981117         0.182564
  |   26: Species H             -4.651756         1.235985        -0.444213
  |   27: Species N             -4.577409         5.149231         0.980199
  |   28: Species C             -3.489413         5.313378         0.027686
  |   29: Species H             -5.048496         5.983144         1.317157
  |   30: Species H             -3.455078         6.364906        -0.275161
  |   31: Species H             -3.638944         4.714049        -0.881173
  |   32: Species H             -2.511472         5.058665         0.463170
  |

  | The smallest distance between any two atoms is         1.01531978 AA.
  |
  | The first atom of this pair is atom number                     27 .
  | The second atom of this pair is atom number                    29 .

  Number of empty states per atom not set in control.in - providing a guess from actual geometry.
  | Total number of empty states used during s.c.f. cycle:       71
  If you use a very high smearing, use empty_states (per atom!) in control.in to increase this value.

  Structure-dependent array size parameters: 
  | Maximum number of distinct radial functions  :       40
  | Maximum number of basis functions            :      840
  | Number of Kohn-Sham states (occupied + empty):      129
------------------------------------------------------------

------------------------------------------------------------
          Preparing all fixed parts of the calculation.
------------------------------------------------------------
  Determining machine precision:
    2.225073858507201E-308
  Setting up grids for atomic and cluster calculations.

  Creating wave function, potential, and density for free atoms.

  Species: H

  List of occupied orbitals and eigenvalues:
    n    l              occ      energy [Ha]    energy [eV]
    1    0           1.0000        -0.238382        -6.4867


  Species: C

  List of occupied orbitals and eigenvalues:
    n    l              occ      energy [Ha]    energy [eV]
    1    0           2.0000       -10.041232      -273.2358
    2    0           2.0000        -0.504327       -13.7234
    2    1           2.0000        -0.193750        -5.2722


  Species: N

  List of occupied orbitals and eigenvalues:
    n    l              occ      energy [Ha]    energy [eV]
    1    0           2.0000       -14.129007      -384.4699
    2    0           2.0000        -0.681802       -18.5528
    2    1           3.0000        -0.260543        -7.0897


  Species: O

  List of occupied orbitals and eigenvalues:
    n    l              occ      energy [Ha]    energy [eV]
    1    0           2.0000       -18.898576      -514.2564
    2    0           2.0000        -0.878795       -23.9132
    2    1           4.0000        -0.332075        -9.0362

  Creating fixed part of basis set: Ionic, confined, hydrogenic.
 
  H                    hydrogenic:
 
  List of hydrogenic basis orbitals: 
    n    l      effective z      eigenvalue [eV]  inner max. [A]     outer max. [A]     outer radius [A]   
    2    0         2.100000       -14.9965           0.193243           1.317208           5.373006
    2    1         3.500000       -41.6672           0.602369           0.602369           4.056063
    1    0         0.850000        -9.8292           0.624871           0.624871           5.373006
    2    1         3.700000       -46.5653           0.573622           0.573622           3.910002
    2    0         1.200000        -4.5995           0.334980           2.228188           5.505995
    3    2         7.000000       -74.0753           0.680699           0.680699           3.769201
 
 
  C                    hydrogenic:
 
  List of hydrogenic basis orbitals: 
    n    l      effective z      eigenvalue [eV]  inner max. [A]     outer max. [A]     outer radius [A]   
    2    1         1.700000        -9.8152           1.245706           1.245706           5.401630
    3    2         6.000000       -54.4226           0.792453           0.792453           4.178599
    2    0         4.900000       -81.6681           0.082559           0.562749           3.353238
    4    3         9.800000       -81.6681           0.863254           0.863254           4.028125
    3    1         5.200000       -40.8774           0.305389           1.215618           4.898362
    3    0         4.300000       -27.9508           0.091041           1.610311           5.401630
    5    4        14.400000      -112.8510           0.917666           0.917666           3.883070
    3    2         6.200000       -58.1113           0.763917           0.763917           4.077671
 
 
  N                    hydrogenic:
 
  List of hydrogenic basis orbitals: 
    n    l      effective z      eigenvalue [eV]  inner max. [A]     outer max. [A]     outer radius [A]   
    2    1         1.800000       -11.0118           1.177451           1.177451           5.427479
    3    2         6.800000       -69.9029           0.704619           0.704619           3.854246
    3    0         5.800000       -50.8549           0.067388           1.191934           4.629968
    4    3        10.800000       -99.1854           0.786571           0.786571           3.761152
    3    1         5.800000       -50.8549           0.274880           1.094176           4.518138
    1    0         0.800000        -8.7059           0.662839           0.662839           5.361532
    5    4        16.000000      -139.3222           0.825990           0.825990           3.625711
    3    2         4.900000       -36.2967           0.968267           0.968267           4.862000
 
 
  O                    hydrogenic:
 
  List of hydrogenic basis orbitals: 
    n    l      effective z      eigenvalue [eV]  inner max. [A]     outer max. [A]     outer radius [A]   
    2    1         1.800000       -11.0118           1.178562           1.178562           5.432602
    3    2         7.600000       -87.3182           0.624125           0.624125           3.541477
    3    0         6.400000       -61.9209           0.061167           1.081902           4.306578
    4    3        11.600000      -114.4238           0.731631           0.731631           3.585037
    3    1         6.200000       -58.1113           0.255680           1.030270           4.306578
    3    2         5.600000       -47.4081           0.847233           0.847233           4.413171
    5    4        17.600000      -168.5799           0.749740           0.749740           3.372465
    1    0         0.750000        -7.6499           0.705284           0.705284           5.366593
 

  Adding cutoff potential to free-atom effective potential.
  Creating atomic-like basis functions for current effective potential.

  Species H                   :

  List of atomic basis orbitals and eigenvalues:
    n    l      energy [Ha]    energy [eV]    outer radius [A]
    1    0        -0.238382        -6.4867       5.373006


  Species C                   :

  List of atomic basis orbitals and eigenvalues:
    n    l      energy [Ha]    energy [eV]    outer radius [A]
    1    0       -10.041232      -273.2358       1.934409
    2    0        -0.504327       -13.7234       5.271162
    2    1        -0.193750        -5.2722       5.401630


  Species N                   :

  List of atomic basis orbitals and eigenvalues:
    n    l      energy [Ha]    energy [eV]    outer radius [A]
    1    0       -14.129007      -384.4699       1.637919
    2    0        -0.681802       -18.5528       5.168461
    2    1        -0.260543        -7.0897       5.361532


  Species O                   :

  List of atomic basis orbitals and eigenvalues:
    n    l      energy [Ha]    energy [eV]    outer radius [A]
    1    0       -18.898576      -514.2564       1.415765
    2    0        -0.878795       -23.9132       5.048385
    2    1        -0.332075        -9.0362       5.301386

  Assembling full basis from fixed parts.
  | Species H :   atomic orbital   1 s accepted.
  | Species H :    hydro orbital   2 s accepted.
  | Species H :    hydro orbital   1 s accepted.
  | Species H :    hydro orbital   2 s accepted.
  | Species H :    hydro orbital   2 p accepted.
  | Species H :    hydro orbital   2 p accepted.
  | Species H :    hydro orbital   3 d accepted.
  | Species C :   atomic orbital   1 s accepted.
  | Species C :    hydro orbital   2 s accepted.
  | Species C :   atomic orbital   2 s accepted.
  | Species C :    hydro orbital   3 s accepted.
  | Species C :    hydro orbital   3 p accepted.
  | Species C :   atomic orbital   2 p accepted.
  | Species C :    hydro orbital   2 p accepted.
  | Species C :    hydro orbital   3 d accepted.
  | Species C :    hydro orbital   3 d accepted.
  | Species C :    hydro orbital   4 f accepted.
  | Species C :    hydro orbital   5 g accepted.
  | Species N :   atomic orbital   1 s accepted.
  | Species N :    hydro orbital   3 s accepted.
  | Species N :   atomic orbital   2 s accepted.
  | Species N :    hydro orbital   1 s accepted.
  | Species N :    hydro orbital   3 p accepted.
  | Species N :   atomic orbital   2 p accepted.
  | Species N :    hydro orbital   2 p accepted.
  | Species N :    hydro orbital   3 d accepted.
  | Species N :    hydro orbital   3 d accepted.
  | Species N :    hydro orbital   4 f accepted.
  | Species N :    hydro orbital   5 g accepted.
  | Species O :   atomic orbital   1 s accepted.
  | Species O :    hydro orbital   3 s accepted.
  | Species O :   atomic orbital   2 s accepted.
  | Species O :    hydro orbital   1 s accepted.
  | Species O :    hydro orbital   3 p accepted.
  | Species O :   atomic orbital   2 p accepted.
  | Species O :    hydro orbital   2 p accepted.
  | Species O :    hydro orbital   3 d accepted.
  | Species O :    hydro orbital   3 d accepted.
  | Species O :    hydro orbital   4 f accepted.
  | Species O :    hydro orbital   5 g accepted.
 
  Basis size parameters after reduction:
  | Total number of radial functions:       40
  | Total number of basis functions :      840
 
  Testing on-site integration grid accuracy.
  |  Species  Function  <phi|h_atom|phi> (log., in eV)  <phi|h_atom|phi> (rad., in eV)
           1        1                 -6.4869821809                 -6.4870742227
           1        2                 13.5044133542                 13.5041049177
           1        3                 32.7854418792                 32.7779770519
           1        4                 33.7995553101                 33.7152624900 ***
           1        5                 28.8558651799                 28.8558652046
           1        6                 59.6361831893                 59.6362535845
           1        7                 60.2733718049                 60.2733715484
           2        8               -273.2358277112               -273.2358261765
           2        9                -10.7624923123                -10.7625144012
           2       10                 17.4634079027                 17.4634252127
           2       11                 53.0363661832                 53.0366180446
           2       12                 15.0981351967                 15.0981317714
           2       13                  3.8522181899                  3.8522770949
           2       14                 12.1181835661                 12.1206868578
           2       15                 29.4320778347                 29.4320780959
           2       16                 54.8753777694                 54.8752901936
           2       17                 59.3533975461                 59.3533974833
           2       18                 93.4537491195                 93.4537492066
           3       19               -384.4698526889               -384.4698499465
           3       20                 12.5691022037                 12.5690910168
           3       21                -15.7489097511                -15.7489165588
           3       22                 27.0978334940                 27.0985589490
           3       23                 18.5949116966                 18.5949125562
           3       24                  1.2212828291                  1.2212855301
           3       25                 13.4428926797                 13.4434051125
           3       26                 35.9380614500                 35.9380613666
           3       27                 39.9231532098                 39.9231654735
           3       28                 72.9957335806                 72.9957336833
           3       29                116.4231321147                116.4231321431
           4       30               -514.2564144315               -514.2564099626
           4       31                 15.1726678541                 15.1726530877
           4       32                -21.5447785304                -21.5447874973
           4       33                 14.4944558459                 14.4944698284
           4       34                 20.8882174564                 20.8882178906
           4       35                 -2.4850315908                 -2.4850322289
           4       36                 13.8600193195                 13.8599826966
           4       37                 45.8243383616                 45.8243383675
           4       38                 52.1840606465                 52.1840622440
           4       39                 85.4074185510                 85.4074185819
           4       40                142.0983717302                142.0983717339
 * Note: Onsite integrals marked "***" above are less accurate than
 * onsite_accuracy_threshold =    0.03000 eV. Usually, this is harmless.
 * When in doubt, tighten the "radial" and/or "radial_multiplier" flags to check.

  Preparing densities etc. for the partition functions (integrals / Hartree potential).

  Preparations completed.
  max(cpu_time)          :      0.240 s.
  Wall clock time (cpu1) :      0.237 s.
------------------------------------------------------------

------------------------------------------------------------
          Begin self-consistency loop: Initialization.

          Date     :  20170309, Time     :  175556.561
------------------------------------------------------------

  Initializing index lists of integration centers etc. from given atomic structure:
  | Number of centers in hartree potential         :        32
  | Number of centers in hartree multipole         :        32
  | Number of centers in electron density summation:        32
  | Number of centers in basis integrals           :        32
  | Number of centers in integrals                 :        32
  | Number of centers in hamiltonian               :        32
  Using modified Scalapack Eigenvalue solver (ELPA)
  * Using 32 tasks for Scalapack Eigenvalue solver.
  Detailed listing of tasks and assigned k-points:
  (for non-periodic systems, the "k-point" denotes an internal label only)
   Task     0 k-point     1 on eos383
   Task     1 k-point     1 on eos383
   Task     2 k-point     1 on eos383
   Task     3 k-point     1 on eos383
   Task     4 k-point     1 on eos383
   Task     5 k-point     1 on eos383
   Task     6 k-point     1 on eos383
   Task     7 k-point     1 on eos383
   Task     8 k-point     1 on eos383
   Task     9 k-point     1 on eos383
   Task    10 k-point     1 on eos383
   Task    11 k-point     1 on eos383
   Task    12 k-point     1 on eos383
   Task    13 k-point     1 on eos383
   Task    14 k-point     1 on eos383
   Task    15 k-point     1 on eos383
   Task    16 k-point     1 on eos383
   Task    17 k-point     1 on eos383
   Task    18 k-point     1 on eos383
   Task    19 k-point     1 on eos383
   Task    20 k-point     1 on eos383
   Task    21 k-point     1 on eos383
   Task    22 k-point     1 on eos383
   Task    23 k-point     1 on eos383
   Task    24 k-point     1 on eos383
   Task    25 k-point     1 on eos383
   Task    26 k-point     1 on eos383
   Task    27 k-point     1 on eos383
   Task    28 k-point     1 on eos383
   Task    29 k-point     1 on eos383
   Task    30 k-point     1 on eos383
   Task    31 k-point     1 on eos383
  Tasks:    32 split into      8 X      4 BLACS grid
  Calculating blocksize based on n_basis =          840 max_nprow =            8 max_npcol =            4
  Scalapack blocksize set to:           16
  Required Scalapack workspace - INTEGER:            1 REAL:             1
  Partitioning the integration grid into batches with parallel hashing+maxmin method.
  | Number of batches:     4764
  | Maximal batch size:     200
  | Minimal batch size:       9
  | Average batch size:     110.774
  | Standard deviation of batch sizes:      37.092

  Integration load balanced across    32 MPI tasks.
  Work distribution over tasks is as follows:
  Task     0 has      16549 integration points.
  Task     1 has      16505 integration points.
  Task     2 has      16528 integration points.
  Task     3 has      16509 integration points.
  Task     4 has      16412 integration points.
  Task     5 has      16456 integration points.
  Task     6 has      16414 integration points.
  Task     7 has      16522 integration points.
  Task     8 has      16460 integration points.
  Task     9 has      16515 integration points.
  Task    10 has      16556 integration points.
  Task    11 has      16558 integration points.
  Task    12 has      16483 integration points.
  Task    13 has      16492 integration points.
  Task    14 has      16533 integration points.
  Task    15 has      16487 integration points.
  Task    16 has      16464 integration points.
  Task    17 has      16517 integration points.
  Task    18 has      16524 integration points.
  Task    19 has      16509 integration points.
  Task    20 has      16462 integration points.
  Task    21 has      16416 integration points.
  Task    22 has      16410 integration points.
  Task    23 has      16460 integration points.
  Task    24 has      16518 integration points.
  Task    25 has      16528 integration points.
  Task    26 has      16417 integration points.
  Task    27 has      16471 integration points.
  Task    28 has      16526 integration points.
  Task    29 has      16478 integration points.
  Task    30 has      16528 integration points.
  Task    31 has      16521 integration points.
  Initializing partition tables, free-atom densities, potentials, etc. across the integration grid (initialize_grid_storage).
  | initialize_grid_storage: Actual outermost partition radius vs. multipole_radius_free
  | (-- VB: in principle, multipole_radius_free should be larger, hence this output)
  | Species        1: Confinement radius =              6.000000000000000 AA, multipole_radius_free =              6.071692442739658 AA.
  | Species        1: outer_partition_radius set to              6.071692442739658 AA .
  | Species        2: Confinement radius =              6.000000000000000 AA, multipole_radius_free =              6.029870734432609 AA.
  | Species        2: outer_partition_radius set to              6.029870734432609 AA .
  | Species        3: Confinement radius =              6.000000000000000 AA, multipole_radius_free =              6.058726835495003 AA.
  | Species        3: outer_partition_radius set to              6.058726835495003 AA .
  | Species        4: Confinement radius =              6.000000000000000 AA, multipole_radius_free =              6.064445521808699 AA.
  | Species        4: outer_partition_radius set to              6.064445521808699 AA .
  | Original list of interatomic distances with          32 x         32 entries is created.
  | Net number of integration points:   527728
  | of which are non-zero points    :   415880
  Obtaining max. number of non-zero basis functions in each batch (get_n_compute_maxes).
  | Maximal number of non-zero basis functions:      769 in task     0
  | Maximal number of non-zero basis functions:      766 in task     1
  | Maximal number of non-zero basis functions:      778 in task     2
  | Maximal number of non-zero basis functions:      753 in task     3
  | Maximal number of non-zero basis functions:      755 in task     4
  | Maximal number of non-zero basis functions:      779 in task     5
  | Maximal number of non-zero basis functions:      768 in task     6
  | Maximal number of non-zero basis functions:      780 in task     7
  | Maximal number of non-zero basis functions:      772 in task     8
  | Maximal number of non-zero basis functions:      780 in task     9
  | Maximal number of non-zero basis functions:      772 in task    10
  | Maximal number of non-zero basis functions:      767 in task    11
  | Maximal number of non-zero basis functions:      778 in task    12
  | Maximal number of non-zero basis functions:      769 in task    13
  | Maximal number of non-zero basis functions:      778 in task    14
  | Maximal number of non-zero basis functions:      781 in task    15
  | Maximal number of non-zero basis functions:      769 in task    16
  | Maximal number of non-zero basis functions:      789 in task    17
  | Maximal number of non-zero basis functions:      774 in task    18
  | Maximal number of non-zero basis functions:      759 in task    19
  | Maximal number of non-zero basis functions:      765 in task    20
  | Maximal number of non-zero basis functions:      773 in task    21
  | Maximal number of non-zero basis functions:      768 in task    22
  | Maximal number of non-zero basis functions:      774 in task    23
  | Maximal number of non-zero basis functions:      779 in task    24
  | Maximal number of non-zero basis functions:      780 in task    25
  | Maximal number of non-zero basis functions:      768 in task    26
  | Maximal number of non-zero basis functions:      780 in task    27
  | Maximal number of non-zero basis functions:      767 in task    28
  | Maximal number of non-zero basis functions:      773 in task    29
  | Maximal number of non-zero basis functions:      778 in task    30
  | Maximal number of non-zero basis functions:      760 in task    31
  Selecting the method for density update.
  Loop over occupied states selected for charge density update.
  Integrating Hamiltonian matrix: batch-based integration.
  Time summed over all CPUs for integration: real work       20.781 s, elapsed       21.867 s
  Integrating overlap matrix.
  Time summed over all CPUs for integration: real work       12.585 s, elapsed       13.026 s
  Deallocating overlap matrix.

  Updating Kohn-Sham eigenvalues, eigenvectors, occupation numbers, and Fermi level.
  Solving generalized eigenproblem
  Solving real symmetric generalised eigenvalue problem by standard ScaLAPACK.
  Transforming overlap matrix with ScaLAPACK and checking for singularities.
  : Overlap matrix is nonsingular, using Cholesky decomposition
  | Lowest eigenvalue:  0.999936E-04
  Factoring overlap matrix with Cholesky decomposition
  Using Cholesky factor for transformation
  Using 1-stage real ELPA solver
  Determining occupation numbers for Kohn-Sham eigenstates.
  | Chemical potential (Fermi level) in eV                 : -.95252940E+01
  | Error in electron count due to remaining E_F inaccuracy: 0.00000000E+00
  | Maximum occupation number of highest empty state:  0.00E+00

  Writing Kohn-Sham eigenvalues.

  State    Occupation    Eigenvalue [Ha]    Eigenvalue [eV]
      1       2.00000         -18.974556         -516.32394
      2       2.00000         -18.974032         -516.30968
      3       2.00000         -18.973837         -516.30436
      4       2.00000         -14.255336         -387.90744
      5       2.00000         -14.254859         -387.89444
      6       2.00000         -14.254087         -387.87344
      7       2.00000         -10.170450         -276.75203
      8       2.00000         -10.170089         -276.74220
      9       2.00000         -10.170027         -276.74050
     10       2.00000         -10.166515         -276.64496
     11       2.00000         -10.149065         -276.17010
     12       2.00000         -10.148675         -276.15949
     13       2.00000         -10.135612         -275.80404
     14       2.00000         -10.135091         -275.78985
     15       2.00000         -10.134934         -275.78558
     16       2.00000          -1.135267          -30.89219
     17       2.00000          -1.131837          -30.79885
     18       2.00000          -1.128875          -30.71825
     19       2.00000          -1.015996          -27.64667
     20       2.00000          -1.013138          -27.56890
     21       2.00000          -1.011932          -27.53606
     22       2.00000          -0.880299          -23.95415
     23       2.00000          -0.873622          -23.77247
     24       2.00000          -0.846102          -23.02361
     25       2.00000          -0.816669          -22.22269
     26       2.00000          -0.779829          -21.22024
     27       2.00000          -0.766914          -20.86880
     28       2.00000          -0.704843          -19.17976
     29       2.00000          -0.690180          -18.78074
     30       2.00000          -0.678290          -18.45722
     31       2.00000          -0.625821          -17.02945
     32       2.00000          -0.625665          -17.02520
     33       2.00000          -0.608953          -16.57046
     34       2.00000          -0.603018          -16.40895
     35       2.00000          -0.586028          -15.94664
     36       2.00000          -0.580532          -15.79707
     37       2.00000          -0.575541          -15.66128
     38       2.00000          -0.566984          -15.42842
     39       2.00000          -0.557685          -15.17537
     40       2.00000          -0.554755          -15.09565
     41       2.00000          -0.550002          -14.96630
     42       2.00000          -0.545837          -14.85297
     43       2.00000          -0.536229          -14.59153
     44       2.00000          -0.527128          -14.34389
     45       2.00000          -0.523036          -14.23253
     46       2.00000          -0.514463          -13.99924
     47       2.00000          -0.509459          -13.86308
     48       2.00000          -0.499728          -13.59829
     49       2.00000          -0.492036          -13.38897
     50       2.00000          -0.488030          -13.27997
     51       2.00000          -0.481094          -13.09124
     52       2.00000          -0.480565          -13.07685
     53       2.00000          -0.406514          -11.06181
     54       2.00000          -0.401845          -10.93476
     55       2.00000          -0.400032          -10.88543
     56       2.00000          -0.390257          -10.61943
     57       2.00000          -0.384087          -10.45153
     58       2.00000          -0.382158          -10.39905
     59       0.00000          -0.170421           -4.63740
     60       0.00000          -0.159996           -4.35371
     61       0.00000          -0.150650           -4.09938
     62       0.00000          -0.087670           -2.38562
     63       0.00000          -0.065733           -1.78869
     64       0.00000          -0.059648           -1.62311
     65       0.00000          -0.052928           -1.44025
     66       0.00000          -0.047792           -1.30047
     67       0.00000          -0.041273           -1.12311
     68       0.00000          -0.037804           -1.02871
     69       0.00000          -0.029346           -0.79856
     70       0.00000          -0.025999           -0.70748
     71       0.00000          -0.021634           -0.58869
     72       0.00000          -0.016775           -0.45648
     73       0.00000          -0.009884           -0.26895
     74       0.00000          -0.009232           -0.25122
     75       0.00000          -0.006978           -0.18987
     76       0.00000          -0.002127           -0.05789
     77       0.00000           0.003294            0.08964
     78       0.00000           0.008122            0.22101
     79       0.00000           0.013590            0.36981
     80       0.00000           0.020227            0.55041
     81       0.00000           0.023726            0.64561
     82       0.00000           0.028332            0.77095
     83       0.00000           0.041252            1.12253
     84       0.00000           0.043827            1.19258
     85       0.00000           0.044507            1.21110
     86       0.00000           0.050465            1.37321
     87       0.00000           0.057874            1.57484
     88       0.00000           0.061527            1.67423
     89       0.00000           0.068077            1.85246
     90       0.00000           0.073197            1.99180
     91       0.00000           0.082761            2.25203
     92       0.00000           0.086844            2.36314
     93       0.00000           0.090809            2.47105
     94       0.00000           0.096689            2.63103
     95       0.00000           0.100245            2.72779
     96       0.00000           0.103556            2.81789
     97       0.00000           0.104672            2.84828
     98       0.00000           0.109549            2.98099
     99       0.00000           0.121505            3.30633
    100       0.00000           0.122671            3.33804
    101       0.00000           0.126352            3.43820
    102       0.00000           0.135431            3.68528
    103       0.00000           0.140502            3.82326
    104       0.00000           0.146086            3.97520
    105       0.00000           0.147185            4.00510
    106       0.00000           0.149992            4.08150
    107       0.00000           0.155376            4.22801
    108       0.00000           0.157934            4.29761
    109       0.00000           0.166007            4.51727
    110       0.00000           0.171525            4.66744
    111       0.00000           0.175277            4.76952
    112       0.00000           0.178993            4.87066
    113       0.00000           0.180561            4.91332
    114       0.00000           0.186399            5.07219
    115       0.00000           0.191001            5.19740
    116       0.00000           0.199455            5.42746
    117       0.00000           0.207153            5.63693
    118       0.00000           0.210487            5.72764
    119       0.00000           0.212207            5.77445
    120       0.00000           0.221742            6.03391
    121       0.00000           0.230699            6.27763
    122       0.00000           0.233382            6.35065
    123       0.00000           0.236696            6.44083
    124       0.00000           0.241665            6.57604
    125       0.00000           0.246075            6.69603
    126       0.00000           0.250956            6.82886
    127       0.00000           0.257103            6.99614
    128       0.00000           0.263813            7.17871
    129       0.00000           0.271503            7.38796

  Highest occupied state (VBM) at    -10.39905168 eV
  | Occupation number:      2.00000000

  Lowest unoccupied state (CBM) at    -4.63740058 eV
  | Occupation number:      0.00000000

  Overall HOMO-LUMO gap:      5.76165110 eV.
  Calculating total energy contributions from superposition of free atom densities.

  Total energy components:
  | Sum of eigenvalues            :        -437.87687582 Ha      -11915.23603168 eV
  | XC energy correction          :         -98.82403756 Ha       -2689.13888387 eV
  | XC potential correction       :         127.02662242 Ha        3456.57026429 eV
  | Free-atom electrostatic energy:        -333.60586273 Ha       -9077.87740223 eV
  | Hartree energy correction     :           0.00000000 Ha           0.00000000 eV
  | MBD@rsSCS energy              :           0.00000000 Ha           0.00000000 eV
  | Entropy correction            :          -0.00000000 Ha          -0.00000000 eV
  | ---------------------------
  | Total energy                  :        -743.28015370 Ha      -20225.68205349 eV
  | Total energy, T -> 0          :        -743.28015370 Ha      -20225.68205349 eV  <-- do not rely on this value for anything but (periodic) metals
  | Electronic free energy        :        -743.28015370 Ha      -20225.68205349 eV

  Derived energy quantities:
  | Kinetic energy                :         735.17715994 Ha       20005.18837484 eV
  | Electrostatic energy          :       -1379.63327608 Ha      -37541.73154446 eV
  | Energy correction for multipole
  | error in Hartree potential    :           0.00000000 Ha           0.00000000 eV
  | Sum of eigenvalues per atom                           :        -372.35112599 eV
  | Total energy (T->0) per atom                          :        -632.05256417 eV  <-- do not rely on this value for anything but (periodic) metals
  | Electronic free energy per atom                       :        -632.05256417 eV
  Initialize hartree_potential_storage
  Max. number of atoms included in rho_multipole:           32

  End scf initialization - timings             :  max(cpu_time)    wall_clock(cpu1)
  | Time for scf. initialization               :        1.824 s           1.823 s
  | Boundary condition initialization          :        0.004 s           0.000 s
  | Integration                                :        1.112 s           1.112 s
  | Solution of K.-S. eqns.                    :        0.076 s           0.074 s
  | Grid partitioning                          :        0.304 s           0.294 s
  | Preloading free-atom quantities on grid    :        0.028 s           0.028 s
  | Free-atom superposition energy             :        0.040 s           0.038 s
  | Total energy evaluation                    :        0.004 s           0.001 s
------------------------------------------------------------

------------------------------------------------------------
          Begin self-consistency iteration #    1

  Date     :  20170309, Time     :  175558.385
------------------------------------------------------------
  Evaluating new KS density.
  Integration grid: deviation in total charge (<rho> - N_e) =   2.842171E-14
  Pulay mixing of updated and previous charge densities.

  Evaluating partitioned Hartree potential by multipole expansion.
  | Analytical far-field extrapolation by fixed multipoles:
  | Hartree multipole sum: apparent total charge =  -0.639642E-04
  Summing up the Hartree potential.
  Time summed over all CPUs for potential: real work        9.536 s, elapsed        9.824 s
  | RMS charge density error from multipole expansion :   0.107143E-01

  Integrating Hamiltonian matrix: batch-based integration.
  Time summed over all CPUs for integration: real work       20.582 s, elapsed       21.432 s

  Updating Kohn-Sham eigenvalues, eigenvectors, occupation numbers, and Fermi level.
  Solving generalized eigenproblem
  Solving real symmetric generalised eigenvalue problem by standard ScaLAPACK.
  Using Cholesky factor for transformation
  Using 2-stage real ELPA solver
  K-Point:    1, Trafo times: 1-stage=     0.021 s, 2-stage=     0.019 s ==> Using 2-stage solver
  Determining occupation numbers for Kohn-Sham eigenstates.
  | Chemical potential (Fermi level) in eV                 : -.41030182E+01
  | Error in electron count due to remaining E_F inaccuracy: 0.00000000E+00
  | Maximum occupation number of highest empty state:  0.00E+00

  Writing Kohn-Sham eigenvalues.

  State    Occupation    Eigenvalue [Ha]    Eigenvalue [eV]
      1       2.00000         -18.632876         -507.02635
      2       2.00000         -18.618184         -506.62657
      3       2.00000         -18.598621         -506.09421
      4       2.00000         -14.001727         -381.00638
      5       2.00000         -13.993262         -380.77603
      6       2.00000         -13.977079         -380.33567
      7       2.00000         -10.067511         -273.95092
      8       2.00000         -10.060608         -273.76306
      9       2.00000         -10.044476         -273.32410
     10       2.00000          -9.980516         -271.58365
     11       2.00000          -9.969318         -271.27895
     12       2.00000          -9.913436         -269.75833
     13       2.00000          -9.852278         -268.09413
     14       2.00000          -9.849407         -268.01599
     15       2.00000          -9.840129         -267.76354
     16       2.00000          -0.978927          -26.63795
     17       2.00000          -0.964641          -26.24922
     18       2.00000          -0.945513          -25.72871
     19       2.00000          -0.875405          -23.82098
     20       2.00000          -0.871050          -23.70246
     21       2.00000          -0.856956          -23.31895
     22       2.00000          -0.741769          -20.18455
     23       2.00000          -0.726394          -19.76619
     24       2.00000          -0.695691          -18.93073
     25       2.00000          -0.690692          -18.79469
     26       2.00000          -0.645419          -17.56275
     27       2.00000          -0.632224          -17.20368
     28       2.00000          -0.581846          -15.83284
     29       2.00000          -0.565290          -15.38233
     30       2.00000          -0.550883          -14.99030
     31       2.00000          -0.501966          -13.65918
     32       2.00000          -0.492500          -13.40160
     33       2.00000          -0.474850          -12.92132
     34       2.00000          -0.470196          -12.79468
     35       2.00000          -0.456730          -12.42825
     36       2.00000          -0.450784          -12.26645
     37       2.00000          -0.439464          -11.95844
     38       2.00000          -0.429599          -11.68998
     39       2.00000          -0.427583          -11.63513
     40       2.00000          -0.412706          -11.23030
     41       2.00000          -0.407144          -11.07896
     42       2.00000          -0.397250          -10.80972
     43       2.00000          -0.388093          -10.56055
     44       2.00000          -0.386034          -10.50451
     45       2.00000          -0.383660          -10.43991
     46       2.00000          -0.374381          -10.18742
     47       2.00000          -0.364589           -9.92097
     48       2.00000          -0.362340           -9.85977
     49       2.00000          -0.350478           -9.53700
     50       2.00000          -0.347797           -9.46403
     51       2.00000          -0.344569           -9.37621
     52       2.00000          -0.333663           -9.07942
     53       2.00000          -0.245759           -6.68745
     54       2.00000          -0.237246           -6.45579
     55       2.00000          -0.228390           -6.21480
     56       2.00000          -0.226078           -6.15188
     57       2.00000          -0.211505           -5.75534
     58       2.00000          -0.198321           -5.39659
     59       0.00000          -0.062368           -1.69711
     60       0.00000          -0.054678           -1.48787
     61       0.00000          -0.047716           -1.29842
     62       0.00000          -0.033569           -0.91345
     63       0.00000          -0.030377           -0.82659
     64       0.00000          -0.016824           -0.45781
     65       0.00000          -0.012145           -0.33048
     66       0.00000          -0.000032           -0.00088
     67       0.00000           0.004202            0.11434
     68       0.00000           0.011559            0.31455
     69       0.00000           0.022207            0.60428
     70       0.00000           0.026935            0.73293
     71       0.00000           0.030537            0.83096
     72       0.00000           0.040879            1.11236
     73       0.00000           0.041712            1.13504
     74       0.00000           0.043113            1.17316
     75       0.00000           0.053391            1.45284
     76       0.00000           0.055760            1.51731
     77       0.00000           0.062585            1.70302
     78       0.00000           0.064870            1.76521
     79       0.00000           0.070628            1.92188
     80       0.00000           0.074159            2.01798
     81       0.00000           0.078457            2.13493
     82       0.00000           0.082759            2.25199
     83       0.00000           0.094984            2.58464
     84       0.00000           0.101605            2.76482
     85       0.00000           0.105913            2.88205
     86       0.00000           0.110228            2.99946
     87       0.00000           0.120290            3.27326
     88       0.00000           0.123016            3.34744
     89       0.00000           0.134248            3.65307
     90       0.00000           0.143121            3.89451
     91       0.00000           0.144747            3.93875
     92       0.00000           0.148236            4.03372
     93       0.00000           0.150385            4.09219
     94       0.00000           0.153256            4.17031
     95       0.00000           0.155592            4.23388
     96       0.00000           0.165760            4.51057
     97       0.00000           0.173918            4.73254
     98       0.00000           0.175752            4.78245
     99       0.00000           0.180249            4.90483
    100       0.00000           0.181847            4.94831
    101       0.00000           0.185299            5.04224
    102       0.00000           0.190277            5.17770
    103       0.00000           0.197393            5.37133
    104       0.00000           0.199449            5.42728
    105       0.00000           0.203318            5.53257
    106       0.00000           0.208057            5.66151
    107       0.00000           0.211966            5.76788
    108       0.00000           0.219280            5.96690
    109       0.00000           0.226022            6.15037
    110       0.00000           0.228448            6.21638
    111       0.00000           0.232273            6.32047
    112       0.00000           0.235173            6.39939
    113       0.00000           0.240210            6.53645
    114       0.00000           0.245244            6.67343
    115       0.00000           0.249325            6.78447
    116       0.00000           0.255457            6.95133
    117       0.00000           0.266147            7.24222
    118       0.00000           0.267929            7.29072
    119       0.00000           0.273180            7.43361
    120       0.00000           0.281844            7.66937
    121       0.00000           0.288322            7.84563
    122       0.00000           0.289135            7.86777
    123       0.00000           0.297060            8.08342
    124       0.00000           0.302272            8.22523
    125       0.00000           0.311647            8.48035
    126       0.00000           0.317067            8.62782
    127       0.00000           0.322078            8.76419
    128       0.00000           0.328375            8.93553
    129       0.00000           0.333363            9.07126

  Highest occupied state (VBM) at     -5.39658835 eV
  | Occupation number:      2.00000000

  Lowest unoccupied state (CBM) at    -1.69710658 eV
  | Occupation number:      0.00000000

  Overall HOMO-LUMO gap:      3.69948177 eV.

  Total energy components:
  | Sum of eigenvalues            :        -418.13159774 Ha      -11377.93967783 eV
  | XC energy correction          :        -100.75544382 Ha       -2741.69512223 eV
  | XC potential correction       :         129.53142756 Ha        3524.72948011 eV
  | Free-atom electrostatic energy:        -333.60586273 Ha       -9077.87740223 eV
  | Hartree energy correction     :         -19.75257431 Ha        -537.49489441 eV
  | MBD@rsSCS energy              :           0.00000000 Ha           0.00000000 eV
  | Entropy correction            :          -0.00000000 Ha          -0.00000000 eV
  | ---------------------------
  | Total energy                  :        -742.71405105 Ha      -20210.27761658 eV
  | Total energy, T -> 0          :        -742.71405105 Ha      -20210.27761658 eV  <-- do not rely on this value for anything but (periodic) metals
  | Electronic free energy        :        -742.71405105 Ha      -20210.27761658 eV

  Derived energy quantities:
  | Kinetic energy                :         744.04990851 Ha       20246.62814770 eV
  | Electrostatic energy          :       -1386.00851574 Ha      -37715.21064206 eV
  | Energy correction for multipole
  | error in Hartree potential    :          -0.04112148 Ha          -1.11897243 eV
  | Sum of eigenvalues per atom                           :        -355.56061493 eV
  | Total energy (T->0) per atom                          :        -631.57117552 eV  <-- do not rely on this value for anything but (periodic) metals
  | Electronic free energy per atom                       :        -631.57117552 eV

  Self-consistency convergence accuracy:
  | Change of charge density      :  0.9032E+00
  | Change of sum of eigenvalues  :  0.5373E+03 eV
  | Change of total energy        :  0.1540E+02 eV

  End self-consistency iteration #     1       :  max(cpu_time)    wall_clock(cpu1)
  | Time for this iteration                    :        1.516 s           1.513 s
[...]
   Multipole                     :  0.456808E+00 -0.691269E-01 -0.440168E+00
   Pulay + GGA                   :  0.919494E+01 -0.508628E+00 -0.952791E+01
   MBD@rsSCS                     :  0.113761E-01 -0.823096E-02 -0.123378E-01
   ----------------------------------------------------------------
   Total forces(  20)            :  0.296694E-02 -0.437293E-02 -0.728366E-02
  atom #   21
   Hellmann-Feynman              :  0.381248E-01 -0.125474E-01 -0.182068E-01
   Ionic forces                  :  0.000000E+00  0.000000E+00  0.000000E+00
   Multipole                     :  0.115480E-02 -0.107642E-01 -0.703862E-02
   Pulay + GGA                   : -0.439185E-01  0.227364E-01  0.317156E-01
   MBD@rsSCS                     :  0.388303E-02  0.604423E-03 -0.969351E-02
   ----------------------------------------------------------------
   Total forces(  21)            : -0.755899E-03  0.292025E-04 -0.322332E-02
  atom #   22
   Hellmann-Feynman              : -0.643261E-01 -0.533025E-02  0.361364E-01
   Ionic forces                  :  0.000000E+00  0.000000E+00  0.000000E+00
   Multipole                     : -0.764862E-02 -0.535014E-02 -0.219555E-01
   Pulay + GGA                   :  0.622704E-01  0.201386E-01 -0.225130E-01
   MBD@rsSCS                     :  0.119298E-01 -0.175618E-02 -0.507690E-02
   ----------------------------------------------------------------
   Total forces(  22)            :  0.222542E-02  0.770209E-02 -0.134091E-01
  atom #   23
   Hellmann-Feynman              : -0.644224E+00 -0.391365E+00 -0.690551E+00
   Ionic forces                  :  0.000000E+00  0.000000E+00  0.000000E+00
   Multipole                     :  0.211657E+00  0.954621E-01  0.260026E+00
   Pulay + GGA                   :  0.424722E+00  0.313483E+00  0.441676E+00
   MBD@rsSCS                     :  0.176526E-01  0.122725E-02  0.149507E-01
   ----------------------------------------------------------------
   Total forces(  23)            :  0.980715E-02  0.188067E-01  0.261021E-01
  atom #   24
   Hellmann-Feynman              : -0.280878E-02 -0.468617E-02  0.426170E-01
   Ionic forces                  :  0.000000E+00  0.000000E+00  0.000000E+00
   Multipole                     : -0.919217E-02 -0.301628E-01  0.523500E-02
   Pulay + GGA                   :  0.152943E-01  0.429624E-01 -0.454315E-01
   MBD@rsSCS                     :  0.793482E-02  0.107623E-01  0.909521E-02
   ----------------------------------------------------------------
   Total forces(  24)            :  0.112282E-01  0.188757E-01  0.115157E-01
  atom #   25
   Hellmann-Feynman              :  0.400574E-01  0.174747E-01  0.251116E-01
   Ionic forces                  :  0.000000E+00  0.000000E+00  0.000000E+00
   Multipole                     :  0.153303E-01 -0.277700E-02 -0.264512E-01
   Pulay + GGA                   : -0.594986E-01 -0.130749E-01  0.145592E-02
   MBD@rsSCS                     :  0.480191E-02  0.297420E-02  0.105818E-01
   ----------------------------------------------------------------
   Total forces(  25)            :  0.691012E-03  0.459703E-02  0.106981E-01
  atom #   26
   Hellmann-Feynman              : -0.476192E-03  0.306048E-01  0.327774E-01
   Ionic forces                  :  0.000000E+00  0.000000E+00  0.000000E+00
   Multipole                     : -0.247296E-01  0.164716E-01 -0.909432E-02
   Pulay + GGA                   :  0.305055E-01 -0.515599E-01 -0.187464E-01
   MBD@rsSCS                     :  0.144561E-01 -0.792564E-02  0.149441E-01
   ----------------------------------------------------------------
   Total forces(  26)            :  0.197559E-01 -0.124092E-01  0.198808E-01
  atom #   27
   Hellmann-Feynman              : -0.161028E+01 -0.211142E+00  0.353224E+00
   Ionic forces                  :  0.000000E+00  0.000000E+00  0.000000E+00
   Multipole                     : -0.119538E+00 -0.100409E+00  0.145891E+00
   Pulay + GGA                   :  0.173622E+01  0.309057E+00 -0.506807E+00
   MBD@rsSCS                     : -0.149594E-02 -0.207104E-01  0.154590E-02
   ----------------------------------------------------------------
   Total forces(  27)            :  0.489924E-02 -0.232042E-01 -0.614657E-02
  atom #   28
   Hellmann-Feynman              :  0.162777E+01  0.429991E+00 -0.145203E+01
   Ionic forces                  :  0.000000E+00  0.000000E+00  0.000000E+00
   Multipole                     : -0.118394E+00  0.373968E-03  0.906731E-01
   Pulay + GGA                   : -0.151133E+01 -0.430540E+00  0.136321E+01
   MBD@rsSCS                     : -0.442068E-02 -0.152333E-01  0.161144E-02
   ----------------------------------------------------------------
   Total forces(  28)            : -0.637172E-02 -0.154083E-01  0.346994E-02
  atom #   29
   Hellmann-Feynman              : -0.260523E-02 -0.622759E-01  0.206007E-01
   Ionic forces                  :  0.000000E+00  0.000000E+00  0.000000E+00
   Multipole                     :  0.263743E-01  0.916653E-02 -0.298406E-01
   Pulay + GGA                   : -0.249175E-01  0.626569E-01  0.112109E-01
   MBD@rsSCS                     :  0.381576E-02 -0.587570E-02 -0.342677E-02
   ----------------------------------------------------------------
   Total forces(  29)            :  0.266732E-02  0.367182E-02 -0.145578E-02
  atom #   30
   Hellmann-Feynman              : -0.280624E-01 -0.331956E-01  0.302591E-01
   Ionic forces                  :  0.000000E+00  0.000000E+00  0.000000E+00
   Multipole                     :  0.293783E-01 -0.258477E-01 -0.150383E-01
   Pulay + GGA                   : -0.102047E-02  0.644894E-01 -0.153692E-01
   MBD@rsSCS                     : -0.368664E-02 -0.393820E-02  0.387029E-02
   ----------------------------------------------------------------
   Total forces(  30)            : -0.339121E-02  0.150784E-02  0.372190E-02
  atom #   31
   Hellmann-Feynman              : -0.224315E-01  0.202535E-01  0.453573E-01
   Ionic forces                  :  0.000000E+00  0.000000E+00  0.000000E+00
   Multipole                     :  0.187783E-01  0.896797E-02  0.207734E-01
   Pulay + GGA                   : -0.860663E-03 -0.386539E-01 -0.553991E-01
   MBD@rsSCS                     : -0.694063E-02 -0.129442E-01  0.745887E-02
   ----------------------------------------------------------------
   Total forces(  31)            : -0.114545E-01 -0.223767E-01  0.181904E-01
  atom #   32
   Hellmann-Feynman              : -0.496248E-01  0.256144E-01  0.173525E-01
   Ionic forces                  :  0.000000E+00  0.000000E+00  0.000000E+00
   Multipole                     : -0.198063E-01 -0.421158E-02 -0.244771E-01
   Pulay + GGA                   :  0.654758E-01 -0.227848E-01  0.764035E-02
   MBD@rsSCS                     : -0.551809E-02 -0.105610E-01  0.514253E-02
   ----------------------------------------------------------------
   Total forces(  32)            : -0.947341E-02 -0.119430E-01  0.565825E-02

  Removing unitary transformations (pure translations, rotations) from forces on atoms.
  Atomic forces before filtering:
  | Net force on center of mass :   0.103957E-03 -0.104609E-03 -0.689060E-03 eV/A
  | Net torque on center of mass:   0.232493E-02 -0.132434E-02  0.285087E-02 eV
  Atomic forces after filtering:
  | Net force on center of mass :  -0.696899E-17 -0.696899E-17  0.139380E-17 eV/A
  | Net torque on center of mass:   0.885079E-17  0.442540E-17  0.000000E+00 eV

  Energy and forces in a compact form:
  | Total energy uncorrected      :         -0.202088877563063E+05 eV
  | Total energy corrected        :         -0.202088877563063E+05 eV  <-- do not rely on this value for anything but (periodic) metals
  | Electronic free energy        :         -0.202088877563063E+05 eV
  Total atomic forces (unitary forces cleaned) [eV/Ang]:
  |   1         -0.745641284096164E-02          0.145340577558345E-02          0.323638374440658E-02
  |   2         -0.133944564675315E-01         -0.400160208046576E-02          0.221092906092821E-02
  |   3          0.548878028864461E-03          0.223768954345044E-02         -0.397730208576998E-02
  |   4          0.153610648686341E-02         -0.133370775848728E-02          0.430394920043187E-02
  |   5         -0.129444032224162E-01         -0.739898489050155E-02          0.918694309571847E-02
  |   6         -0.262001097861211E-01         -0.308182262148619E-02          0.176906858280211E-01
  |   7         -0.205473687883478E-02         -0.953159023777702E-02         -0.232479334240218E-01
  |   8          0.791561252679003E-02          0.136702833895192E-01         -0.179707457393362E-01
  |   9         -0.698169077842966E-02         -0.600930427022401E-02         -0.549367242077888E-02
  |  10          0.114104422304615E-01         -0.984970658794777E-02         -0.172470240471632E-01
  |  11         -0.509308636576777E-02         -0.382933269393801E-02         -0.569489042955077E-02
  |  12          0.283266704417248E-02          0.677028818964867E-02         -0.197492007689651E-01
  |  13          0.726343057534779E-02          0.115423706532513E-01          0.259048648027370E-01
  |  14         -0.208102211221671E-02          0.116608847291597E-01         -0.220423241671178E-03
  |  15          0.414733350757468E-02          0.141775211392568E-01          0.151830971215834E-01
  |  16          0.152288737201435E-01          0.119574287466578E-01          0.246486624263780E-02
  |  17         -0.553699436179876E-02         -0.662042855071880E-02         -0.189740485209052E-01
  |  18          0.786082482652507E-02          0.971555498048835E-02         -0.175296246663093E-01
  |  19          0.577090060076958E-04          0.285914675831111E-02         -0.179349338359957E-01
  |  20          0.301081512461789E-02         -0.431432760143057E-02         -0.725510168108833E-02
  |  21         -0.727654705106775E-03          0.872709706201097E-04         -0.317367911170686E-02
  |  22          0.223112820451035E-02          0.770493872805665E-02         -0.134005539343920E-01
  |  23          0.978988176197690E-02          0.188148701087606E-01          0.261495477128600E-01
  |  24          0.112068235782604E-01          0.188702580108728E-01          0.115509931633413E-01
  |  25          0.675566161372016E-03          0.462164718046881E-02          0.107646481116470E-01
  |  26          0.197221510911807E-01         -0.124120597955948E-01          0.199367162967269E-01
  |  27          0.493289891950877E-02         -0.231848165858228E-01         -0.615535157716912E-02
  |  28         -0.635072799072687E-02         -0.154171134667340E-01          0.344184329881401E-02
  |  29          0.271585092268418E-02          0.370211747786384E-02         -0.147088419414122E-02
  |  30         -0.336259846063111E-02          0.149373480497924E-02          0.367621202061699E-02
  |  31         -0.114543856664559E-01         -0.223985216321222E-01          0.181743628100137E-01
  |  32         -0.944871407986310E-02         -0.119560924136981E-01          0.561932716848042E-02

  ------------------------------------ 
  Start decomposition of the XC Energy 
  ------------------------------------ 
  Hartree-Fock part   :          0.000000000 Ha              0.000000000 eV
  ------------------------------------ 
  X Energy            :        -96.984870881 Ha          -2639.092612233 eV
  C Energy GGA        :         -3.868033036 Ha           -105.254534196 eV
  Total XC Energy     :       -100.852903917 Ha          -2744.347146428 eV
  LDA X and C from self-consistent density 
  X Energy LDA        :        -88.000155780 Ha          -2394.606074994 eV
  C Energy LDA        :         -7.531635892 Ha           -204.946240168 eV
  ------------------------------------ 
  End decomposition of the XC Energy 
  ------------------------------------ 
   
  ESP charge fitting starts.
  | Calculation :  00000001  of  00000001
  | Full density
  Computing multipole expansion for total density.
  Generating points for esp charges.
  Partitioning the integration grid into batches with parallel hashing+maxmin method.
  | Number of batches:     3853
  | Maximal batch size:     197
  | Minimal batch size:      55
  | Average batch size:     126.302
  | Standard deviation of batch sizes:      19.082

  Integration load balanced across    32 MPI tasks.
  Work distribution over tasks is as follows:
  Initializing partition tables, free-atom densities, potentials, etc. across the integration grid (initialize_grid_storage).
  | Original list of interatomic distances with          32 x         32 entries is created.
  | Net number of integration points:   486643
  | of which are non-zero points    :   486643
  Summing up potential from multipole expanded  density.
  Summing up the Hartree potential.
  Time summed over all CPUs for potential: real work        6.486 s, elapsed        6.717 s
  Fitting esp charges to potential.
  |
  | ESP charges fitted to the electrostatic potential :
  |
  | Atom         1: C, ESP charge:      0.62094828
  |
  | Atom         2: C, ESP charge:     -0.78685603
  |
  | Atom         3: O, ESP charge:      0.56653901
  |
  | Atom         4: H, ESP charge:     -0.16268870
  |
  | Atom         5: H, ESP charge:     -0.18642589
  |
  | Atom         6: H, ESP charge:     -0.19586951
  |
  | Atom         7: N, ESP charge:      0.75037965
  |
  | Atom         8: C, ESP charge:     -0.52413262
  |
  | Atom         9: C, ESP charge:     -0.56088992
  |
  | Atom        10: O, ESP charge:      0.51763324
  |
  | Atom        11: H, ESP charge:     -0.34449275
  |
  | Atom        12: H, ESP charge:      0.33321137
  |
  | Atom        13: C, ESP charge:      0.34195853
  |
  | Atom        14: H, ESP charge:     -0.07113808
  |
  | Atom        15: H, ESP charge:     -0.10962803
  |
  | Atom        16: H, ESP charge:     -0.10481519
  |
  | Atom        17: N, ESP charge:      0.85561780
  |
  | Atom        18: C, ESP charge:     -0.94123265
  |
  | Atom        19: C, ESP charge:     -0.12233439
  |
  | Atom        20: O, ESP charge:      0.45644915
  |
  | Atom        21: H, ESP charge:     -0.38444969
  |
  | Atom        22: H, ESP charge:     -0.08026213
  |
  | Atom        23: C, ESP charge:      0.78647031
  |
  | Atom        24: H, ESP charge:     -0.18062429
  |
  | Atom        25: H, ESP charge:     -0.20352758
  |
  | Atom        26: H, ESP charge:     -0.20607739
  |
  | Atom        27: N, ESP charge:      0.32949790
  |
  | Atom        28: C, ESP charge:      0.22930384
  |
  | Atom        29: H, ESP charge:     -0.32739558
  |
  | Atom        30: H, ESP charge:     -0.14684759
  |
  | Atom        31: H, ESP charge:     -0.06786807
  |
  | Atom        32: H, ESP charge:     -0.08045301

  RRMS:       0.00117051

  Done.

------------------------------------------------------------------------------
  Final output of selected total energy values:

  The following output summarizes some interesting total energy values
  at the end of a run (AFTER all relaxation, molecular dynamics, etc.).

  | Total energy of the DFT / Hartree-Fock s.c.f. calculation      :         -20208.887756306 eV
  | Final zero-broadening corrected energy (caution - metals only) :         -20208.887756306 eV
  | For reference only, the value of 1 Hartree used in FHI-aims is :             27.211384500 eV

  Before relying on these values, please be sure to understand exactly which
  total energy value is referred to by a given number. Different objects may
  all carry the same name 'total energy'. Definitions:

  Total energy of the DFT / Hartree-Fock s.c.f. calculation:
  | Note that this energy does not include ANY quantities calculated after the
  | s.c.f. cycle, in particular not ANY RPA, MP2, etc. many-body perturbation terms.

  Final zero-broadening corrected energy:
  | For metallic systems only, a broadening of the occupation numbers at the Fermi
  | level can be extrapolated back to zero broadening by an electron-gas inspired
  | formula. For all systems that are not real metals, this value can be
  | meaningless and should be avoided.

------------------------------------------------------------------------------
  Methods described in the following list of references were used in this FHI-aims run.
  If you publish the results, please make sure to cite these reference if they apply.
  FHI-aims is an academic code, and for our developers (often, Ph.D. students
  and postdocs), scientific credit in the community is essential.
  Thank you for helping us!

  For any use of FHI-aims, please cite:

    Volker Blum, Ralf Gehrke, Felix Hanke, Paula Havu, Ville Havu,
    Xinguo Ren, Karsten Reuter, and Matthias Scheffler
    'Ab initio molecular simulations with numeric atom-centered orbitals'
    Computer Physics Communications 180, 2175-2196 (2009)
    http://dx.doi.org/10.1016/j.cpc.2009.06.022


  The scalable eigensolver library ELPA was used in your run.
  ELPA is essential especially for large systems on hundreds or thousands of CPUs.
  For ELPA, please cite:

    Andreas Marek, Volker Blum, Rainer Johanni, Ville Havu, Bruno Lang,
    Thomas Auckenthaler, Alexander Heinecke, Hans-Joachim Bungartz, and Hermann Lederer,
    'The ELPA Library - Scalable Parallel Eigenvalue Solutions
    for Electronic Structure Theory and Computational Science'
    The Journal of Physics: Condensed Matter 26, 213201 (2014).
    http://dx.doi.org/10.1088/0953-8984/26/21/213201


  For ELPA's efficient two-stage tridiagonalization used in your run, please cite:

    T. Auckenthaler, V. Blum, H.-J. Bungartz, T. Huckle, R. Johanni, L. Kraemer,
    B. Lang, H. Lederer, and P. R. Willems,
    'Parallel solution of partial symmetric eigenvalue problems'
    'from  electronic structure calculations'
    Parallel Computing 37, 783-794 (2011).
    http://dx.doi.org/10.1016/j.parco.2011.05.002


  For the real-space grid partitioning and parallelization used in this calculation, please cite:

    Ville Havu, Volker Blum, Paula Havu, and Matthias Scheffler,
    'Efficient O(N) integration for all-electron electronic structure calculation'
    'using numerically tabulated basis functions'
    Journal of Computational Physics 228, 8367-8379 (2009).
    http://dx.doi.org/10.1016/j.jcp.2009.08.008

  Of course, there are many other important community references, e.g., those cited in the
  above references. Our list is limited to references that describe implementations in the
  FHI-aims code. The reason is purely practical (length of this list) - please credit others as well.

------------------------------------------------------------
          Leaving FHI-aims.
          Date     :  20170309, Time     :  175628.493

          Computational steps:
          | Number of self-consistency cycles          :           14

          Detailed time accounting                     :  max(cpu_time)    wall_clock(cpu1)
          | Total time                                 :       32.686 s          32.986 s
          | Preparation time                           :        0.240 s           0.237 s
          | Grid partitioning                          :        0.304 s           0.294 s
          | Preloading free-atom quantities on grid    :        0.028 s           0.028 s
          | Free-atom superposition energy             :        0.040 s           0.038 s
          | Total time for integrations                :       10.665 s          10.640 s
          | Total time for solution of K.-S. equations :        0.528 s           0.495 s
          | Total time for density & force components  :        9.593 s           9.563 s
          | Total time for mixing                      :        0.132 s           0.106 s
          | Total time for Hartree multipole update    :        0.088 s           0.060 s
          | Total time for Hartree multipole sum       :        6.372 s           6.357 s
          | Total time for total energy evaluation     :        0.028 s           0.025 s

          Have a nice day.
------------------------------------------------------------
