  MPI-parallelism will be employed.
------------------------------------------------------------
          Invoking FHI-aims ...
          Version 150427
          Git rev.: 9dd23e0 BL: Update Version stamp
          Compiled on 2015/11/03 at 22:05:20 on host eos03.

          When using FHI-aims, please cite the following reference:

          Volker Blum, Ralf Gehrke, Felix Hanke, Paula Havu,
          Ville Havu, Xinguo Ren, Karsten Reuter, and Matthias Scheffler,
          'Ab Initio Molecular Simulations with Numeric Atom-Centered Orbitals: FHI-aims',
          Computer Physics Communications 180, 2175-2196 (2009)

          For any questions about FHI-aims, please visit the aimsclub website
          with its forums and wiki. Contributions to both the forums and the
          wiki are warmly encouraged - they are for you, and everyone is welcome there.

------------------------------------------------------------

  Date     :  20170309, Time     :  175940.453
  Time zero on CPU 1             :   0.380023000000000E+00  s.
  Internal wall clock time zero  :           258314380.453  s.

  Using       32 parallel tasks.
  Task        0 on host eos060 reporting.
  Task        1 on host eos060 reporting.
  Task        2 on host eos060 reporting.
  Task        3 on host eos060 reporting.
  Task        4 on host eos060 reporting.
  Task        5 on host eos060 reporting.
  Task        6 on host eos060 reporting.
  Task        7 on host eos060 reporting.
  Task        8 on host eos060 reporting.
  Task        9 on host eos060 reporting.
  Task       10 on host eos060 reporting.
  Task       11 on host eos060 reporting.
  Task       12 on host eos060 reporting.
  Task       13 on host eos060 reporting.
  Task       14 on host eos060 reporting.
  Task       15 on host eos060 reporting.
  Task       16 on host eos060 reporting.
  Task       17 on host eos060 reporting.
  Task       18 on host eos060 reporting.
  Task       19 on host eos060 reporting.
  Task       20 on host eos060 reporting.
  Task       21 on host eos060 reporting.
  Task       22 on host eos060 reporting.
  Task       23 on host eos060 reporting.
  Task       24 on host eos060 reporting.
  Task       25 on host eos060 reporting.
  Task       26 on host eos060 reporting.
  Task       27 on host eos060 reporting.
  Task       28 on host eos060 reporting.
  Task       29 on host eos060 reporting.
  Task       30 on host eos060 reporting.
  Task       31 on host eos060 reporting.

  Performing system and environment tests:
  | Environment variable OMP_NUM_THREADS correctly set to 1.
  | Stacksize not measured: no C compiler
  | Checking for scalapack...
  | Testing pdtran()...
  | All pdtran() tests passed.

  Obtaining array dimensions for all initial allocations:
  
  -----------------------------------------------------------------------
  Parsing control.in (first pass over file, find array dimensions only).
  The contents of control.in will be repeated verbatim below
  unless switched off by setting 'verbatim_writeout .false.' .
  in the first line of control.in .
  -----------------------------------------------------------------------
  
  #########################################################################################
  #
  # Input for System
  #
  #########################################################################################
  #
  #
  #  Physical model
  #
    xc                 pbe
    many_body_dispersion
    spin               none
    charge             0.
  #
  #  SCF convergence
  #
    occupation_type    gaussian 0.05
    mixer              pulay
      n_max_pulay        10
      charge_mix_param   0.5
    sc_accuracy_rho    1E-4
    sc_accuracy_eev    1E-2
    sc_accuracy_etot   1E-5
    sc_accuracy_forces 1E-4
    sc_iter_limit      1000
  #
  #  ESP charge
  #
    output esp
    esp equal_grid_n 80 80 80
  #
  #
  ################################################################################
  #
  #  FHI-aims code project
  # Volker Blum, Fritz Haber Institute Berlin, 2009
  #
  #  Suggested "tight" defaults for H atom (to be pasted into control.in file)
  #
  ################################################################################
    species        H
  #     global species definitions
      nucleus             1
      mass                1.00794
  #
      l_hartree           6
  #
      cut_pot             4.0  2.0  1.0
      basis_dep_cutoff    1e-4
  #
      radial_base         24 7.0
      radial_multiplier   2
      angular_grids       specified
        division   0.1930   50
        division   0.3175  110
        division   0.4293  194
        division   0.5066  302
        division   0.5626  434
  #      division   0.5922  590
  #      division   0.6227  974
  #      division   0.6868 1202
  #      outer_grid  770
        outer_grid  434
  ################################################################################
  #
  #  Definition of "minimal" basis
  #
  ################################################################################
  #     valence basis states
      valence      1  s   1.
  #     ion occupancy
      ion_occ      1  s   0.5
  ################################################################################
  #
  #  Suggested additional basis functions. For production calculations,
  #  uncomment them one after another (the most important basis functions are
  #  listed first).
  #
  #  Basis constructed for dimers: 0.5 A, 0.7 A, 1.0 A, 1.5 A, 2.5 A
  #
  ################################################################################
  #  "First tier" - improvements: -1014.90 meV to -62.69 meV
       hydro 2 s 2.1
       hydro 2 p 3.5
  #  "Second tier" - improvements: -12.89 meV to -1.83 meV
       hydro 1 s 0.85
       hydro 2 p 3.7
       hydro 2 s 1.2
       hydro 3 d 7
  #  "Third tier" - improvements: -0.25 meV to -0.12 meV
  #     hydro 4 f 11.2
  #     hydro 3 p 4.8
  #     hydro 4 d 9
  #     hydro 3 s 3.2
  ################################################################################
  #
  # For methods that use the localized form of the "resolution of identity" for
  # the two-electron Coulomb operator (RI_method LVL), particularly Hartree-Fock and
  # hybrid density functional calculations, the highest accuracy can be obtained by
  # uncommenting the line beginning with "for_aux"  below, thus adding an extra g radial
  # function to the construction of the product basis set for the expansion.
  # See Ref. New J. Phys. 17, 093020 (2015) for more information, particularly Figs. 1 and 6.
  #
  ################################################################################
  #
  # for_aux hydro 5 g 6.0
  ################################################################################
  #
  #  FHI-aims code project
  # Volker Blum, Fritz Haber Institute Berlin, 2009
  #
  #  Suggested "tight" defaults for C atom (to be pasted into control.in file)
  #
  ################################################################################
    species        C
  #     global species definitions
      nucleus             6
      mass                12.0107
  #
      l_hartree           6
  #
      cut_pot             4.0  2.0  1.0
      basis_dep_cutoff    1e-4
  #
      radial_base         34 7.0
      radial_multiplier   2
      angular_grids specified
        division   0.2187   50
        division   0.4416  110
        division   0.6335  194
        division   0.7727  302
        division   0.8772  434
  #      division   0.9334  590
  #      division   0.9924  770
  #      division   1.0230  974
  #      division   1.5020 1202
  #     outer_grid  974
        outer_grid  434
  ################################################################################
  #
  #  Definition of "minimal" basis
  #
  ################################################################################
  #     valence basis states
      valence      2  s   2.
      valence      2  p   2.
  #     ion occupancy
      ion_occ      2  s   1.
      ion_occ      2  p   1.
  ################################################################################
  #
  #  Suggested additional basis functions. For production calculations,
  #  uncomment them one after another (the most important basis functions are
  #  listed first).
  #
  #  Constructed for dimers: 1.0 A, 1.25 A, 1.5 A, 2.0 A, 3.0 A
  #
  ################################################################################
  #  "First tier" - improvements: -1214.57 meV to -155.61 meV
       hydro 2 p 1.7
       hydro 3 d 6
       hydro 2 s 4.9
  #  "Second tier" - improvements: -67.75 meV to -5.23 meV
       hydro 4 f 9.8
       hydro 3 p 5.2
       hydro 3 s 4.3
       hydro 5 g 14.4
       hydro 3 d 6.2
  #  "Third tier" - improvements: -2.43 meV to -0.60 meV
  #     hydro 2 p 5.6
  #     hydro 2 s 1.4
  #     hydro 3 d 4.9
  #     hydro 4 f 11.2
  #  "Fourth tier" - improvements: -0.39 meV to -0.18 meV
  #     hydro 2 p 2.1
  #     hydro 5 g 16.4
  #     hydro 4 d 13.2
  #     hydro 3 s 13.6
  #     hydro 4 f 17.6
  #  Further basis functions - improvements: -0.08 meV and below
  #     hydro 3 s 2
  #     hydro 3 p 6
  #     hydro 4 d 20
  ################################################################################
  #
  # For methods that use the localized form of the "resolution of identity" for
  # the two-electron Coulomb operator (RI_method LVL), particularly Hartree-Fock and
  # hybrid density functional calculations, the highest accuracy can be obtained by
  # uncommenting the line beginning with "for_aux"  below, thus adding an extra g radial
  # function to the construction of the product basis set for the expansion.
  # See Ref. New J. Phys. 17, 093020 (2015) for more information, particularly Figs. 1 and 6.
  #
  ################################################################################
  #
  # for_aux hydro 5 g 6.0
  ################################################################################
  #
  #  FHI-aims code project
  # Volker Blum, Fritz Haber Institute Berlin, 2009
  #
  #  Suggested "tight" defaults for N atom (to be pasted into control.in file)
  #
  ################################################################################
    species        N
  #     global species definitions
      nucleus             7
      mass                14.0067
  #
      l_hartree           6
  #
      cut_pot             4.0  2.0  1.0
      basis_dep_cutoff    1e-4
  #
      radial_base         35 7.0
      radial_multiplier   2
      angular_grids       specified
        division   0.1841   50
        division   0.3514  110
        division   0.5126  194
        division   0.6292  302
        division   0.6939  434
  #      division   0.7396  590
  #      division   0.7632  770
  #      division   0.8122  974
  #      division   1.1604 1202
  #      outer_grid  974
        outer_grid  434
  ################################################################################
  #
  #  Definition of "minimal" basis
  #
  ################################################################################
  #     valence basis states
      valence      2  s   2.
      valence      2  p   3.
  #     ion occupancy
      ion_occ      2  s   1.
      ion_occ      2  p   2.
  ################################################################################
  #
  #  Suggested additional basis functions. For production calculations,
  #  uncomment them one after another (the most important basis functions are
  #  listed first).
  #
  #  Constructed for dimers: 1.0 A, 1.1 A, 1.5 A, 2.0 A, 3.0 A
  #
  ################################################################################
  #  "First tier" - improvements: -1193.42 meV to -220.60 meV
       hydro 2 p 1.8
       hydro 3 d 6.8
       hydro 3 s 5.8
  #  "Second tier" - improvements: -80.21 meV to -6.86 meV
       hydro 4 f 10.8
       hydro 3 p 5.8
       hydro 1 s 0.8
       hydro 5 g 16
       hydro 3 d 4.9
  #  "Third tier" - improvements: -4.29 meV to -0.53 meV
  #     hydro 3 s 16
  #     ionic 2 p auto
  #     hydro 3 d 6.6
  #     hydro 4 f 11.6
  #  "Fourth tier" - improvements: -0.75 meV to -0.25 meV
  #     hydro 2 p 4.5
  #     hydro 2 s 2.4
  #     hydro 5 g 14.4
  #     hydro 4 d 14.4
  #     hydro 4 f 16.8
  # Further basis functions - -0.21 meV and below
  #     hydro 3 p 14.8
  #     hydro 3 s 4.4
  #     hydro 3 d 19.6
  #     hydro 5 g 12.8
  ################################################################################
  #
  # For methods that use the localized form of the "resolution of identity" for
  # the two-electron Coulomb operator (RI_method LVL), particularly Hartree-Fock and
  # hybrid density functional calculations, the highest accuracy can be obtained by
  # uncommenting the line beginning with "for_aux"  below, thus adding an extra g radial
  # function to the construction of the product basis set for the expansion.
  # See Ref. New J. Phys. 17, 093020 (2015) for more information, particularly Figs. 1 and 6.
  #
  ################################################################################
  #
  # for_aux hydro 5 g 6.0
  ################################################################################
  #
  #  FHI-aims code project
  # Volker Blum, Fritz Haber Institute Berlin, 2009
  #
  #  Suggested "tight" defaults for O atom (to be pasted into control.in file)
  #
  ################################################################################
    species        O
  #     global species definitions
      nucleus             8
      mass                15.9994
  #
      l_hartree           6
  #
      cut_pot             4.0  2.0  1.0
      basis_dep_cutoff    1e-4
  #
      radial_base         36 7.0
      radial_multiplier   2
       angular_grids specified
        division   0.1817   50
        division   0.3417  110
        division   0.4949  194
        division   0.6251  302
        division   0.8014  434
  #      division   0.8507  590
  #      division   0.8762  770
  #      division   0.9023  974
  #      division   1.2339 1202
  #      outer_grid 974
        outer_grid  434
  ################################################################################
  #
  #  Definition of "minimal" basis
  #
  ################################################################################
  #     valence basis states
      valence      2  s   2.
      valence      2  p   4.
  #     ion occupancy
      ion_occ      2  s   1.
      ion_occ      2  p   3.
  ################################################################################
  #
  #  Suggested additional basis functions. For production calculations,
  #  uncomment them one after another (the most important basis functions are
  #  listed first).
  #
  #  Constructed for dimers: 1.0 A, 1.208 A, 1.5 A, 2.0 A, 3.0 A
  #
  ################################################################################
  #  "First tier" - improvements: -699.05 meV to -159.38 meV
       hydro 2 p 1.8
       hydro 3 d 7.6
       hydro 3 s 6.4
  #  "Second tier" - improvements: -49.91 meV to -5.39 meV
       hydro 4 f 11.6
       hydro 3 p 6.2
       hydro 3 d 5.6
       hydro 5 g 17.6
       hydro 1 s 0.75
  #  "Third tier" - improvements: -2.83 meV to -0.50 meV
  #     ionic 2 p auto
  #     hydro 4 f 10.8
  #     hydro 4 d 4.7
  #     hydro 2 s 6.8
  #  "Fourth tier" - improvements: -0.40 meV to -0.12 meV
  #     hydro 3 p 5
  #     hydro 3 s 3.3
  #     hydro 5 g 15.6
  #     hydro 4 f 17.6
  #     hydro 4 d 14
  # Further basis functions - -0.08 meV and below
  #     hydro 3 s 2.1
  #     hydro 4 d 11.6
  #     hydro 3 p 16
  #     hydro 2 s 17.2
  ################################################################################
  #
  # For methods that use the localized form of the "resolution of identity" for
  # the two-electron Coulomb operator (RI_method LVL), particularly Hartree-Fock and
  # hybrid density functional calculations, the highest accuracy can be obtained by
  # uncommenting the line beginning with "for_aux"  below, thus adding an extra g radial
  # function to the construction of the product basis set for the expansion.
  # See Ref. New J. Phys. 17, 093020 (2015) for more information, particularly Figs. 1 and 6.
  #
  ################################################################################
  #
  # for_aux hydro 5 g 6.0
  
  -----------------------------------------------------------------------
  Completed first pass over input file control.in .
  -----------------------------------------------------------------------
  
  
  -----------------------------------------------------------------------
  Parsing geometry.in (first pass over file, find array dimensions only).
  The contents of geometry.in will be repeated verbatim below
  unless switched off by setting 'verbatim_writeout .false.' .
  in the first line of geometry.in .
  -----------------------------------------------------------------------
  
  #
  # This is the geometry file that corresponds to the current relaxation step.
  # If you do not want this file to be written, set the "write_restart_geometry" flag to .false.
  #
  atom      -0.37718980      0.20157040     -0.05708589 C
  atom      -0.29122027      0.26020377      1.45931307 C
  atom       0.77028798      0.43556006      2.04900411 O
  atom       0.12560518      1.08294209     -0.47256644 H
  atom      -1.40380090      0.15885937     -0.44314460 H
  atom       0.17104720     -0.68296591     -0.40671959 H
  atom      -1.49207479      0.11771358      2.11330713 N
  atom      -1.57921200     -0.05802699      3.56845903 C
  atom      -2.96702488     -0.56833805      3.99265239 C
  atom      -3.05605472     -1.47088396      4.81762320 O
  atom      -2.26661671     -0.24077566      1.56583930 H
  atom      -0.89024160     -0.86089948      3.86792599 H
  atom      -1.19411920      1.20022171      4.36567961 C
  atom      -1.26279062      0.97873163      5.43808618 H
  atom      -1.85459967      2.05047730      4.15116006 H
  atom      -0.16395064      1.48481628      4.12797504 H
  atom      -4.09391412     -0.01365529      3.42817798 N
  atom      -4.24898270      1.26252804      2.74145828 C
  atom      -5.12058956      2.18062749      3.62314576 C
  atom      -6.01092986      1.70977100      4.32753801 O
  atom      -4.95181257     -0.33418521      3.88140726 H
  atom      -3.25834495      1.70131601      2.58975593 H
  atom      -4.93361743      1.08756547      1.37540604 C
  atom      -5.07347254      2.05259441      0.86982504 H
  atom      -5.91968072      0.62239654      1.50219175 H
  atom      -4.33145529      0.44310528      0.72119433 H
  atom      -4.88474285      3.52147911      3.55051672 N
  atom      -3.87528583      4.21428446      2.76454445 C
  atom      -5.52153087      4.07769052      4.11287801 H
  atom      -3.91974615      5.28015434      3.01069482 H
  atom      -4.04224531      4.11431992      1.68149460 H
  atom      -2.85885682      3.86557180      2.99624846 H
  
  -----------------------------------------------------------------------
  Completed first pass over input file geometry.in .
  -----------------------------------------------------------------------
  

  Basic array size parameters:
  | Number of species                 :        4
  | Number of atoms                   :       32
  | Max. basis fn. angular momentum   :        4
  | Max. atomic/ionic basis occupied n:        2
  | Max. number of basis fn. types    :        2
  | Max. radial fns per species/type  :        8
  | Max. logarithmic grid size        :     1301
  | Max. radial integration grid size :       73
  | Max. angular integration grid size:      434
  | Max. angular grid division number :        8
  | Radial grid for Hartree potential :     1301
  | Number of spin channels           :        1

------------------------------------------------------------
          Reading file control.in.
------------------------------------------------------------
  XC: Using PBE gradient-corrected functionals.
  Self-consistent screening and van der Waals energy (TS, TS+SCS,MBD) module
  Spin treatment: No spin polarisation.
  Charge =   0.000000E+00: Neutral system requested explicitly.
  Occupation type: Gaussian broadening, width =   0.500000E-01 eV.
  Using pulay charge density mixing.
  Pulay mixing - number of memorized iterations:   10
  Charge density mixing - mixing parameter:     0.5000
  Convergence accuracy of self-consistent charge density:  0.1000E-03
  Convergence accuracy of sum of eigenvalues:  0.1000E-01
  Convergence accuracy of total energy:  0.1000E-04
  Convergence accuracy of forces:  0.1000E-03
  Maximum number of s.-c. iterations  :  1000
  Fitting ESP-charges to Potential. 
  | Esp charge output options: 
  | ESP Grid method: 3, cubic grid
  | Number of points in x, ,y, z:  0080 0080 0080
  |
 
  Reading configuration options for species H                   .
  | Found nuclear charge :   1.0000
  | Found atomic mass :    1.00794000000000      amu
  | Found l_max for Hartree potential  :   6
  | Found cutoff potl. onset [A], width [A], scale factor :    4.00000    2.00000    1.00000
  | Threshold for basis-dependent cutoff potential is   0.100000E-03
  | Found data for basic radial integration grid :    24 points, outermost radius =    7.000 A
  | Found multiplier for basic radial grid :   2
  | Found angular grid specification: user-specified.
  | Specified grid contains     6 separate shells.
  | Check grid settings after all constraints further below.
  | Found free-atom valence shell :  1 s   1.000
  | No ionic wave fns used. Skipping ion_occ.
  | Found hydrogenic basis function :  2 s   2.100
  | Found hydrogenic basis function :  2 p   3.500
  | Found hydrogenic basis function :  1 s   0.850
  | Found hydrogenic basis function :  2 p   3.700
  | Found hydrogenic basis function :  2 s   1.200
  | Found hydrogenic basis function :  3 d   7.000
  Species H                   : Missing cutoff potential type.
  Defaulting to exp(1/x)/(1-x)^2 type cutoff potential.
  Species H : No 'logarithmic' tag. Using default grid for free atom:
  | Default logarithmic grid data [bohr] : 0.1000E-03 0.1000E+03 0.1012E+01
  Species H : On-site basis accuracy parameter (for Gram-Schmidt orthonormalisation) not specified.
  Using default value basis_acc =  0.1000000E-03.
  Species H                   : Using default innermost maximum threshold i_radial=  2 for radial functions.
  Species H                   : Default cutoff onset for free atom density etc. : 0.40000000E+01 AA.
  Species H                   : Basic radial grid will be enhanced according to radial_multiplier =   2, to contain    49 grid points.
 
  Reading configuration options for species C                   .
  | Found nuclear charge :   6.0000
  | Found atomic mass :    12.0107000000000      amu
  | Found l_max for Hartree potential  :   6
  | Found cutoff potl. onset [A], width [A], scale factor :    4.00000    2.00000    1.00000
  | Threshold for basis-dependent cutoff potential is   0.100000E-03
  | Found data for basic radial integration grid :    34 points, outermost radius =    7.000 A
  | Found multiplier for basic radial grid :   2
  | Found angular grid specification: user-specified.
  | Specified grid contains     6 separate shells.
  | Check grid settings after all constraints further below.
  | Found free-atom valence shell :  2 s   2.000
  | Found free-atom valence shell :  2 p   2.000
  | No ionic wave fns used. Skipping ion_occ.
  | No ionic wave fns used. Skipping ion_occ.
  | Found hydrogenic basis function :  2 p   1.700
  | Found hydrogenic basis function :  3 d   6.000
  | Found hydrogenic basis function :  2 s   4.900
  | Found hydrogenic basis function :  4 f   9.800
  | Found hydrogenic basis function :  3 p   5.200
  | Found hydrogenic basis function :  3 s   4.300
  | Found hydrogenic basis function :  5 g  14.400
  | Found hydrogenic basis function :  3 d   6.200
  Species C                   : Missing cutoff potential type.
  Defaulting to exp(1/x)/(1-x)^2 type cutoff potential.
  Species C : No 'logarithmic' tag. Using default grid for free atom:
  | Default logarithmic grid data [bohr] : 0.1000E-03 0.1000E+03 0.1012E+01
  Species C : On-site basis accuracy parameter (for Gram-Schmidt orthonormalisation) not specified.
  Using default value basis_acc =  0.1000000E-03.
  Species C                   : Using default innermost maximum threshold i_radial=  2 for radial functions.
  Species C                   : Default cutoff onset for free atom density etc. : 0.40000000E+01 AA.
  Species C                   : Basic radial grid will be enhanced according to radial_multiplier =   2, to contain    69 grid points.
 
  Reading configuration options for species N                   .
  | Found nuclear charge :   7.0000
  | Found atomic mass :    14.0067000000000      amu
  | Found l_max for Hartree potential  :   6
  | Found cutoff potl. onset [A], width [A], scale factor :    4.00000    2.00000    1.00000
  | Threshold for basis-dependent cutoff potential is   0.100000E-03
  | Found data for basic radial integration grid :    35 points, outermost radius =    7.000 A
  | Found multiplier for basic radial grid :   2
  | Found angular grid specification: user-specified.
  | Specified grid contains     6 separate shells.
  | Check grid settings after all constraints further below.
  | Found free-atom valence shell :  2 s   2.000
  | Found free-atom valence shell :  2 p   3.000
  | No ionic wave fns used. Skipping ion_occ.
  | No ionic wave fns used. Skipping ion_occ.
  | Found hydrogenic basis function :  2 p   1.800
  | Found hydrogenic basis function :  3 d   6.800
  | Found hydrogenic basis function :  3 s   5.800
  | Found hydrogenic basis function :  4 f  10.800
  | Found hydrogenic basis function :  3 p   5.800
  | Found hydrogenic basis function :  1 s   0.800
  | Found hydrogenic basis function :  5 g  16.000
  | Found hydrogenic basis function :  3 d   4.900
  Species N                   : Missing cutoff potential type.
  Defaulting to exp(1/x)/(1-x)^2 type cutoff potential.
  Species N : No 'logarithmic' tag. Using default grid for free atom:
  | Default logarithmic grid data [bohr] : 0.1000E-03 0.1000E+03 0.1012E+01
  Species N : On-site basis accuracy parameter (for Gram-Schmidt orthonormalisation) not specified.
  Using default value basis_acc =  0.1000000E-03.
  Species N                   : Using default innermost maximum threshold i_radial=  2 for radial functions.
  Species N                   : Default cutoff onset for free atom density etc. : 0.40000000E+01 AA.
  Species N                   : Basic radial grid will be enhanced according to radial_multiplier =   2, to contain    71 grid points.
 
  Reading configuration options for species O                   .
  | Found nuclear charge :   8.0000
  | Found atomic mass :    15.9994000000000      amu
  | Found l_max for Hartree potential  :   6
  | Found cutoff potl. onset [A], width [A], scale factor :    4.00000    2.00000    1.00000
  | Threshold for basis-dependent cutoff potential is   0.100000E-03
  | Found data for basic radial integration grid :    36 points, outermost radius =    7.000 A
  | Found multiplier for basic radial grid :   2
  | Found angular grid specification: user-specified.
  | Specified grid contains     6 separate shells.
  | Check grid settings after all constraints further below.
  | Found free-atom valence shell :  2 s   2.000
  | Found free-atom valence shell :  2 p   4.000
  | No ionic wave fns used. Skipping ion_occ.
  | No ionic wave fns used. Skipping ion_occ.
  | Found hydrogenic basis function :  2 p   1.800
  | Found hydrogenic basis function :  3 d   7.600
  | Found hydrogenic basis function :  3 s   6.400
  | Found hydrogenic basis function :  4 f  11.600
  | Found hydrogenic basis function :  3 p   6.200
  | Found hydrogenic basis function :  3 d   5.600
  | Found hydrogenic basis function :  5 g  17.600
  | Found hydrogenic basis function :  1 s   0.750
  Species O                   : Missing cutoff potential type.
  Defaulting to exp(1/x)/(1-x)^2 type cutoff potential.
  Species O : No 'logarithmic' tag. Using default grid for free atom:
  | Default logarithmic grid data [bohr] : 0.1000E-03 0.1000E+03 0.1012E+01
  Species O : On-site basis accuracy parameter (for Gram-Schmidt orthonormalisation) not specified.
  Using default value basis_acc =  0.1000000E-03.
  Species O                   : Using default innermost maximum threshold i_radial=  2 for radial functions.
  Species O                   : Default cutoff onset for free atom density etc. : 0.40000000E+01 AA.
  Species O                   : Basic radial grid will be enhanced according to radial_multiplier =   2, to contain    73 grid points.
 
  Finished reading input file 'control.in'. Consistency checks are next.
 
  Target number of points in a grid batch is not set. Defaulting to  100
  Method for grid partitioning is not set. Defaulting to parallel hash+maxmin partitioning.
  Batch size limit is not set. Defaulting to    200
  By default, will store active basis functions for each batch.
  If in need of memory, prune_basis_once .false. can be used to disable this option.
  communication_type for Hartree potential was not specified.
  Defaulting to calc_hartree .
  Pulay mixer: Number of initial linear mixing iterations not set.
  Defaulting to    0 iterations.
  Work space size for distributed Hartree potential not set.
  Defaulting to   0.200000E+03 MB.
  Algorithm-dependent basis array size parameters:
  | n_max_pulay                         :       10
  Geometry relaxation not requested: no relaxation will be performed.
  Handling of forces: Unphysical translation and rotation will be removed from forces.
  No accuracy limit for integral partition fn. given. Defaulting to  0.1000E-14.
  No threshold value for u(r) in integrations given. Defaulting to  0.1000E-05.
  No accuracy for occupation numbers given. Defaulting to  0.1000E-07.
  No threshold value for occupation numbers given. Defaulting to  0.0000E+00.
  No accuracy for fermi level given. Defaulting to  0.1000E-19.
  Maximum # of iterations to find E_F not set. Defaulting to  200.
  Preferred method for the eigenvalue solver ('KS_method') not specified in 'control.in'.
  Calling blacs routine to test compilation state
  Since scalapack support is enabled, defaulting to 'elpa'.
  Preferred method for the MBD eigenvalue solver ('mbd_eigensolver') not specified in 'control.in'.
  Calling blacs routine to test compilation state
  Since scalapack support is enabled, defaulting to 'scaLAPACK'.
  Will not use alltoall communication since running on < 1024 CPUs.
  Threshold for basis singularities not set.
  Default threshold for basis singularities:  0.1000E-04
  partition_type (choice of integration weights) for integrals was not specified.
  | Using a version of the partition function of Stratmann and coworkers ('stratmann_smoother').
  | At each grid point, the set of atoms used to build the partition table is smoothly restricted to
  | only those atoms whose free-atom density would be non-zero at that grid point.
  Partitioning for Hartree potential was not defined. Using partition_type for integrals.
  | Adjusted default value of keyword multip_moments_threshold to:       0.10000000E-11
  | This value may affect high angular momentum components of the Hartree potential in periodic systems.
  No q(lm)/r^(l+1) cutoff set for long-range Hartree potential.
  | Using default value of  0.100000E-09 .
  | Verify using the multipole_threshold keyword.
  Defaulting to new monopole extrapolation.
  Density update method: automatic selection selected.
------------------------------------------------------------


------------------------------------------------------------
          Reading geometry description geometry.in.
------------------------------------------------------------
 * Warning! You did not set the 'relativistic' flag in input file 'control.in'.
 * Since you are not attempting to treat any elements beyond Ca(Z=20), FHI-aims
 * will default to 'relativistic none'.
 * You must ensure that this is really what you want!!
 * For example, DO NOT compute total-energy differences between results from
 * different settings of the 'relativistic' flag.
  Input structure read successfully.
  The structure contains       32 atoms,  and a total of        116.000 electrons.

  Input geometry:
  | No unit cell requested.
  | Atomic structure:
  |       Atom                x [A]            y [A]            z [A]
  |    1: Species C             -0.377190         0.201570        -0.057086
  |    2: Species C             -0.291220         0.260204         1.459313
  |    3: Species O              0.770288         0.435560         2.049004
  |    4: Species H              0.125605         1.082942        -0.472566
  |    5: Species H             -1.403801         0.158859        -0.443145
  |    6: Species H              0.171047        -0.682966        -0.406720
  |    7: Species N             -1.492075         0.117714         2.113307
  |    8: Species C             -1.579212        -0.058027         3.568459
  |    9: Species C             -2.967025        -0.568338         3.992652
  |   10: Species O             -3.056055        -1.470884         4.817623
  |   11: Species H             -2.266617        -0.240776         1.565839
  |   12: Species H             -0.890242        -0.860899         3.867926
  |   13: Species C             -1.194119         1.200222         4.365680
  |   14: Species H             -1.262791         0.978732         5.438086
  |   15: Species H             -1.854600         2.050477         4.151160
  |   16: Species H             -0.163951         1.484816         4.127975
  |   17: Species N             -4.093914        -0.013655         3.428178
  |   18: Species C             -4.248983         1.262528         2.741458
  |   19: Species C             -5.120590         2.180627         3.623146
  |   20: Species O             -6.010930         1.709771         4.327538
  |   21: Species H             -4.951813        -0.334185         3.881407
  |   22: Species H             -3.258345         1.701316         2.589756
  |   23: Species C             -4.933617         1.087565         1.375406
  |   24: Species H             -5.073473         2.052594         0.869825
  |   25: Species H             -5.919681         0.622397         1.502192
  |   26: Species H             -4.331455         0.443105         0.721194
  |   27: Species N             -4.884743         3.521479         3.550517
  |   28: Species C             -3.875286         4.214284         2.764544
  |   29: Species H             -5.521531         4.077691         4.112878
  |   30: Species H             -3.919746         5.280154         3.010695
  |   31: Species H             -4.042245         4.114320         1.681495
  |   32: Species H             -2.858857         3.865572         2.996248
  |

  | The smallest distance between any two atoms is         1.01397769 AA.
  |
  | The first atom of this pair is atom number                      7 .
  | The second atom of this pair is atom number                    11 .

  Number of empty states per atom not set in control.in - providing a guess from actual geometry.
  | Total number of empty states used during s.c.f. cycle:       71
  If you use a very high smearing, use empty_states (per atom!) in control.in to increase this value.

  Structure-dependent array size parameters: 
  | Maximum number of distinct radial functions  :       40
  | Maximum number of basis functions            :      840
  | Number of Kohn-Sham states (occupied + empty):      129
------------------------------------------------------------

------------------------------------------------------------
          Preparing all fixed parts of the calculation.
------------------------------------------------------------
  Determining machine precision:
    2.225073858507201E-308
  Setting up grids for atomic and cluster calculations.

  Creating wave function, potential, and density for free atoms.

  Species: H

  List of occupied orbitals and eigenvalues:
    n    l              occ      energy [Ha]    energy [eV]
    1    0           1.0000        -0.238382        -6.4867


  Species: C

  List of occupied orbitals and eigenvalues:
    n    l              occ      energy [Ha]    energy [eV]
    1    0           2.0000       -10.041232      -273.2358
    2    0           2.0000        -0.504327       -13.7234
    2    1           2.0000        -0.193750        -5.2722


  Species: N

  List of occupied orbitals and eigenvalues:
    n    l              occ      energy [Ha]    energy [eV]
    1    0           2.0000       -14.129007      -384.4699
    2    0           2.0000        -0.681802       -18.5528
    2    1           3.0000        -0.260543        -7.0897


  Species: O

  List of occupied orbitals and eigenvalues:
    n    l              occ      energy [Ha]    energy [eV]
    1    0           2.0000       -18.898576      -514.2564
    2    0           2.0000        -0.878795       -23.9132
    2    1           4.0000        -0.332075        -9.0362

  Creating fixed part of basis set: Ionic, confined, hydrogenic.
 
  H                    hydrogenic:
 
  List of hydrogenic basis orbitals: 
    n    l      effective z      eigenvalue [eV]  inner max. [A]     outer max. [A]     outer radius [A]   
    2    0         2.100000       -14.9965           0.193243           1.317208           5.373006
    2    1         3.500000       -41.6672           0.602369           0.602369           4.056063
    1    0         0.850000        -9.8292           0.624871           0.624871           5.373006
    2    1         3.700000       -46.5653           0.573622           0.573622           3.910002
    2    0         1.200000        -4.5995           0.334980           2.228188           5.505995
    3    2         7.000000       -74.0753           0.680699           0.680699           3.769201
 
 
  C                    hydrogenic:
 
  List of hydrogenic basis orbitals: 
    n    l      effective z      eigenvalue [eV]  inner max. [A]     outer max. [A]     outer radius [A]   
    2    1         1.700000        -9.8152           1.245706           1.245706           5.401630
    3    2         6.000000       -54.4226           0.792453           0.792453           4.178599
    2    0         4.900000       -81.6681           0.082559           0.562749           3.353238
    4    3         9.800000       -81.6681           0.863254           0.863254           4.028125
    3    1         5.200000       -40.8774           0.305389           1.215618           4.898362
    3    0         4.300000       -27.9508           0.091041           1.610311           5.401630
    5    4        14.400000      -112.8510           0.917666           0.917666           3.883070
    3    2         6.200000       -58.1113           0.763917           0.763917           4.077671
 
 
  N                    hydrogenic:
 
  List of hydrogenic basis orbitals: 
    n    l      effective z      eigenvalue [eV]  inner max. [A]     outer max. [A]     outer radius [A]   
    2    1         1.800000       -11.0118           1.177451           1.177451           5.427479
    3    2         6.800000       -69.9029           0.704619           0.704619           3.854246
    3    0         5.800000       -50.8549           0.067388           1.191934           4.629968
    4    3        10.800000       -99.1854           0.786571           0.786571           3.761152
    3    1         5.800000       -50.8549           0.274880           1.094176           4.518138
    1    0         0.800000        -8.7059           0.662839           0.662839           5.361532
    5    4        16.000000      -139.3222           0.825990           0.825990           3.625711
    3    2         4.900000       -36.2967           0.968267           0.968267           4.862000
 
 
  O                    hydrogenic:
 
  List of hydrogenic basis orbitals: 
    n    l      effective z      eigenvalue [eV]  inner max. [A]     outer max. [A]     outer radius [A]   
    2    1         1.800000       -11.0118           1.178562           1.178562           5.432602
    3    2         7.600000       -87.3182           0.624125           0.624125           3.541477
    3    0         6.400000       -61.9209           0.061167           1.081902           4.306578
    4    3        11.600000      -114.4238           0.731631           0.731631           3.585037
    3    1         6.200000       -58.1113           0.255680           1.030270           4.306578
    3    2         5.600000       -47.4081           0.847233           0.847233           4.413171
    5    4        17.600000      -168.5799           0.749740           0.749740           3.372465
    1    0         0.750000        -7.6499           0.705284           0.705284           5.366593
 

  Adding cutoff potential to free-atom effective potential.
  Creating atomic-like basis functions for current effective potential.

  Species H                   :

  List of atomic basis orbitals and eigenvalues:
    n    l      energy [Ha]    energy [eV]    outer radius [A]
    1    0        -0.238382        -6.4867       5.373006


  Species C                   :

  List of atomic basis orbitals and eigenvalues:
    n    l      energy [Ha]    energy [eV]    outer radius [A]
    1    0       -10.041232      -273.2358       1.934409
    2    0        -0.504327       -13.7234       5.271162
    2    1        -0.193750        -5.2722       5.401630


  Species N                   :

  List of atomic basis orbitals and eigenvalues:
    n    l      energy [Ha]    energy [eV]    outer radius [A]
    1    0       -14.129007      -384.4699       1.637919
    2    0        -0.681802       -18.5528       5.168461
    2    1        -0.260543        -7.0897       5.361532


  Species O                   :

  List of atomic basis orbitals and eigenvalues:
    n    l      energy [Ha]    energy [eV]    outer radius [A]
    1    0       -18.898576      -514.2564       1.415765
    2    0        -0.878795       -23.9132       5.048385
    2    1        -0.332075        -9.0362       5.301386

  Assembling full basis from fixed parts.
  | Species H :   atomic orbital   1 s accepted.
  | Species H :    hydro orbital   2 s accepted.
  | Species H :    hydro orbital   1 s accepted.
  | Species H :    hydro orbital   2 s accepted.
  | Species H :    hydro orbital   2 p accepted.
  | Species H :    hydro orbital   2 p accepted.
  | Species H :    hydro orbital   3 d accepted.
  | Species C :   atomic orbital   1 s accepted.
  | Species C :    hydro orbital   2 s accepted.
  | Species C :   atomic orbital   2 s accepted.
  | Species C :    hydro orbital   3 s accepted.
  | Species C :    hydro orbital   3 p accepted.
  | Species C :   atomic orbital   2 p accepted.
  | Species C :    hydro orbital   2 p accepted.
  | Species C :    hydro orbital   3 d accepted.
  | Species C :    hydro orbital   3 d accepted.
  | Species C :    hydro orbital   4 f accepted.
  | Species C :    hydro orbital   5 g accepted.
  | Species N :   atomic orbital   1 s accepted.
  | Species N :    hydro orbital   3 s accepted.
  | Species N :   atomic orbital   2 s accepted.
  | Species N :    hydro orbital   1 s accepted.
  | Species N :    hydro orbital   3 p accepted.
  | Species N :   atomic orbital   2 p accepted.
  | Species N :    hydro orbital   2 p accepted.
  | Species N :    hydro orbital   3 d accepted.
  | Species N :    hydro orbital   3 d accepted.
  | Species N :    hydro orbital   4 f accepted.
  | Species N :    hydro orbital   5 g accepted.
  | Species O :   atomic orbital   1 s accepted.
  | Species O :    hydro orbital   3 s accepted.
  | Species O :   atomic orbital   2 s accepted.
  | Species O :    hydro orbital   1 s accepted.
  | Species O :    hydro orbital   3 p accepted.
  | Species O :   atomic orbital   2 p accepted.
  | Species O :    hydro orbital   2 p accepted.
  | Species O :    hydro orbital   3 d accepted.
  | Species O :    hydro orbital   3 d accepted.
  | Species O :    hydro orbital   4 f accepted.
  | Species O :    hydro orbital   5 g accepted.
 
  Basis size parameters after reduction:
  | Total number of radial functions:       40
  | Total number of basis functions :      840
 
  Testing on-site integration grid accuracy.
  |  Species  Function  <phi|h_atom|phi> (log., in eV)  <phi|h_atom|phi> (rad., in eV)
           1        1                 -6.4869821809                 -6.4870742227
           1        2                 13.5044133542                 13.5041049177
           1        3                 32.7854418792                 32.7779770519
           1        4                 33.7995553101                 33.7152624900 ***
           1        5                 28.8558651799                 28.8558652046
           1        6                 59.6361831893                 59.6362535845
           1        7                 60.2733718049                 60.2733715484
           2        8               -273.2358277112               -273.2358261765
           2        9                -10.7624923123                -10.7625144012
           2       10                 17.4634079027                 17.4634252127
           2       11                 53.0363661832                 53.0366180446
           2       12                 15.0981351967                 15.0981317714
           2       13                  3.8522181899                  3.8522770949
           2       14                 12.1181835661                 12.1206868578
           2       15                 29.4320778347                 29.4320780959
           2       16                 54.8753777694                 54.8752901936
           2       17                 59.3533975461                 59.3533974833
           2       18                 93.4537491195                 93.4537492066
           3       19               -384.4698526889               -384.4698499465
           3       20                 12.5691022037                 12.5690910168
           3       21                -15.7489097511                -15.7489165588
           3       22                 27.0978334940                 27.0985589490
           3       23                 18.5949116966                 18.5949125562
           3       24                  1.2212828291                  1.2212855301
           3       25                 13.4428926797                 13.4434051125
           3       26                 35.9380614500                 35.9380613666
           3       27                 39.9231532098                 39.9231654735
           3       28                 72.9957335806                 72.9957336833
           3       29                116.4231321147                116.4231321431
           4       30               -514.2564144315               -514.2564099626
           4       31                 15.1726678541                 15.1726530877
           4       32                -21.5447785304                -21.5447874973
           4       33                 14.4944558459                 14.4944698284
           4       34                 20.8882174564                 20.8882178906
           4       35                 -2.4850315908                 -2.4850322289
           4       36                 13.8600193195                 13.8599826966
           4       37                 45.8243383616                 45.8243383675
           4       38                 52.1840606465                 52.1840622440
           4       39                 85.4074185510                 85.4074185819
           4       40                142.0983717302                142.0983717339
 * Note: Onsite integrals marked "***" above are less accurate than
 * onsite_accuracy_threshold =    0.03000 eV. Usually, this is harmless.
 * When in doubt, tighten the "radial" and/or "radial_multiplier" flags to check.

  Preparing densities etc. for the partition functions (integrals / Hartree potential).

  Preparations completed.
  max(cpu_time)          :      0.240 s.
  Wall clock time (cpu1) :      0.239 s.
------------------------------------------------------------

------------------------------------------------------------
          Begin self-consistency loop: Initialization.

          Date     :  20170309, Time     :  175941.469
------------------------------------------------------------

  Initializing index lists of integration centers etc. from given atomic structure:
  | Number of centers in hartree potential         :        32
  | Number of centers in hartree multipole         :        32
  | Number of centers in electron density summation:        32
  | Number of centers in basis integrals           :        32
  | Number of centers in integrals                 :        32
  | Number of centers in hamiltonian               :        32
  Using modified Scalapack Eigenvalue solver (ELPA)
  * Using 32 tasks for Scalapack Eigenvalue solver.
  Detailed listing of tasks and assigned k-points:
  (for non-periodic systems, the "k-point" denotes an internal label only)
   Task     0 k-point     1 on eos060
   Task     1 k-point     1 on eos060
   Task     2 k-point     1 on eos060
   Task     3 k-point     1 on eos060
   Task     4 k-point     1 on eos060
   Task     5 k-point     1 on eos060
   Task     6 k-point     1 on eos060
   Task     7 k-point     1 on eos060
   Task     8 k-point     1 on eos060
   Task     9 k-point     1 on eos060
   Task    10 k-point     1 on eos060
   Task    11 k-point     1 on eos060
   Task    12 k-point     1 on eos060
   Task    13 k-point     1 on eos060
   Task    14 k-point     1 on eos060
   Task    15 k-point     1 on eos060
   Task    16 k-point     1 on eos060
   Task    17 k-point     1 on eos060
   Task    18 k-point     1 on eos060
   Task    19 k-point     1 on eos060
   Task    20 k-point     1 on eos060
   Task    21 k-point     1 on eos060
   Task    22 k-point     1 on eos060
   Task    23 k-point     1 on eos060
   Task    24 k-point     1 on eos060
   Task    25 k-point     1 on eos060
   Task    26 k-point     1 on eos060
   Task    27 k-point     1 on eos060
   Task    28 k-point     1 on eos060
   Task    29 k-point     1 on eos060
   Task    30 k-point     1 on eos060
   Task    31 k-point     1 on eos060
  Tasks:    32 split into      8 X      4 BLACS grid
  Calculating blocksize based on n_basis =          840 max_nprow =            8 max_npcol =            4
  Scalapack blocksize set to:           16
  Required Scalapack workspace - INTEGER:            1 REAL:             1
  Partitioning the integration grid into batches with parallel hashing+maxmin method.
  | Number of batches:     4899
  | Maximal batch size:     200
  | Minimal batch size:      19
  | Average batch size:     107.722
  | Standard deviation of batch sizes:      32.967

  Integration load balanced across    32 MPI tasks.
  Work distribution over tasks is as follows:
  Task     0 has      16593 integration points.
  Task     1 has      16448 integration points.
  Task     2 has      16452 integration points.
  Task     3 has      16587 integration points.
  Task     4 has      16588 integration points.
  Task     5 has      16439 integration points.
  Task     6 has      16571 integration points.
  Task     7 has      16462 integration points.
  Task     8 has      16487 integration points.
  Task     9 has      16462 integration points.
  Task    10 has      16572 integration points.
  Task    11 has      16509 integration points.
  Task    12 has      16577 integration points.
  Task    13 has      16440 integration points.
  Task    14 has      16584 integration points.
  Task    15 has      16456 integration points.
  Task    16 has      16518 integration points.
  Task    17 has      16453 integration points.
  Task    18 has      16455 integration points.
  Task    19 has      16521 integration points.
  Task    20 has      16450 integration points.
  Task    21 has      16453 integration points.
  Task    22 has      16465 integration points.
  Task    23 has      16438 integration points.
  Task    24 has      16512 integration points.
  Task    25 has      16441 integration points.
  Task    26 has      16451 integration points.
  Task    27 has      16461 integration points.
  Task    28 has      16439 integration points.
  Task    29 has      16537 integration points.
  Task    30 has      16457 integration points.
  Task    31 has      16450 integration points.
  Initializing partition tables, free-atom densities, potentials, etc. across the integration grid (initialize_grid_storage).
  | initialize_grid_storage: Actual outermost partition radius vs. multipole_radius_free
  | (-- VB: in principle, multipole_radius_free should be larger, hence this output)
  | Species        1: Confinement radius =              6.000000000000000 AA, multipole_radius_free =              6.071692442739658 AA.
  | Species        1: outer_partition_radius set to              6.071692442739658 AA .
  | Species        2: Confinement radius =              6.000000000000000 AA, multipole_radius_free =              6.029870734432609 AA.
  | Species        2: outer_partition_radius set to              6.029870734432609 AA .
  | Species        3: Confinement radius =              6.000000000000000 AA, multipole_radius_free =              6.058726835495003 AA.
  | Species        3: outer_partition_radius set to              6.058726835495003 AA .
  | Species        4: Confinement radius =              6.000000000000000 AA, multipole_radius_free =              6.064445521808699 AA.
  | Species        4: outer_partition_radius set to              6.064445521808699 AA .
  | Original list of interatomic distances with          32 x         32 entries is created.
  | Net number of integration points:   527728
  | of which are non-zero points    :   413762
  Obtaining max. number of non-zero basis functions in each batch (get_n_compute_maxes).
  | Maximal number of non-zero basis functions:      795 in task     0
  | Maximal number of non-zero basis functions:      797 in task     1
  | Maximal number of non-zero basis functions:      807 in task     2
  | Maximal number of non-zero basis functions:      798 in task     3
  | Maximal number of non-zero basis functions:      797 in task     4
  | Maximal number of non-zero basis functions:      794 in task     5
  | Maximal number of non-zero basis functions:      774 in task     6
  | Maximal number of non-zero basis functions:      807 in task     7
  | Maximal number of non-zero basis functions:      792 in task     8
  | Maximal number of non-zero basis functions:      803 in task     9
  | Maximal number of non-zero basis functions:      778 in task    10
  | Maximal number of non-zero basis functions:      811 in task    11
  | Maximal number of non-zero basis functions:      799 in task    12
  | Maximal number of non-zero basis functions:      773 in task    13
  | Maximal number of non-zero basis functions:      778 in task    14
  | Maximal number of non-zero basis functions:      799 in task    15
  | Maximal number of non-zero basis functions:      779 in task    16
  | Maximal number of non-zero basis functions:      791 in task    17
  | Maximal number of non-zero basis functions:      803 in task    18
  | Maximal number of non-zero basis functions:      795 in task    19
  | Maximal number of non-zero basis functions:      800 in task    20
  | Maximal number of non-zero basis functions:      787 in task    21
  | Maximal number of non-zero basis functions:      785 in task    22
  | Maximal number of non-zero basis functions:      792 in task    23
  | Maximal number of non-zero basis functions:      803 in task    24
  | Maximal number of non-zero basis functions:      788 in task    25
  | Maximal number of non-zero basis functions:      792 in task    26
  | Maximal number of non-zero basis functions:      792 in task    27
  | Maximal number of non-zero basis functions:      800 in task    28
  | Maximal number of non-zero basis functions:      810 in task    29
  | Maximal number of non-zero basis functions:      777 in task    30
  | Maximal number of non-zero basis functions:      788 in task    31
  Selecting the method for density update.
  Loop over occupied states selected for charge density update.
  Integrating Hamiltonian matrix: batch-based integration.
  Time summed over all CPUs for integration: real work       22.529 s, elapsed       23.353 s
  Integrating overlap matrix.
  Time summed over all CPUs for integration: real work       13.650 s, elapsed       14.067 s
  Deallocating overlap matrix.

  Updating Kohn-Sham eigenvalues, eigenvectors, occupation numbers, and Fermi level.
  Solving generalized eigenproblem
  Solving real symmetric generalised eigenvalue problem by standard ScaLAPACK.
  Transforming overlap matrix with ScaLAPACK and checking for singularities.
  : Overlap matrix is nonsingular, using Cholesky decomposition
  | Lowest eigenvalue:  0.850210E-04
  Factoring overlap matrix with Cholesky decomposition
  Using Cholesky factor for transformation
  Using 1-stage real ELPA solver
  Determining occupation numbers for Kohn-Sham eigenstates.
  | Chemical potential (Fermi level) in eV                 : -.94320698E+01
  | Error in electron count due to remaining E_F inaccuracy: 0.00000000E+00
  | Maximum occupation number of highest empty state:  0.00E+00

  Writing Kohn-Sham eigenvalues.

  State    Occupation    Eigenvalue [Ha]    Eigenvalue [eV]
      1       2.00000         -18.974841         -516.33170
      2       2.00000         -18.974680         -516.32730
      3       2.00000         -18.974222         -516.31485
      4       2.00000         -14.255101         -387.90104
      5       2.00000         -14.252670         -387.83488
      6       2.00000         -14.251960         -387.81555
      7       2.00000         -10.170638         -276.75715
      8       2.00000         -10.170600         -276.75610
      9       2.00000         -10.170165         -276.74428
     10       2.00000         -10.166514         -276.64493
     11       2.00000         -10.149294         -276.17634
     12       2.00000         -10.147822         -276.13630
     13       2.00000         -10.135763         -275.80814
     14       2.00000         -10.134766         -275.78101
     15       2.00000         -10.134035         -275.76111
     16       2.00000          -1.135203          -30.89045
     17       2.00000          -1.131841          -30.79896
     18       2.00000          -1.130265          -30.75607
     19       2.00000          -1.019151          -27.73251
     20       2.00000          -1.011847          -27.53376
     21       2.00000          -1.004113          -27.32331
     22       2.00000          -0.886788          -24.13074
     23       2.00000          -0.875548          -23.82488
     24       2.00000          -0.841098          -22.88744
     25       2.00000          -0.816461          -22.21704
     26       2.00000          -0.775119          -21.09207
     27       2.00000          -0.763406          -20.77333
     28       2.00000          -0.701209          -19.08086
     29       2.00000          -0.687337          -18.70340
     30       2.00000          -0.675396          -18.37845
     31       2.00000          -0.639300          -17.39623
     32       2.00000          -0.626153          -17.03849
     33       2.00000          -0.606258          -16.49711
     34       2.00000          -0.600333          -16.33591
     35       2.00000          -0.591122          -16.08524
     36       2.00000          -0.574135          -15.62301
     37       2.00000          -0.572406          -15.57597
     38       2.00000          -0.565625          -15.39143
     39       2.00000          -0.558068          -15.18581
     40       2.00000          -0.551228          -14.99966
     41       2.00000          -0.548540          -14.92654
     42       2.00000          -0.547135          -14.88831
     43       2.00000          -0.538933          -14.66512
     44       2.00000          -0.530300          -14.43019
     45       2.00000          -0.521884          -14.20118
     46       2.00000          -0.515309          -14.02228
     47       2.00000          -0.510302          -13.88603
     48       2.00000          -0.500409          -13.61681
     49       2.00000          -0.493055          -13.41672
     50       2.00000          -0.488154          -13.28336
     51       2.00000          -0.484032          -13.17119
     52       2.00000          -0.470133          -12.79298
     53       2.00000          -0.409503          -11.14315
     54       2.00000          -0.406232          -11.05413
     55       2.00000          -0.396363          -10.78560
     56       2.00000          -0.389040          -10.58632
     57       2.00000          -0.385327          -10.48527
     58       2.00000          -0.382346          -10.40415
     59       0.00000          -0.172180           -4.68525
     60       0.00000          -0.159991           -4.35358
     61       0.00000          -0.153148           -4.16737
     62       0.00000          -0.088981           -2.42130
     63       0.00000          -0.070288           -1.91263
     64       0.00000          -0.060822           -1.65505
     65       0.00000          -0.052224           -1.42108
     66       0.00000          -0.047764           -1.29972
     67       0.00000          -0.043279           -1.17767
     68       0.00000          -0.032285           -0.87853
     69       0.00000          -0.029652           -0.80687
     70       0.00000          -0.023132           -0.62947
     71       0.00000          -0.020912           -0.56906
     72       0.00000          -0.018072           -0.49176
     73       0.00000          -0.014353           -0.39056
     74       0.00000          -0.009605           -0.26137
     75       0.00000          -0.001844           -0.05017
     76       0.00000           0.000445            0.01211
     77       0.00000           0.002074            0.05645
     78       0.00000           0.007062            0.19216
     79       0.00000           0.017982            0.48930
     80       0.00000           0.019077            0.51912
     81       0.00000           0.021641            0.58888
     82       0.00000           0.029171            0.79380
     83       0.00000           0.033809            0.91999
     84       0.00000           0.039984            1.08802
     85       0.00000           0.042123            1.14622
     86       0.00000           0.049199            1.33876
     87       0.00000           0.057466            1.56373
     88       0.00000           0.062568            1.70255
     89       0.00000           0.067632            1.84037
     90       0.00000           0.070601            1.92115
     91       0.00000           0.077524            2.10952
     92       0.00000           0.087868            2.39100
     93       0.00000           0.091024            2.47689
     94       0.00000           0.096175            2.61705
     95       0.00000           0.097916            2.66443
     96       0.00000           0.103143            2.80667
     97       0.00000           0.103629            2.81989
     98       0.00000           0.110466            3.00593
     99       0.00000           0.120224            3.27145
    100       0.00000           0.128331            3.49206
    101       0.00000           0.133555            3.63423
    102       0.00000           0.139249            3.78917
    103       0.00000           0.142629            3.88113
    104       0.00000           0.143850            3.91435
    105       0.00000           0.146517            3.98694
    106       0.00000           0.149422            4.06599
    107       0.00000           0.153079            4.16549
    108       0.00000           0.158985            4.32621
    109       0.00000           0.163116            4.43862
    110       0.00000           0.168775            4.59260
    111       0.00000           0.179696            4.88978
    112       0.00000           0.180647            4.91567
    113       0.00000           0.189146            5.14691
    114       0.00000           0.192584            5.24049
    115       0.00000           0.196707            5.35266
    116       0.00000           0.204520            5.56529
    117       0.00000           0.210091            5.71687
    118       0.00000           0.215178            5.85528
    119       0.00000           0.217622            5.92179
    120       0.00000           0.225048            6.12386
    121       0.00000           0.229241            6.23797
    122       0.00000           0.235574            6.41030
    123       0.00000           0.240502            6.54440
    124       0.00000           0.243565            6.62773
    125       0.00000           0.247968            6.74756
    126       0.00000           0.250649            6.82050
    127       0.00000           0.256374            6.97630
    128       0.00000           0.258323            7.02933
    129       0.00000           0.270811            7.36916

  Highest occupied state (VBM) at    -10.40415252 eV
  | Occupation number:      2.00000000

  Lowest unoccupied state (CBM) at    -4.68525069 eV
  | Occupation number:      0.00000000

  Overall HOMO-LUMO gap:      5.71890183 eV.
  Calculating total energy contributions from superposition of free atom densities.

  Total energy components:
  | Sum of eigenvalues            :        -437.83896119 Ha      -11914.20432196 eV
  | XC energy correction          :         -98.82007747 Ha       -2689.03112435 eV
  | XC potential correction       :         127.02160944 Ha        3456.43385428 eV
  | Free-atom electrostatic energy:        -333.63792316 Ha       -9078.74981079 eV
  | Hartree energy correction     :           0.00000000 Ha           0.00000000 eV
  | MBD@rsSCS energy              :           0.00000000 Ha           0.00000000 eV
  | Entropy correction            :          -0.00000000 Ha          -0.00000000 eV
  | ---------------------------
  | Total energy                  :        -743.27535237 Ha      -20225.55140282 eV
  | Total energy, T -> 0          :        -743.27535237 Ha      -20225.55140282 eV  <-- do not rely on this value for anything but (periodic) metals
  | Electronic free energy        :        -743.27535237 Ha      -20225.55140282 eV

  Derived energy quantities:
  | Kinetic energy                :         735.16416605 Ha       20004.83479306 eV
  | Electrostatic energy          :       -1379.61944096 Ha      -37541.35507154 eV
  | Energy correction for multipole
  | error in Hartree potential    :           0.00000000 Ha           0.00000000 eV
  | Sum of eigenvalues per atom                           :        -372.31888506 eV
  | Total energy (T->0) per atom                          :        -632.04848134 eV  <-- do not rely on this value for anything but (periodic) metals
  | Electronic free energy per atom                       :        -632.04848134 eV
  Initialize hartree_potential_storage
  Max. number of atoms included in rho_multipole:           32

  End scf initialization - timings             :  max(cpu_time)    wall_clock(cpu1)
  | Time for scf. initialization               :        1.944 s           1.943 s
  | Boundary condition initialization          :        0.004 s           0.000 s
  | Integration                                :        1.196 s           1.191 s
  | Solution of K.-S. eqns.                    :        0.076 s           0.075 s
  | Grid partitioning                          :        0.304 s           0.299 s
  | Preloading free-atom quantities on grid    :        0.028 s           0.028 s
  | Free-atom superposition energy             :        0.044 s           0.040 s
  | Total energy evaluation                    :        0.000 s           0.001 s
------------------------------------------------------------

------------------------------------------------------------
          Begin self-consistency iteration #    1

  Date     :  20170309, Time     :  175943.413
------------------------------------------------------------
  Evaluating new KS density.
  Integration grid: deviation in total charge (<rho> - N_e) =   5.684342E-14
  Pulay mixing of updated and previous charge densities.

  Evaluating partitioned Hartree potential by multipole expansion.
  | Analytical far-field extrapolation by fixed multipoles:
  | Hartree multipole sum: apparent total charge =  -0.347480E-05
  Summing up the Hartree potential.
  Time summed over all CPUs for potential: real work        9.625 s, elapsed        9.783 s
  | RMS charge density error from multipole expansion :   0.106673E-01

  Integrating Hamiltonian matrix: batch-based integration.
  Time summed over all CPUs for integration: real work       22.592 s, elapsed       23.410 s

  Updating Kohn-Sham eigenvalues, eigenvectors, occupation numbers, and Fermi level.
  Solving generalized eigenproblem
  Solving real symmetric generalised eigenvalue problem by standard ScaLAPACK.
  Using Cholesky factor for transformation
  Using 2-stage real ELPA solver
  K-Point:    1, Trafo times: 1-stage=     0.021 s, 2-stage=     0.019 s ==> Using 2-stage solver
  Determining occupation numbers for Kohn-Sham eigenstates.
  | Chemical potential (Fermi level) in eV                 : -.39256121E+01
  | Error in electron count due to remaining E_F inaccuracy: 0.00000000E+00
  | Maximum occupation number of highest empty state:  0.00E+00

  Writing Kohn-Sham eigenvalues.

  State    Occupation    Eigenvalue [Ha]    Eigenvalue [eV]
      1       2.00000         -18.623086         -506.75996
      2       2.00000         -18.617527         -506.60867
      3       2.00000         -18.611405         -506.44209
      4       2.00000         -13.998654         -380.92276
      5       2.00000         -13.998146         -380.90894
      6       2.00000         -13.990815         -380.70944
      7       2.00000         -10.063374         -273.83833
      8       2.00000         -10.060077         -273.74861
      9       2.00000         -10.053155         -273.56025
     10       2.00000          -9.974588         -271.42236
     11       2.00000          -9.959544         -271.01298
     12       2.00000          -9.909948         -269.66340
     13       2.00000          -9.853725         -268.13350
     14       2.00000          -9.851650         -268.07704
     15       2.00000          -9.832647         -267.55993
     16       2.00000          -0.972789          -26.47094
     17       2.00000          -0.963711          -26.22391
     18       2.00000          -0.955551          -26.00186
     19       2.00000          -0.874347          -23.79219
     20       2.00000          -0.869647          -23.66429
     21       2.00000          -0.861513          -23.44297
     22       2.00000          -0.742742          -20.21104
     23       2.00000          -0.732513          -19.93270
     24       2.00000          -0.689429          -18.76032
     25       2.00000          -0.686551          -18.68200
     26       2.00000          -0.640414          -17.42655
     27       2.00000          -0.626920          -17.05936
     28       2.00000          -0.577548          -15.71589
     29       2.00000          -0.566918          -15.42662
     30       2.00000          -0.549992          -14.96605
     31       2.00000          -0.511792          -13.92658
     32       2.00000          -0.493442          -13.42724
     33       2.00000          -0.473346          -12.88039
     34       2.00000          -0.460482          -12.53035
     35       2.00000          -0.452473          -12.31241
     36       2.00000          -0.450642          -12.26260
     37       2.00000          -0.440682          -11.99158
     38       2.00000          -0.428275          -11.65395
     39       2.00000          -0.424173          -11.54234
     40       2.00000          -0.407015          -11.07544
     41       2.00000          -0.404864          -11.01692
     42       2.00000          -0.398743          -10.85034
     43       2.00000          -0.392805          -10.68877
     44       2.00000          -0.383429          -10.43363
     45       2.00000          -0.379146          -10.31710
     46       2.00000          -0.367146           -9.99056
     47       2.00000          -0.361887           -9.84744
     48       2.00000          -0.361149           -9.82736
     49       2.00000          -0.355981           -9.68673
     50       2.00000          -0.348893           -9.49387
     51       2.00000          -0.341331           -9.28808
     52       2.00000          -0.326122           -8.87423
     53       2.00000          -0.244145           -6.64353
     54       2.00000          -0.241042           -6.55908
     55       2.00000          -0.235332           -6.40370
     56       2.00000          -0.222882           -6.06492
     57       2.00000          -0.211982           -5.76833
     58       2.00000          -0.205713           -5.59775
     59       0.00000          -0.058201           -1.58373
     60       0.00000          -0.053203           -1.44772
     61       0.00000          -0.045023           -1.22513
     62       0.00000          -0.040822           -1.11082
     63       0.00000          -0.030355           -0.82600
     64       0.00000          -0.017308           -0.47098
     65       0.00000          -0.007675           -0.20884
     66       0.00000          -0.002080           -0.05660
     67       0.00000           0.007400            0.20135
     68       0.00000           0.014952            0.40687
     69       0.00000           0.021128            0.57492
     70       0.00000           0.024724            0.67276
     71       0.00000           0.028713            0.78133
     72       0.00000           0.035254            0.95931
     73       0.00000           0.039487            1.07450
     74       0.00000           0.050097            1.36322
     75       0.00000           0.052488            1.42828
     76       0.00000           0.059281            1.61311
     77       0.00000           0.064934            1.76694
     78       0.00000           0.068074            1.85240
     79       0.00000           0.068580            1.86615
     80       0.00000           0.079544            2.16451
     81       0.00000           0.084382            2.29615
     82       0.00000           0.090358            2.45877
     83       0.00000           0.096427            2.62391
     84       0.00000           0.103275            2.81024
     85       0.00000           0.107612            2.92828
     86       0.00000           0.111105            3.02331
     87       0.00000           0.118187            3.21603
     88       0.00000           0.122250            3.32658
     89       0.00000           0.130542            3.55223
     90       0.00000           0.135030            3.67435
     91       0.00000           0.140123            3.81294
     92       0.00000           0.147719            4.01963
     93       0.00000           0.151469            4.12167
     94       0.00000           0.156559            4.26019
     95       0.00000           0.162808            4.43022
     96       0.00000           0.169134            4.60237
     97       0.00000           0.175056            4.76351
     98       0.00000           0.177300            4.82457
     99       0.00000           0.180786            4.91942
    100       0.00000           0.187593            5.10468
    101       0.00000           0.191456            5.20978
    102       0.00000           0.192766            5.24544
    103       0.00000           0.201266            5.47672
    104       0.00000           0.205776            5.59946
    105       0.00000           0.207917            5.65770
    106       0.00000           0.213609            5.81259
    107       0.00000           0.214458            5.83570
    108       0.00000           0.218367            5.94207
    109       0.00000           0.222604            6.05736
    110       0.00000           0.227566            6.19238
    111       0.00000           0.228860            6.22760
    112       0.00000           0.239760            6.52419
    113       0.00000           0.240737            6.55080
    114       0.00000           0.251453            6.84237
    115       0.00000           0.251973            6.85654
    116       0.00000           0.263317            7.16522
    117       0.00000           0.265462            7.22360
    118       0.00000           0.269269            7.32719
    119       0.00000           0.276198            7.51574
    120       0.00000           0.288020            7.83743
    121       0.00000           0.294022            8.00074
    122       0.00000           0.295097            8.03001
    123       0.00000           0.299777            8.15736
    124       0.00000           0.308366            8.39107
    125       0.00000           0.311191            8.46795
    126       0.00000           0.326588            8.88692
    127       0.00000           0.327541            8.91284
    128       0.00000           0.333493            9.07481
    129       0.00000           0.339073            9.22666

  Highest occupied state (VBM) at     -5.59774833 eV
  | Occupation number:      2.00000000

  Lowest unoccupied state (CBM) at    -1.58372733 eV
  | Occupation number:      0.00000000

  Overall HOMO-LUMO gap:      4.01402101 eV.

  Total energy components:
  | Sum of eigenvalues            :        -418.06767681 Ha      -11376.20030068 eV
  | XC energy correction          :        -100.74691465 Ha       -2741.46303167 eV
  | XC potential correction       :         129.52010744 Ha        3524.42144414 eV
  | Free-atom electrostatic energy:        -333.63792316 Ha       -9078.74981079 eV
  | Hartree energy correction     :         -19.77852728 Ha        -538.20111060 eV
  | MBD@rsSCS energy              :           0.00000000 Ha           0.00000000 eV
  | Entropy correction            :           0.00000000 Ha           0.00000000 eV
  | ---------------------------
  | Total energy                  :        -742.71093445 Ha      -20210.19280959 eV
  | Total energy, T -> 0          :        -742.71093445 Ha      -20210.19280959 eV  <-- do not rely on this value for anything but (periodic) metals
  | Electronic free energy        :        -742.71093445 Ha      -20210.19280959 eV

  Derived energy quantities:
  | Kinetic energy                :         744.01451411 Ha       20245.66501701 eV
  | Electrostatic energy          :       -1385.97853391 Ha      -37714.39479494 eV
  | Energy correction for multipole
  | error in Hartree potential    :          -0.04015172 Ha          -1.09258403 eV
  | Sum of eigenvalues per atom                           :        -355.50625940 eV
  | Total energy (T->0) per atom                          :        -631.56852530 eV  <-- do not rely on this value for anything but (periodic) metals
  | Electronic free energy per atom                       :        -631.56852530 eV

  Self-consistency convergence accuracy:
  | Change of charge density      :  0.9031E+00
  | Change of sum of eigenvalues  :  0.5380E+03 eV
  | Change of total energy        :  0.1536E+02 eV

  End self-consistency iteration #     1       :  max(cpu_time)    wall_clock(cpu1)
  | Time for this iteration                    :        1.592 s           1.590 s
[...]
   Multipole                     :  0.448243E+00  0.196318E+00 -0.370417E+00
   Pulay + GGA                   :  0.945066E+01  0.495259E+01 -0.777691E+01
   MBD@rsSCS                     :  0.156630E-01 -0.327546E-02 -0.122909E-01
   ----------------------------------------------------------------
   Total forces(  20)            :  0.481299E-02 -0.723141E-02 -0.127959E-01
  atom #   21
   Hellmann-Feynman              :  0.550429E-01  0.189536E-01  0.108000E-01
   Ionic forces                  :  0.000000E+00  0.000000E+00  0.000000E+00
   Multipole                     : -0.113360E-01  0.341964E-02 -0.258091E-01
   Pulay + GGA                   : -0.556033E-01 -0.216429E-01  0.117681E-01
   MBD@rsSCS                     :  0.350363E-02  0.736908E-02 -0.700375E-02
   ----------------------------------------------------------------
   Total forces(  21)            : -0.839284E-02  0.809940E-02 -0.102447E-01
  atom #   22
   Hellmann-Feynman              : -0.392258E-01 -0.361104E-01 -0.130583E-01
   Ionic forces                  :  0.000000E+00  0.000000E+00  0.000000E+00
   Multipole                     : -0.624912E-02  0.747251E-02  0.141495E-02
   Pulay + GGA                   :  0.427383E-01  0.336051E-01  0.103529E-01
   MBD@rsSCS                     :  0.232930E-01  0.555636E-02  0.499286E-03
   ----------------------------------------------------------------
   Total forces(  22)            :  0.205564E-01  0.105236E-01 -0.791149E-03
  atom #   23
   Hellmann-Feynman              : -0.590521E+00 -0.289607E+00 -0.707428E+00
   Ionic forces                  :  0.000000E+00  0.000000E+00  0.000000E+00
   Multipole                     :  0.220734E+00  0.919690E-01  0.234576E+00
   Pulay + GGA                   :  0.346062E+00  0.192052E+00  0.475798E+00
   MBD@rsSCS                     :  0.190423E-01  0.347614E-02  0.185426E-01
   ----------------------------------------------------------------
   Total forces(  23)            : -0.468325E-02 -0.210992E-02  0.214886E-01
  atom #   24
   Hellmann-Feynman              :  0.421728E-02 -0.278374E-01  0.353676E-01
   Ionic forces                  :  0.000000E+00  0.000000E+00  0.000000E+00
   Multipole                     : -0.667987E-02 -0.254880E-01 -0.802221E-02
   Pulay + GGA                   :  0.247309E-02  0.592298E-01 -0.256068E-01
   MBD@rsSCS                     :  0.643577E-02  0.958956E-02  0.122914E-01
   ----------------------------------------------------------------
   Total forces(  24)            :  0.644628E-02  0.154939E-01  0.140299E-01
  atom #   25
   Hellmann-Feynman              :  0.380747E-01  0.186812E-01  0.345974E-01
   Ionic forces                  :  0.000000E+00  0.000000E+00  0.000000E+00
   Multipole                     :  0.147743E-01  0.730156E-02 -0.218513E-01
   Pulay + GGA                   : -0.535425E-01 -0.279306E-01 -0.451167E-02
   MBD@rsSCS                     :  0.391660E-02  0.717187E-03  0.119012E-01
   ----------------------------------------------------------------
   Total forces(  25)            :  0.322308E-02 -0.123061E-02  0.201356E-01
  atom #   26
   Hellmann-Feynman              : -0.351446E-01  0.197276E-01  0.390065E-01
   Ionic forces                  :  0.000000E+00  0.000000E+00  0.000000E+00
   Multipole                     : -0.259568E-01  0.144864E-01 -0.454817E-02
   Pulay + GGA                   :  0.548636E-01 -0.364935E-01 -0.367564E-01
   MBD@rsSCS                     :  0.162331E-01 -0.365225E-02  0.101374E-01
   ----------------------------------------------------------------
   Total forces(  26)            :  0.999530E-02 -0.593184E-02  0.783931E-02
  atom #   27
   Hellmann-Feynman              : -0.879308E+00 -0.724908E+00  0.101048E+01
   Ionic forces                  :  0.000000E+00  0.000000E+00  0.000000E+00
   Multipole                     : -0.101590E+00 -0.154317E+00  0.811881E-01
   Pulay + GGA                   :  0.976871E+00  0.892256E+00 -0.109547E+01
   MBD@rsSCS                     :  0.826763E-02 -0.216204E-01 -0.769838E-02
   ----------------------------------------------------------------
   Total forces(  27)            :  0.424031E-02 -0.858963E-02 -0.114965E-01
  atom #   28
   Hellmann-Feynman              :  0.141947E+01  0.121287E+01 -0.109517E+01
   Ionic forces                  :  0.000000E+00  0.000000E+00  0.000000E+00
   Multipole                     : -0.790047E-01 -0.509597E-01  0.869380E-01
   Pulay + GGA                   : -0.134341E+01 -0.115134E+01  0.100667E+01
   MBD@rsSCS                     :  0.225218E-02 -0.210417E-01  0.427718E-03
   ----------------------------------------------------------------
   Total forces(  28)            : -0.691377E-03 -0.104704E-01 -0.113104E-02
  atom #   29
   Hellmann-Feynman              :  0.370102E-02 -0.650809E-01 -0.700067E-02
   Ionic forces                  :  0.000000E+00  0.000000E+00  0.000000E+00
   Multipole                     :  0.261331E-01  0.224649E-01 -0.202706E-01
   Pulay + GGA                   : -0.355308E-01  0.492553E-01  0.315845E-01
   MBD@rsSCS                     :  0.505785E-02 -0.338475E-02 -0.478391E-02
   ----------------------------------------------------------------
   Total forces(  29)            : -0.638737E-03  0.325446E-02 -0.470726E-03
  atom #   30
   Hellmann-Feynman              : -0.253980E-01 -0.467131E-01  0.155511E-01
   Ionic forces                  :  0.000000E+00  0.000000E+00  0.000000E+00
   Multipole                     :  0.311468E-01 -0.103063E-01 -0.307917E-01
   Pulay + GGA                   : -0.734952E-02  0.638601E-01  0.163996E-01
   MBD@rsSCS                     : -0.282221E-02 -0.567072E-02  0.170261E-02
   ----------------------------------------------------------------
   Total forces(  30)            : -0.442292E-02  0.117008E-02  0.286166E-02
  atom #   31
   Hellmann-Feynman              : -0.186565E-01 -0.387783E-02  0.491094E-01
   Ionic forces                  :  0.000000E+00  0.000000E+00  0.000000E+00
   Multipole                     :  0.170721E-01  0.614568E-03  0.234783E-01
   Pulay + GGA                   : -0.119573E-03 -0.341298E-02 -0.692004E-01
   MBD@rsSCS                     : -0.405626E-02 -0.155649E-01  0.334593E-03
   ----------------------------------------------------------------
   Total forces(  31)            : -0.576021E-02 -0.222411E-01  0.372195E-02
  atom #   32
   Hellmann-Feynman              : -0.471204E-01  0.211714E-01  0.210792E-01
   Ionic forces                  :  0.000000E+00  0.000000E+00  0.000000E+00
   Multipole                     : -0.243224E-01  0.310878E-02 -0.245709E-01
   Pulay + GGA                   :  0.640567E-01 -0.238993E-01  0.571345E-02
   MBD@rsSCS                     :  0.132965E-02 -0.195674E-01  0.343115E-02
   ----------------------------------------------------------------
   Total forces(  32)            : -0.605649E-02 -0.191865E-01  0.565299E-02

  Removing unitary transformations (pure translations, rotations) from forces on atoms.
  Atomic forces before filtering:
  | Net force on center of mass :   0.641615E-03  0.253737E-03 -0.138971E-02 eV/A
  | Net torque on center of mass:  -0.139723E-03  0.140715E-02  0.156535E-02 eV
  Atomic forces after filtering:
  | Net force on center of mass :  -0.627209E-17 -0.278760E-17  0.292698E-16 eV/A
  | Net torque on center of mass:   0.162265E-16 -0.542111E-16 -0.118011E-16 eV

  Energy and forces in a compact form:
  | Total energy uncorrected      :         -0.202088166215984E+05 eV
  | Total energy corrected        :         -0.202088166215984E+05 eV  <-- do not rely on this value for anything but (periodic) metals
  | Electronic free energy        :         -0.202088166215984E+05 eV
  Total atomic forces (unitary forces cleaned) [eV/Ang]:
  |   1         -0.960911257411503E-03         -0.110267701773027E-02         -0.599314591595194E-02
  |   2         -0.460063015627138E-03          0.332060492875566E-02          0.345285841608722E-01
  |   3         -0.227491752169115E-01         -0.147349605807055E-02          0.704440034880324E-02
  |   4          0.393046700952529E-02         -0.264841285889273E-02          0.650164261583938E-02
  |   5         -0.149782937505429E-02         -0.210400138453373E-02          0.714736993460542E-02
  |   6          0.393882235988036E-02          0.354246930106731E-02          0.711678237374735E-02
  |   7         -0.103026392426267E-01          0.190416718708747E-01          0.112280717171444E-01
  |   8         -0.437705492800454E-02          0.880974263964432E-02         -0.732599748000194E-02
  |   9         -0.731884516014725E-02          0.200356665248251E-01         -0.246936919752075E-02
  |  10          0.817269408981870E-02         -0.295063963497236E-03          0.537172378375378E-02
  |  11         -0.275656584018427E-01          0.131450909044125E-01          0.369410761849412E-02
  |  12          0.109810988230502E-01          0.124244510882247E-01         -0.761627044405754E-02
  |  13         -0.484033118140483E-02         -0.149803838793710E-01         -0.313442067844995E-01
  |  14         -0.229465890829181E-02         -0.120573640151526E-01         -0.302167288987635E-04
  |  15         -0.188554640031410E-01         -0.641038593216016E-02         -0.162328847725877E-01
  |  16          0.261533988135621E-02         -0.171170327121102E-01         -0.212489104411948E-01
  |  17          0.198248870707793E-01          0.700795845745549E-02         -0.182420671298601E-01
  |  18          0.349139530801588E-01          0.745069268018199E-02          0.444406074443588E-02
  |  19         -0.165726679896279E-02          0.177755002816968E-02         -0.158207925771933E-01
  |  20          0.478298839655291E-02         -0.722031734298468E-02         -0.127759052967676E-01
  |  21         -0.843587489616973E-02          0.810363711369150E-02         -0.102242590627562E-01
  |  22          0.205401538620285E-01          0.105191354028665E-01         -0.749296135361684E-03
  |  23         -0.469481611723703E-02         -0.209604075075163E-02          0.215147272490947E-01
  |  24          0.644656058571623E-02          0.155109206153494E-01          0.140587135125618E-01
  |  25          0.320673338013672E-02         -0.120922887589186E-02          0.201520865026566E-01
  |  26          0.998370661897085E-02         -0.592028848813833E-02          0.786771056946409E-02
  |  27          0.423118477867563E-02         -0.858464232862400E-02         -0.114604773057712E-01
  |  28         -0.688627233156610E-03         -0.104705501528179E-01         -0.108427716386501E-02
  |  29         -0.647821152508225E-03          0.326242080280640E-02         -0.437595420936090E-03
  |  30         -0.441348284171262E-02          0.116934497236862E-02          0.291222594594592E-02
  |  31         -0.574965523659847E-02         -0.222356614069007E-01          0.376698717867794E-02
  |  32         -0.605841496984098E-02         -0.191958101630662E-01          0.570647760112753E-02

  ------------------------------------ 
  Start decomposition of the XC Energy 
  ------------------------------------ 
  Hartree-Fock part   :          0.000000000 Ha              0.000000000 eV
  ------------------------------------ 
  X Energy            :        -96.980800667 Ha          -2638.981856081 eV
  C Energy GGA        :         -3.868051463 Ha           -105.255035624 eV
  Total XC Energy     :       -100.848852130 Ha          -2744.236891704 eV
  LDA X and C from self-consistent density 
  X Energy LDA        :        -87.996151632 Ha          -2394.497116572 eV
  C Energy LDA        :         -7.531589009 Ha           -204.944964425 eV
  ------------------------------------ 
  End decomposition of the XC Energy 
  ------------------------------------ 
   
  ESP charge fitting starts.
  | Calculation :  00000001  of  00000001
  | Full density
  Computing multipole expansion for total density.
  Generating points for esp charges.
  Partitioning the integration grid into batches with parallel hashing+maxmin method.
  | Number of batches:     3862
  | Maximal batch size:     197
  | Minimal batch size:      53
  | Average batch size:     126.079
  | Standard deviation of batch sizes:      18.078

  Integration load balanced across    32 MPI tasks.
  Work distribution over tasks is as follows:
  Initializing partition tables, free-atom densities, potentials, etc. across the integration grid (initialize_grid_storage).
  | Original list of interatomic distances with          32 x         32 entries is created.
  | Net number of integration points:   486918
  | of which are non-zero points    :   486918
  Summing up potential from multipole expanded  density.
  Summing up the Hartree potential.
  Time summed over all CPUs for potential: real work        6.431 s, elapsed        6.797 s
  Fitting esp charges to potential.
  |
  | ESP charges fitted to the electrostatic potential :
  |
  | Atom         1: C, ESP charge:      0.88210585
  |
  | Atom         2: C, ESP charge:     -0.63410603
  |
  | Atom         3: O, ESP charge:      0.52262562
  |
  | Atom         4: H, ESP charge:     -0.24596637
  |
  | Atom         5: H, ESP charge:     -0.21977568
  |
  | Atom         6: H, ESP charge:     -0.25503780
  |
  | Atom         7: N, ESP charge:      0.25291702
  |
  | Atom         8: C, ESP charge:     -0.26805257
  |
  | Atom         9: C, ESP charge:     -0.49038180
  |
  | Atom        10: O, ESP charge:      0.51860575
  |
  | Atom        11: H, ESP charge:     -0.12388159
  |
  | Atom        12: H, ESP charge:      0.02082485
  |
  | Atom        13: C, ESP charge:      0.17132142
  |
  | Atom        14: H, ESP charge:     -0.05819935
  |
  | Atom        15: H, ESP charge:     -0.00172905
  |
  | Atom        16: H, ESP charge:     -0.07646190
  |
  | Atom        17: N, ESP charge:      0.64903412
  |
  | Atom        18: C, ESP charge:     -0.82123479
  |
  | Atom        19: C, ESP charge:     -0.27544429
  |
  | Atom        20: O, ESP charge:      0.49309972
  |
  | Atom        21: H, ESP charge:     -0.31848205
  |
  | Atom        22: H, ESP charge:      0.09401597
  |
  | Atom        23: C, ESP charge:      0.86504084
  |
  | Atom        24: H, ESP charge:     -0.22491463
  |
  | Atom        25: H, ESP charge:     -0.21810011
  |
  | Atom        26: H, ESP charge:     -0.20838529
  |
  | Atom        27: N, ESP charge:      0.45119132
  |
  | Atom        28: C, ESP charge:     -0.03602260
  |
  | Atom        29: H, ESP charge:     -0.33017282
  |
  | Atom        30: H, ESP charge:     -0.09129616
  |
  | Atom        31: H, ESP charge:     -0.00619747
  |
  | Atom        32: H, ESP charge:     -0.01694013

  RRMS:       0.00214570

  Done.

------------------------------------------------------------------------------
  Final output of selected total energy values:

  The following output summarizes some interesting total energy values
  at the end of a run (AFTER all relaxation, molecular dynamics, etc.).

  | Total energy of the DFT / Hartree-Fock s.c.f. calculation      :         -20208.816621598 eV
  | Final zero-broadening corrected energy (caution - metals only) :         -20208.816621598 eV
  | For reference only, the value of 1 Hartree used in FHI-aims is :             27.211384500 eV

  Before relying on these values, please be sure to understand exactly which
  total energy value is referred to by a given number. Different objects may
  all carry the same name 'total energy'. Definitions:

  Total energy of the DFT / Hartree-Fock s.c.f. calculation:
  | Note that this energy does not include ANY quantities calculated after the
  | s.c.f. cycle, in particular not ANY RPA, MP2, etc. many-body perturbation terms.

  Final zero-broadening corrected energy:
  | For metallic systems only, a broadening of the occupation numbers at the Fermi
  | level can be extrapolated back to zero broadening by an electron-gas inspired
  | formula. For all systems that are not real metals, this value can be
  | meaningless and should be avoided.

------------------------------------------------------------------------------
  Methods described in the following list of references were used in this FHI-aims run.
  If you publish the results, please make sure to cite these reference if they apply.
  FHI-aims is an academic code, and for our developers (often, Ph.D. students
  and postdocs), scientific credit in the community is essential.
  Thank you for helping us!

  For any use of FHI-aims, please cite:

    Volker Blum, Ralf Gehrke, Felix Hanke, Paula Havu, Ville Havu,
    Xinguo Ren, Karsten Reuter, and Matthias Scheffler
    'Ab initio molecular simulations with numeric atom-centered orbitals'
    Computer Physics Communications 180, 2175-2196 (2009)
    http://dx.doi.org/10.1016/j.cpc.2009.06.022


  The scalable eigensolver library ELPA was used in your run.
  ELPA is essential especially for large systems on hundreds or thousands of CPUs.
  For ELPA, please cite:

    Andreas Marek, Volker Blum, Rainer Johanni, Ville Havu, Bruno Lang,
    Thomas Auckenthaler, Alexander Heinecke, Hans-Joachim Bungartz, and Hermann Lederer,
    'The ELPA Library - Scalable Parallel Eigenvalue Solutions
    for Electronic Structure Theory and Computational Science'
    The Journal of Physics: Condensed Matter 26, 213201 (2014).
    http://dx.doi.org/10.1088/0953-8984/26/21/213201


  For ELPA's efficient two-stage tridiagonalization used in your run, please cite:

    T. Auckenthaler, V. Blum, H.-J. Bungartz, T. Huckle, R. Johanni, L. Kraemer,
    B. Lang, H. Lederer, and P. R. Willems,
    'Parallel solution of partial symmetric eigenvalue problems'
    'from  electronic structure calculations'
    Parallel Computing 37, 783-794 (2011).
    http://dx.doi.org/10.1016/j.parco.2011.05.002


  For the real-space grid partitioning and parallelization used in this calculation, please cite:

    Ville Havu, Volker Blum, Paula Havu, and Matthias Scheffler,
    'Efficient O(N) integration for all-electron electronic structure calculation'
    'using numerically tabulated basis functions'
    Journal of Computational Physics 228, 8367-8379 (2009).
    http://dx.doi.org/10.1016/j.jcp.2009.08.008

  Of course, there are many other important community references, e.g., those cited in the
  above references. Our list is limited to references that describe implementations in the
  FHI-aims code. The reason is purely practical (length of this list) - please credit others as well.

------------------------------------------------------------
          Leaving FHI-aims.
          Date     :  20170309, Time     :  180014.855

          Computational steps:
          | Number of self-consistency cycles          :           14

          Detailed time accounting                     :  max(cpu_time)    wall_clock(cpu1)
          | Total time                                 :       34.214 s          34.402 s
          | Preparation time                           :        0.240 s           0.239 s
          | Grid partitioning                          :        0.304 s           0.299 s
          | Preloading free-atom quantities on grid    :        0.028 s           0.028 s
          | Free-atom superposition energy             :        0.044 s           0.040 s
          | Total time for integrations                :       11.617 s          11.592 s
          | Total time for solution of K.-S. equations :        0.528 s           0.500 s
          | Total time for density & force components  :       10.093 s          10.070 s
          | Total time for mixing                      :        0.124 s           0.106 s
          | Total time for Hartree multipole update    :        0.088 s           0.066 s
          | Total time for Hartree multipole sum       :        6.316 s           6.297 s
          | Total time for total energy evaluation     :        0.024 s           0.025 s

          Have a nice day.
------------------------------------------------------------
