  MPI-parallelism will be employed.
------------------------------------------------------------
          Invoking FHI-aims ...
          Version 150427
          Git rev.: 9dd23e0 BL: Update Version stamp
          Compiled on 2015/11/03 at 22:05:20 on host eos03.

          When using FHI-aims, please cite the following reference:

          Volker Blum, Ralf Gehrke, Felix Hanke, Paula Havu,
          Ville Havu, Xinguo Ren, Karsten Reuter, and Matthias Scheffler,
          'Ab Initio Molecular Simulations with Numeric Atom-Centered Orbitals: FHI-aims',
          Computer Physics Communications 180, 2175-2196 (2009)

          For any questions about FHI-aims, please visit the aimsclub website
          with its forums and wiki. Contributions to both the forums and the
          wiki are warmly encouraged - they are for you, and everyone is welcome there.

------------------------------------------------------------

  Date     :  20170309, Time     :  191040.394
  Time zero on CPU 1             :   0.320020000000000E+00  s.
  Internal wall clock time zero  :           258318640.394  s.

  Using       32 parallel tasks.
  Task        0 on host eos036 reporting.
  Task        1 on host eos036 reporting.
  Task        2 on host eos036 reporting.
  Task        3 on host eos036 reporting.
  Task        4 on host eos036 reporting.
  Task        5 on host eos036 reporting.
  Task        6 on host eos036 reporting.
  Task        7 on host eos036 reporting.
  Task        8 on host eos036 reporting.
  Task        9 on host eos036 reporting.
  Task       10 on host eos036 reporting.
  Task       11 on host eos036 reporting.
  Task       12 on host eos036 reporting.
  Task       13 on host eos036 reporting.
  Task       14 on host eos036 reporting.
  Task       15 on host eos036 reporting.
  Task       16 on host eos036 reporting.
  Task       17 on host eos036 reporting.
  Task       18 on host eos036 reporting.
  Task       19 on host eos036 reporting.
  Task       20 on host eos036 reporting.
  Task       21 on host eos036 reporting.
  Task       22 on host eos036 reporting.
  Task       23 on host eos036 reporting.
  Task       24 on host eos036 reporting.
  Task       25 on host eos036 reporting.
  Task       26 on host eos036 reporting.
  Task       27 on host eos036 reporting.
  Task       28 on host eos036 reporting.
  Task       29 on host eos036 reporting.
  Task       30 on host eos036 reporting.
  Task       31 on host eos036 reporting.

  Performing system and environment tests:
  | Environment variable OMP_NUM_THREADS correctly set to 1.
  | Stacksize not measured: no C compiler
  | Checking for scalapack...
  | Testing pdtran()...
  | All pdtran() tests passed.

  Obtaining array dimensions for all initial allocations:
  
  -----------------------------------------------------------------------
  Parsing control.in (first pass over file, find array dimensions only).
  The contents of control.in will be repeated verbatim below
  unless switched off by setting 'verbatim_writeout .false.' .
  in the first line of control.in .
  -----------------------------------------------------------------------
  
  #########################################################################################
  #
  # Input for System
  #
  #########################################################################################
  #
  #
  #  Physical model
  #
    xc                 pbe
    many_body_dispersion
    spin               none
    charge             0.
  #
  #  SCF convergence
  #
    occupation_type    gaussian 0.05
    mixer              pulay
      n_max_pulay        10
      charge_mix_param   0.5
    sc_accuracy_rho    1E-4
    sc_accuracy_eev    1E-2
    sc_accuracy_etot   1E-5
    sc_accuracy_forces 1E-4
    sc_iter_limit      1000
  #
  #  ESP charge
  #
    output esp
    esp equal_grid_n 80 80 80
  #
  #
  ################################################################################
  #
  #  FHI-aims code project
  # Volker Blum, Fritz Haber Institute Berlin, 2009
  #
  #  Suggested "tight" defaults for H atom (to be pasted into control.in file)
  #
  ################################################################################
    species        H
  #     global species definitions
      nucleus             1
      mass                1.00794
  #
      l_hartree           6
  #
      cut_pot             4.0  2.0  1.0
      basis_dep_cutoff    1e-4
  #
      radial_base         24 7.0
      radial_multiplier   2
      angular_grids       specified
        division   0.1930   50
        division   0.3175  110
        division   0.4293  194
        division   0.5066  302
        division   0.5626  434
  #      division   0.5922  590
  #      division   0.6227  974
  #      division   0.6868 1202
  #      outer_grid  770
        outer_grid  434
  ################################################################################
  #
  #  Definition of "minimal" basis
  #
  ################################################################################
  #     valence basis states
      valence      1  s   1.
  #     ion occupancy
      ion_occ      1  s   0.5
  ################################################################################
  #
  #  Suggested additional basis functions. For production calculations,
  #  uncomment them one after another (the most important basis functions are
  #  listed first).
  #
  #  Basis constructed for dimers: 0.5 A, 0.7 A, 1.0 A, 1.5 A, 2.5 A
  #
  ################################################################################
  #  "First tier" - improvements: -1014.90 meV to -62.69 meV
       hydro 2 s 2.1
       hydro 2 p 3.5
  #  "Second tier" - improvements: -12.89 meV to -1.83 meV
       hydro 1 s 0.85
       hydro 2 p 3.7
       hydro 2 s 1.2
       hydro 3 d 7
  #  "Third tier" - improvements: -0.25 meV to -0.12 meV
  #     hydro 4 f 11.2
  #     hydro 3 p 4.8
  #     hydro 4 d 9
  #     hydro 3 s 3.2
  ################################################################################
  #
  # For methods that use the localized form of the "resolution of identity" for
  # the two-electron Coulomb operator (RI_method LVL), particularly Hartree-Fock and
  # hybrid density functional calculations, the highest accuracy can be obtained by
  # uncommenting the line beginning with "for_aux"  below, thus adding an extra g radial
  # function to the construction of the product basis set for the expansion.
  # See Ref. New J. Phys. 17, 093020 (2015) for more information, particularly Figs. 1 and 6.
  #
  ################################################################################
  #
  # for_aux hydro 5 g 6.0
  ################################################################################
  #
  #  FHI-aims code project
  # Volker Blum, Fritz Haber Institute Berlin, 2009
  #
  #  Suggested "tight" defaults for C atom (to be pasted into control.in file)
  #
  ################################################################################
    species        C
  #     global species definitions
      nucleus             6
      mass                12.0107
  #
      l_hartree           6
  #
      cut_pot             4.0  2.0  1.0
      basis_dep_cutoff    1e-4
  #
      radial_base         34 7.0
      radial_multiplier   2
      angular_grids specified
        division   0.2187   50
        division   0.4416  110
        division   0.6335  194
        division   0.7727  302
        division   0.8772  434
  #      division   0.9334  590
  #      division   0.9924  770
  #      division   1.0230  974
  #      division   1.5020 1202
  #     outer_grid  974
        outer_grid  434
  ################################################################################
  #
  #  Definition of "minimal" basis
  #
  ################################################################################
  #     valence basis states
      valence      2  s   2.
      valence      2  p   2.
  #     ion occupancy
      ion_occ      2  s   1.
      ion_occ      2  p   1.
  ################################################################################
  #
  #  Suggested additional basis functions. For production calculations,
  #  uncomment them one after another (the most important basis functions are
  #  listed first).
  #
  #  Constructed for dimers: 1.0 A, 1.25 A, 1.5 A, 2.0 A, 3.0 A
  #
  ################################################################################
  #  "First tier" - improvements: -1214.57 meV to -155.61 meV
       hydro 2 p 1.7
       hydro 3 d 6
       hydro 2 s 4.9
  #  "Second tier" - improvements: -67.75 meV to -5.23 meV
       hydro 4 f 9.8
       hydro 3 p 5.2
       hydro 3 s 4.3
       hydro 5 g 14.4
       hydro 3 d 6.2
  #  "Third tier" - improvements: -2.43 meV to -0.60 meV
  #     hydro 2 p 5.6
  #     hydro 2 s 1.4
  #     hydro 3 d 4.9
  #     hydro 4 f 11.2
  #  "Fourth tier" - improvements: -0.39 meV to -0.18 meV
  #     hydro 2 p 2.1
  #     hydro 5 g 16.4
  #     hydro 4 d 13.2
  #     hydro 3 s 13.6
  #     hydro 4 f 17.6
  #  Further basis functions - improvements: -0.08 meV and below
  #     hydro 3 s 2
  #     hydro 3 p 6
  #     hydro 4 d 20
  ################################################################################
  #
  # For methods that use the localized form of the "resolution of identity" for
  # the two-electron Coulomb operator (RI_method LVL), particularly Hartree-Fock and
  # hybrid density functional calculations, the highest accuracy can be obtained by
  # uncommenting the line beginning with "for_aux"  below, thus adding an extra g radial
  # function to the construction of the product basis set for the expansion.
  # See Ref. New J. Phys. 17, 093020 (2015) for more information, particularly Figs. 1 and 6.
  #
  ################################################################################
  #
  # for_aux hydro 5 g 6.0
  ################################################################################
  #
  #  FHI-aims code project
  # Volker Blum, Fritz Haber Institute Berlin, 2009
  #
  #  Suggested "tight" defaults for N atom (to be pasted into control.in file)
  #
  ################################################################################
    species        N
  #     global species definitions
      nucleus             7
      mass                14.0067
  #
      l_hartree           6
  #
      cut_pot             4.0  2.0  1.0
      basis_dep_cutoff    1e-4
  #
      radial_base         35 7.0
      radial_multiplier   2
      angular_grids       specified
        division   0.1841   50
        division   0.3514  110
        division   0.5126  194
        division   0.6292  302
        division   0.6939  434
  #      division   0.7396  590
  #      division   0.7632  770
  #      division   0.8122  974
  #      division   1.1604 1202
  #      outer_grid  974
        outer_grid  434
  ################################################################################
  #
  #  Definition of "minimal" basis
  #
  ################################################################################
  #     valence basis states
      valence      2  s   2.
      valence      2  p   3.
  #     ion occupancy
      ion_occ      2  s   1.
      ion_occ      2  p   2.
  ################################################################################
  #
  #  Suggested additional basis functions. For production calculations,
  #  uncomment them one after another (the most important basis functions are
  #  listed first).
  #
  #  Constructed for dimers: 1.0 A, 1.1 A, 1.5 A, 2.0 A, 3.0 A
  #
  ################################################################################
  #  "First tier" - improvements: -1193.42 meV to -220.60 meV
       hydro 2 p 1.8
       hydro 3 d 6.8
       hydro 3 s 5.8
  #  "Second tier" - improvements: -80.21 meV to -6.86 meV
       hydro 4 f 10.8
       hydro 3 p 5.8
       hydro 1 s 0.8
       hydro 5 g 16
       hydro 3 d 4.9
  #  "Third tier" - improvements: -4.29 meV to -0.53 meV
  #     hydro 3 s 16
  #     ionic 2 p auto
  #     hydro 3 d 6.6
  #     hydro 4 f 11.6
  #  "Fourth tier" - improvements: -0.75 meV to -0.25 meV
  #     hydro 2 p 4.5
  #     hydro 2 s 2.4
  #     hydro 5 g 14.4
  #     hydro 4 d 14.4
  #     hydro 4 f 16.8
  # Further basis functions - -0.21 meV and below
  #     hydro 3 p 14.8
  #     hydro 3 s 4.4
  #     hydro 3 d 19.6
  #     hydro 5 g 12.8
  ################################################################################
  #
  # For methods that use the localized form of the "resolution of identity" for
  # the two-electron Coulomb operator (RI_method LVL), particularly Hartree-Fock and
  # hybrid density functional calculations, the highest accuracy can be obtained by
  # uncommenting the line beginning with "for_aux"  below, thus adding an extra g radial
  # function to the construction of the product basis set for the expansion.
  # See Ref. New J. Phys. 17, 093020 (2015) for more information, particularly Figs. 1 and 6.
  #
  ################################################################################
  #
  # for_aux hydro 5 g 6.0
  ################################################################################
  #
  #  FHI-aims code project
  # Volker Blum, Fritz Haber Institute Berlin, 2009
  #
  #  Suggested "tight" defaults for O atom (to be pasted into control.in file)
  #
  ################################################################################
    species        O
  #     global species definitions
      nucleus             8
      mass                15.9994
  #
      l_hartree           6
  #
      cut_pot             4.0  2.0  1.0
      basis_dep_cutoff    1e-4
  #
      radial_base         36 7.0
      radial_multiplier   2
       angular_grids specified
        division   0.1817   50
        division   0.3417  110
        division   0.4949  194
        division   0.6251  302
        division   0.8014  434
  #      division   0.8507  590
  #      division   0.8762  770
  #      division   0.9023  974
  #      division   1.2339 1202
  #      outer_grid 974
        outer_grid  434
  ################################################################################
  #
  #  Definition of "minimal" basis
  #
  ################################################################################
  #     valence basis states
      valence      2  s   2.
      valence      2  p   4.
  #     ion occupancy
      ion_occ      2  s   1.
      ion_occ      2  p   3.
  ################################################################################
  #
  #  Suggested additional basis functions. For production calculations,
  #  uncomment them one after another (the most important basis functions are
  #  listed first).
  #
  #  Constructed for dimers: 1.0 A, 1.208 A, 1.5 A, 2.0 A, 3.0 A
  #
  ################################################################################
  #  "First tier" - improvements: -699.05 meV to -159.38 meV
       hydro 2 p 1.8
       hydro 3 d 7.6
       hydro 3 s 6.4
  #  "Second tier" - improvements: -49.91 meV to -5.39 meV
       hydro 4 f 11.6
       hydro 3 p 6.2
       hydro 3 d 5.6
       hydro 5 g 17.6
       hydro 1 s 0.75
  #  "Third tier" - improvements: -2.83 meV to -0.50 meV
  #     ionic 2 p auto
  #     hydro 4 f 10.8
  #     hydro 4 d 4.7
  #     hydro 2 s 6.8
  #  "Fourth tier" - improvements: -0.40 meV to -0.12 meV
  #     hydro 3 p 5
  #     hydro 3 s 3.3
  #     hydro 5 g 15.6
  #     hydro 4 f 17.6
  #     hydro 4 d 14
  # Further basis functions - -0.08 meV and below
  #     hydro 3 s 2.1
  #     hydro 4 d 11.6
  #     hydro 3 p 16
  #     hydro 2 s 17.2
  ################################################################################
  #
  # For methods that use the localized form of the "resolution of identity" for
  # the two-electron Coulomb operator (RI_method LVL), particularly Hartree-Fock and
  # hybrid density functional calculations, the highest accuracy can be obtained by
  # uncommenting the line beginning with "for_aux"  below, thus adding an extra g radial
  # function to the construction of the product basis set for the expansion.
  # See Ref. New J. Phys. 17, 093020 (2015) for more information, particularly Figs. 1 and 6.
  #
  ################################################################################
  #
  # for_aux hydro 5 g 6.0
  
  -----------------------------------------------------------------------
  Completed first pass over input file control.in .
  -----------------------------------------------------------------------
  
  
  -----------------------------------------------------------------------
  Parsing geometry.in (first pass over file, find array dimensions only).
  The contents of geometry.in will be repeated verbatim below
  unless switched off by setting 'verbatim_writeout .false.' .
  in the first line of geometry.in .
  -----------------------------------------------------------------------
  
  #
  # This is the geometry file that corresponds to the current relaxation step.
  # If you do not want this file to be written, set the "write_restart_geometry" flag to .false.
  #
  atom       2.91336868     -0.43368577      1.51258029 C
  atom       2.06016621      0.14175423      2.63040195 C
  atom       2.54368057      0.59816503      3.66109602 O
  atom       3.23434869     -1.44504207      1.79831441 H
  atom       2.39539203     -0.49412615      0.54669845 H
  atom       3.81490759      0.17907142      1.40505275 H
  atom       0.70726723      0.12666165      2.39669064 N
  atom      -0.29395309      0.40228685      3.43376048 C
  atom      -0.14184100      1.78709939      4.11970762 C
  atom      -0.16583881      1.88385947      5.34005934 O
  atom       0.38268925     -0.36939281      1.57428189 H
  atom      -1.25552361      0.44333657      2.89710822 H
  atom      -0.36471146     -0.70910660      4.48160940 C
  atom      -1.17654319     -0.51532136      5.19099763 H
  atom       0.57091953     -0.76195180      5.04861742 H
  atom      -0.54528435     -1.67253602      3.98643524 H
  atom      -0.06239457      2.91385329      3.33564254 N
  atom      -0.28147537      3.09233382      1.89601908 C
  atom       0.36182707      4.44499845      1.50112088 C
  atom      -0.32555920      5.43671503      1.26415015 O
  atom      -0.09221530      3.75967639      3.90155970 H
  atom       0.25357478      2.28757423      1.37309972 H
  atom      -1.75744560      3.07622641      1.49715731 C
  atom      -2.29261765      3.90751642      1.96973790 H
  atom      -2.22981120      2.13259408      1.79871986 H
  atom      -1.86444235      3.18553827      0.41008759 H
  atom       1.72382654      4.49222250      1.45586926 N
  atom       2.67575936      3.41890717      1.70059039 C
  atom       2.08319012      5.40913884      1.21029445 H
  atom       2.52295514      2.94643642      2.67821270 H
  atom       3.68444733      3.84463874      1.68410401 H
  atom       2.62990261      2.64223292      0.92090570 H
  
  -----------------------------------------------------------------------
  Completed first pass over input file geometry.in .
  -----------------------------------------------------------------------
  

  Basic array size parameters:
  | Number of species                 :        4
  | Number of atoms                   :       32
  | Max. basis fn. angular momentum   :        4
  | Max. atomic/ionic basis occupied n:        2
  | Max. number of basis fn. types    :        2
  | Max. radial fns per species/type  :        8
  | Max. logarithmic grid size        :     1301
  | Max. radial integration grid size :       73
  | Max. angular integration grid size:      434
  | Max. angular grid division number :        8
  | Radial grid for Hartree potential :     1301
  | Number of spin channels           :        1

------------------------------------------------------------
          Reading file control.in.
------------------------------------------------------------
  XC: Using PBE gradient-corrected functionals.
  Self-consistent screening and van der Waals energy (TS, TS+SCS,MBD) module
  Spin treatment: No spin polarisation.
  Charge =   0.000000E+00: Neutral system requested explicitly.
  Occupation type: Gaussian broadening, width =   0.500000E-01 eV.
  Using pulay charge density mixing.
  Pulay mixing - number of memorized iterations:   10
  Charge density mixing - mixing parameter:     0.5000
  Convergence accuracy of self-consistent charge density:  0.1000E-03
  Convergence accuracy of sum of eigenvalues:  0.1000E-01
  Convergence accuracy of total energy:  0.1000E-04
  Convergence accuracy of forces:  0.1000E-03
  Maximum number of s.-c. iterations  :  1000
  Fitting ESP-charges to Potential. 
  | Esp charge output options: 
  | ESP Grid method: 3, cubic grid
  | Number of points in x, ,y, z:  0080 0080 0080
  |
 
  Reading configuration options for species H                   .
  | Found nuclear charge :   1.0000
  | Found atomic mass :    1.00794000000000      amu
  | Found l_max for Hartree potential  :   6
  | Found cutoff potl. onset [A], width [A], scale factor :    4.00000    2.00000    1.00000
  | Threshold for basis-dependent cutoff potential is   0.100000E-03
  | Found data for basic radial integration grid :    24 points, outermost radius =    7.000 A
  | Found multiplier for basic radial grid :   2
  | Found angular grid specification: user-specified.
  | Specified grid contains     6 separate shells.
  | Check grid settings after all constraints further below.
  | Found free-atom valence shell :  1 s   1.000
  | No ionic wave fns used. Skipping ion_occ.
  | Found hydrogenic basis function :  2 s   2.100
  | Found hydrogenic basis function :  2 p   3.500
  | Found hydrogenic basis function :  1 s   0.850
  | Found hydrogenic basis function :  2 p   3.700
  | Found hydrogenic basis function :  2 s   1.200
  | Found hydrogenic basis function :  3 d   7.000
  Species H                   : Missing cutoff potential type.
  Defaulting to exp(1/x)/(1-x)^2 type cutoff potential.
  Species H : No 'logarithmic' tag. Using default grid for free atom:
  | Default logarithmic grid data [bohr] : 0.1000E-03 0.1000E+03 0.1012E+01
  Species H : On-site basis accuracy parameter (for Gram-Schmidt orthonormalisation) not specified.
  Using default value basis_acc =  0.1000000E-03.
  Species H                   : Using default innermost maximum threshold i_radial=  2 for radial functions.
  Species H                   : Default cutoff onset for free atom density etc. : 0.40000000E+01 AA.
  Species H                   : Basic radial grid will be enhanced according to radial_multiplier =   2, to contain    49 grid points.
 
  Reading configuration options for species C                   .
  | Found nuclear charge :   6.0000
  | Found atomic mass :    12.0107000000000      amu
  | Found l_max for Hartree potential  :   6
  | Found cutoff potl. onset [A], width [A], scale factor :    4.00000    2.00000    1.00000
  | Threshold for basis-dependent cutoff potential is   0.100000E-03
  | Found data for basic radial integration grid :    34 points, outermost radius =    7.000 A
  | Found multiplier for basic radial grid :   2
  | Found angular grid specification: user-specified.
  | Specified grid contains     6 separate shells.
  | Check grid settings after all constraints further below.
  | Found free-atom valence shell :  2 s   2.000
  | Found free-atom valence shell :  2 p   2.000
  | No ionic wave fns used. Skipping ion_occ.
  | No ionic wave fns used. Skipping ion_occ.
  | Found hydrogenic basis function :  2 p   1.700
  | Found hydrogenic basis function :  3 d   6.000
  | Found hydrogenic basis function :  2 s   4.900
  | Found hydrogenic basis function :  4 f   9.800
  | Found hydrogenic basis function :  3 p   5.200
  | Found hydrogenic basis function :  3 s   4.300
  | Found hydrogenic basis function :  5 g  14.400
  | Found hydrogenic basis function :  3 d   6.200
  Species C                   : Missing cutoff potential type.
  Defaulting to exp(1/x)/(1-x)^2 type cutoff potential.
  Species C : No 'logarithmic' tag. Using default grid for free atom:
  | Default logarithmic grid data [bohr] : 0.1000E-03 0.1000E+03 0.1012E+01
  Species C : On-site basis accuracy parameter (for Gram-Schmidt orthonormalisation) not specified.
  Using default value basis_acc =  0.1000000E-03.
  Species C                   : Using default innermost maximum threshold i_radial=  2 for radial functions.
  Species C                   : Default cutoff onset for free atom density etc. : 0.40000000E+01 AA.
  Species C                   : Basic radial grid will be enhanced according to radial_multiplier =   2, to contain    69 grid points.
 
  Reading configuration options for species N                   .
  | Found nuclear charge :   7.0000
  | Found atomic mass :    14.0067000000000      amu
  | Found l_max for Hartree potential  :   6
  | Found cutoff potl. onset [A], width [A], scale factor :    4.00000    2.00000    1.00000
  | Threshold for basis-dependent cutoff potential is   0.100000E-03
  | Found data for basic radial integration grid :    35 points, outermost radius =    7.000 A
  | Found multiplier for basic radial grid :   2
  | Found angular grid specification: user-specified.
  | Specified grid contains     6 separate shells.
  | Check grid settings after all constraints further below.
  | Found free-atom valence shell :  2 s   2.000
  | Found free-atom valence shell :  2 p   3.000
  | No ionic wave fns used. Skipping ion_occ.
  | No ionic wave fns used. Skipping ion_occ.
  | Found hydrogenic basis function :  2 p   1.800
  | Found hydrogenic basis function :  3 d   6.800
  | Found hydrogenic basis function :  3 s   5.800
  | Found hydrogenic basis function :  4 f  10.800
  | Found hydrogenic basis function :  3 p   5.800
  | Found hydrogenic basis function :  1 s   0.800
  | Found hydrogenic basis function :  5 g  16.000
  | Found hydrogenic basis function :  3 d   4.900
  Species N                   : Missing cutoff potential type.
  Defaulting to exp(1/x)/(1-x)^2 type cutoff potential.
  Species N : No 'logarithmic' tag. Using default grid for free atom:
  | Default logarithmic grid data [bohr] : 0.1000E-03 0.1000E+03 0.1012E+01
  Species N : On-site basis accuracy parameter (for Gram-Schmidt orthonormalisation) not specified.
  Using default value basis_acc =  0.1000000E-03.
  Species N                   : Using default innermost maximum threshold i_radial=  2 for radial functions.
  Species N                   : Default cutoff onset for free atom density etc. : 0.40000000E+01 AA.
  Species N                   : Basic radial grid will be enhanced according to radial_multiplier =   2, to contain    71 grid points.
 
  Reading configuration options for species O                   .
  | Found nuclear charge :   8.0000
  | Found atomic mass :    15.9994000000000      amu
  | Found l_max for Hartree potential  :   6
  | Found cutoff potl. onset [A], width [A], scale factor :    4.00000    2.00000    1.00000
  | Threshold for basis-dependent cutoff potential is   0.100000E-03
  | Found data for basic radial integration grid :    36 points, outermost radius =    7.000 A
  | Found multiplier for basic radial grid :   2
  | Found angular grid specification: user-specified.
  | Specified grid contains     6 separate shells.
  | Check grid settings after all constraints further below.
  | Found free-atom valence shell :  2 s   2.000
  | Found free-atom valence shell :  2 p   4.000
  | No ionic wave fns used. Skipping ion_occ.
  | No ionic wave fns used. Skipping ion_occ.
  | Found hydrogenic basis function :  2 p   1.800
  | Found hydrogenic basis function :  3 d   7.600
  | Found hydrogenic basis function :  3 s   6.400
  | Found hydrogenic basis function :  4 f  11.600
  | Found hydrogenic basis function :  3 p   6.200
  | Found hydrogenic basis function :  3 d   5.600
  | Found hydrogenic basis function :  5 g  17.600
  | Found hydrogenic basis function :  1 s   0.750
  Species O                   : Missing cutoff potential type.
  Defaulting to exp(1/x)/(1-x)^2 type cutoff potential.
  Species O : No 'logarithmic' tag. Using default grid for free atom:
  | Default logarithmic grid data [bohr] : 0.1000E-03 0.1000E+03 0.1012E+01
  Species O : On-site basis accuracy parameter (for Gram-Schmidt orthonormalisation) not specified.
  Using default value basis_acc =  0.1000000E-03.
  Species O                   : Using default innermost maximum threshold i_radial=  2 for radial functions.
  Species O                   : Default cutoff onset for free atom density etc. : 0.40000000E+01 AA.
  Species O                   : Basic radial grid will be enhanced according to radial_multiplier =   2, to contain    73 grid points.
 
  Finished reading input file 'control.in'. Consistency checks are next.
 
  Target number of points in a grid batch is not set. Defaulting to  100
  Method for grid partitioning is not set. Defaulting to parallel hash+maxmin partitioning.
  Batch size limit is not set. Defaulting to    200
  By default, will store active basis functions for each batch.
  If in need of memory, prune_basis_once .false. can be used to disable this option.
  communication_type for Hartree potential was not specified.
  Defaulting to calc_hartree .
  Pulay mixer: Number of initial linear mixing iterations not set.
  Defaulting to    0 iterations.
  Work space size for distributed Hartree potential not set.
  Defaulting to   0.200000E+03 MB.
  Algorithm-dependent basis array size parameters:
  | n_max_pulay                         :       10
  Geometry relaxation not requested: no relaxation will be performed.
  Handling of forces: Unphysical translation and rotation will be removed from forces.
  No accuracy limit for integral partition fn. given. Defaulting to  0.1000E-14.
  No threshold value for u(r) in integrations given. Defaulting to  0.1000E-05.
  No accuracy for occupation numbers given. Defaulting to  0.1000E-07.
  No threshold value for occupation numbers given. Defaulting to  0.0000E+00.
  No accuracy for fermi level given. Defaulting to  0.1000E-19.
  Maximum # of iterations to find E_F not set. Defaulting to  200.
  Preferred method for the eigenvalue solver ('KS_method') not specified in 'control.in'.
  Calling blacs routine to test compilation state
  Since scalapack support is enabled, defaulting to 'elpa'.
  Preferred method for the MBD eigenvalue solver ('mbd_eigensolver') not specified in 'control.in'.
  Calling blacs routine to test compilation state
  Since scalapack support is enabled, defaulting to 'scaLAPACK'.
  Will not use alltoall communication since running on < 1024 CPUs.
  Threshold for basis singularities not set.
  Default threshold for basis singularities:  0.1000E-04
  partition_type (choice of integration weights) for integrals was not specified.
  | Using a version of the partition function of Stratmann and coworkers ('stratmann_smoother').
  | At each grid point, the set of atoms used to build the partition table is smoothly restricted to
  | only those atoms whose free-atom density would be non-zero at that grid point.
  Partitioning for Hartree potential was not defined. Using partition_type for integrals.
  | Adjusted default value of keyword multip_moments_threshold to:       0.10000000E-11
  | This value may affect high angular momentum components of the Hartree potential in periodic systems.
  No q(lm)/r^(l+1) cutoff set for long-range Hartree potential.
  | Using default value of  0.100000E-09 .
  | Verify using the multipole_threshold keyword.
  Defaulting to new monopole extrapolation.
  Density update method: automatic selection selected.
------------------------------------------------------------


------------------------------------------------------------
          Reading geometry description geometry.in.
------------------------------------------------------------
 * Warning! You did not set the 'relativistic' flag in input file 'control.in'.
 * Since you are not attempting to treat any elements beyond Ca(Z=20), FHI-aims
 * will default to 'relativistic none'.
 * You must ensure that this is really what you want!!
 * For example, DO NOT compute total-energy differences between results from
 * different settings of the 'relativistic' flag.
  Input structure read successfully.
  The structure contains       32 atoms,  and a total of        116.000 electrons.

  Input geometry:
  | No unit cell requested.
  | Atomic structure:
  |       Atom                x [A]            y [A]            z [A]
  |    1: Species C              2.913369        -0.433686         1.512580
  |    2: Species C              2.060166         0.141754         2.630402
  |    3: Species O              2.543681         0.598165         3.661096
  |    4: Species H              3.234349        -1.445042         1.798314
  |    5: Species H              2.395392        -0.494126         0.546698
  |    6: Species H              3.814908         0.179071         1.405053
  |    7: Species N              0.707267         0.126662         2.396691
  |    8: Species C             -0.293953         0.402287         3.433760
  |    9: Species C             -0.141841         1.787099         4.119708
  |   10: Species O             -0.165839         1.883859         5.340059
  |   11: Species H              0.382689        -0.369393         1.574282
  |   12: Species H             -1.255524         0.443337         2.897108
  |   13: Species C             -0.364711        -0.709107         4.481609
  |   14: Species H             -1.176543        -0.515321         5.190998
  |   15: Species H              0.570920        -0.761952         5.048617
  |   16: Species H             -0.545284        -1.672536         3.986435
  |   17: Species N             -0.062395         2.913853         3.335643
  |   18: Species C             -0.281475         3.092334         1.896019
  |   19: Species C              0.361827         4.444998         1.501121
  |   20: Species O             -0.325559         5.436715         1.264150
  |   21: Species H             -0.092215         3.759676         3.901560
  |   22: Species H              0.253575         2.287574         1.373100
  |   23: Species C             -1.757446         3.076226         1.497157
  |   24: Species H             -2.292618         3.907516         1.969738
  |   25: Species H             -2.229811         2.132594         1.798720
  |   26: Species H             -1.864442         3.185538         0.410088
  |   27: Species N              1.723827         4.492222         1.455869
  |   28: Species C              2.675759         3.418907         1.700590
  |   29: Species H              2.083190         5.409139         1.210294
  |   30: Species H              2.522955         2.946436         2.678213
  |   31: Species H              3.684447         3.844639         1.684104
  |   32: Species H              2.629903         2.642233         0.920906
  |

  | The smallest distance between any two atoms is         1.01379339 AA.
  |
  | The first atom of this pair is atom number                      7 .
  | The second atom of this pair is atom number                    11 .

  Number of empty states per atom not set in control.in - providing a guess from actual geometry.
  | Total number of empty states used during s.c.f. cycle:       71
  If you use a very high smearing, use empty_states (per atom!) in control.in to increase this value.

  Structure-dependent array size parameters: 
  | Maximum number of distinct radial functions  :       40
  | Maximum number of basis functions            :      840
  | Number of Kohn-Sham states (occupied + empty):      129
------------------------------------------------------------

------------------------------------------------------------
          Preparing all fixed parts of the calculation.
------------------------------------------------------------
  Determining machine precision:
    2.225073858507201E-308
  Setting up grids for atomic and cluster calculations.

  Creating wave function, potential, and density for free atoms.

  Species: H

  List of occupied orbitals and eigenvalues:
    n    l              occ      energy [Ha]    energy [eV]
    1    0           1.0000        -0.238382        -6.4867


  Species: C

  List of occupied orbitals and eigenvalues:
    n    l              occ      energy [Ha]    energy [eV]
    1    0           2.0000       -10.041232      -273.2358
    2    0           2.0000        -0.504327       -13.7234
    2    1           2.0000        -0.193750        -5.2722


  Species: N

  List of occupied orbitals and eigenvalues:
    n    l              occ      energy [Ha]    energy [eV]
    1    0           2.0000       -14.129007      -384.4699
    2    0           2.0000        -0.681802       -18.5528
    2    1           3.0000        -0.260543        -7.0897


  Species: O

  List of occupied orbitals and eigenvalues:
    n    l              occ      energy [Ha]    energy [eV]
    1    0           2.0000       -18.898576      -514.2564
    2    0           2.0000        -0.878795       -23.9132
    2    1           4.0000        -0.332075        -9.0362

  Creating fixed part of basis set: Ionic, confined, hydrogenic.
 
  H                    hydrogenic:
 
  List of hydrogenic basis orbitals: 
    n    l      effective z      eigenvalue [eV]  inner max. [A]     outer max. [A]     outer radius [A]   
    2    0         2.100000       -14.9965           0.193243           1.317208           5.373006
    2    1         3.500000       -41.6672           0.602369           0.602369           4.056063
    1    0         0.850000        -9.8292           0.624871           0.624871           5.373006
    2    1         3.700000       -46.5653           0.573622           0.573622           3.910002
    2    0         1.200000        -4.5995           0.334980           2.228188           5.505995
    3    2         7.000000       -74.0753           0.680699           0.680699           3.769201
 
 
  C                    hydrogenic:
 
  List of hydrogenic basis orbitals: 
    n    l      effective z      eigenvalue [eV]  inner max. [A]     outer max. [A]     outer radius [A]   
    2    1         1.700000        -9.8152           1.245706           1.245706           5.401630
    3    2         6.000000       -54.4226           0.792453           0.792453           4.178599
    2    0         4.900000       -81.6681           0.082559           0.562749           3.353238
    4    3         9.800000       -81.6681           0.863254           0.863254           4.028125
    3    1         5.200000       -40.8774           0.305389           1.215618           4.898362
    3    0         4.300000       -27.9508           0.091041           1.610311           5.401630
    5    4        14.400000      -112.8510           0.917666           0.917666           3.883070
    3    2         6.200000       -58.1113           0.763917           0.763917           4.077671
 
 
  N                    hydrogenic:
 
  List of hydrogenic basis orbitals: 
    n    l      effective z      eigenvalue [eV]  inner max. [A]     outer max. [A]     outer radius [A]   
    2    1         1.800000       -11.0118           1.177451           1.177451           5.427479
    3    2         6.800000       -69.9029           0.704619           0.704619           3.854246
    3    0         5.800000       -50.8549           0.067388           1.191934           4.629968
    4    3        10.800000       -99.1854           0.786571           0.786571           3.761152
    3    1         5.800000       -50.8549           0.274880           1.094176           4.518138
    1    0         0.800000        -8.7059           0.662839           0.662839           5.361532
    5    4        16.000000      -139.3222           0.825990           0.825990           3.625711
    3    2         4.900000       -36.2967           0.968267           0.968267           4.862000
 
 
  O                    hydrogenic:
 
  List of hydrogenic basis orbitals: 
    n    l      effective z      eigenvalue [eV]  inner max. [A]     outer max. [A]     outer radius [A]   
    2    1         1.800000       -11.0118           1.178562           1.178562           5.432602
    3    2         7.600000       -87.3182           0.624125           0.624125           3.541477
    3    0         6.400000       -61.9209           0.061167           1.081902           4.306578
    4    3        11.600000      -114.4238           0.731631           0.731631           3.585037
    3    1         6.200000       -58.1113           0.255680           1.030270           4.306578
    3    2         5.600000       -47.4081           0.847233           0.847233           4.413171
    5    4        17.600000      -168.5799           0.749740           0.749740           3.372465
    1    0         0.750000        -7.6499           0.705284           0.705284           5.366593
 

  Adding cutoff potential to free-atom effective potential.
  Creating atomic-like basis functions for current effective potential.

  Species H                   :

  List of atomic basis orbitals and eigenvalues:
    n    l      energy [Ha]    energy [eV]    outer radius [A]
    1    0        -0.238382        -6.4867       5.373006


  Species C                   :

  List of atomic basis orbitals and eigenvalues:
    n    l      energy [Ha]    energy [eV]    outer radius [A]
    1    0       -10.041232      -273.2358       1.934409
    2    0        -0.504327       -13.7234       5.271162
    2    1        -0.193750        -5.2722       5.401630


  Species N                   :

  List of atomic basis orbitals and eigenvalues:
    n    l      energy [Ha]    energy [eV]    outer radius [A]
    1    0       -14.129007      -384.4699       1.637919
    2    0        -0.681802       -18.5528       5.168461
    2    1        -0.260543        -7.0897       5.361532


  Species O                   :

  List of atomic basis orbitals and eigenvalues:
    n    l      energy [Ha]    energy [eV]    outer radius [A]
    1    0       -18.898576      -514.2564       1.415765
    2    0        -0.878795       -23.9132       5.048385
    2    1        -0.332075        -9.0362       5.301386

  Assembling full basis from fixed parts.
  | Species H :   atomic orbital   1 s accepted.
  | Species H :    hydro orbital   2 s accepted.
  | Species H :    hydro orbital   1 s accepted.
  | Species H :    hydro orbital   2 s accepted.
  | Species H :    hydro orbital   2 p accepted.
  | Species H :    hydro orbital   2 p accepted.
  | Species H :    hydro orbital   3 d accepted.
  | Species C :   atomic orbital   1 s accepted.
  | Species C :    hydro orbital   2 s accepted.
  | Species C :   atomic orbital   2 s accepted.
  | Species C :    hydro orbital   3 s accepted.
  | Species C :    hydro orbital   3 p accepted.
  | Species C :   atomic orbital   2 p accepted.
  | Species C :    hydro orbital   2 p accepted.
  | Species C :    hydro orbital   3 d accepted.
  | Species C :    hydro orbital   3 d accepted.
  | Species C :    hydro orbital   4 f accepted.
  | Species C :    hydro orbital   5 g accepted.
  | Species N :   atomic orbital   1 s accepted.
  | Species N :    hydro orbital   3 s accepted.
  | Species N :   atomic orbital   2 s accepted.
  | Species N :    hydro orbital   1 s accepted.
  | Species N :    hydro orbital   3 p accepted.
  | Species N :   atomic orbital   2 p accepted.
  | Species N :    hydro orbital   2 p accepted.
  | Species N :    hydro orbital   3 d accepted.
  | Species N :    hydro orbital   3 d accepted.
  | Species N :    hydro orbital   4 f accepted.
  | Species N :    hydro orbital   5 g accepted.
  | Species O :   atomic orbital   1 s accepted.
  | Species O :    hydro orbital   3 s accepted.
  | Species O :   atomic orbital   2 s accepted.
  | Species O :    hydro orbital   1 s accepted.
  | Species O :    hydro orbital   3 p accepted.
  | Species O :   atomic orbital   2 p accepted.
  | Species O :    hydro orbital   2 p accepted.
  | Species O :    hydro orbital   3 d accepted.
  | Species O :    hydro orbital   3 d accepted.
  | Species O :    hydro orbital   4 f accepted.
  | Species O :    hydro orbital   5 g accepted.
 
  Basis size parameters after reduction:
  | Total number of radial functions:       40
  | Total number of basis functions :      840
 
  Testing on-site integration grid accuracy.
  |  Species  Function  <phi|h_atom|phi> (log., in eV)  <phi|h_atom|phi> (rad., in eV)
           1        1                 -6.4869821809                 -6.4870742227
           1        2                 13.5044133542                 13.5041049177
           1        3                 32.7854418792                 32.7779770519
           1        4                 33.7995553101                 33.7152624900 ***
           1        5                 28.8558651799                 28.8558652046
           1        6                 59.6361831893                 59.6362535845
           1        7                 60.2733718049                 60.2733715484
           2        8               -273.2358277112               -273.2358261765
           2        9                -10.7624923123                -10.7625144012
           2       10                 17.4634079027                 17.4634252127
           2       11                 53.0363661832                 53.0366180446
           2       12                 15.0981351967                 15.0981317714
           2       13                  3.8522181899                  3.8522770949
           2       14                 12.1181835661                 12.1206868578
           2       15                 29.4320778347                 29.4320780959
           2       16                 54.8753777694                 54.8752901936
           2       17                 59.3533975461                 59.3533974833
           2       18                 93.4537491195                 93.4537492066
           3       19               -384.4698526889               -384.4698499465
           3       20                 12.5691022037                 12.5690910168
           3       21                -15.7489097511                -15.7489165588
           3       22                 27.0978334940                 27.0985589490
           3       23                 18.5949116966                 18.5949125562
           3       24                  1.2212828291                  1.2212855301
           3       25                 13.4428926797                 13.4434051125
           3       26                 35.9380614500                 35.9380613666
           3       27                 39.9231532098                 39.9231654735
           3       28                 72.9957335806                 72.9957336833
           3       29                116.4231321147                116.4231321431
           4       30               -514.2564144315               -514.2564099626
           4       31                 15.1726678541                 15.1726530877
           4       32                -21.5447785304                -21.5447874973
           4       33                 14.4944558459                 14.4944698284
           4       34                 20.8882174564                 20.8882178906
           4       35                 -2.4850315908                 -2.4850322289
           4       36                 13.8600193195                 13.8599826966
           4       37                 45.8243383616                 45.8243383675
           4       38                 52.1840606465                 52.1840622440
           4       39                 85.4074185510                 85.4074185819
           4       40                142.0983717302                142.0983717339
 * Note: Onsite integrals marked "***" above are less accurate than
 * onsite_accuracy_threshold =    0.03000 eV. Usually, this is harmless.
 * When in doubt, tighten the "radial" and/or "radial_multiplier" flags to check.

  Preparing densities etc. for the partition functions (integrals / Hartree potential).

  Preparations completed.
  max(cpu_time)          :      0.236 s.
  Wall clock time (cpu1) :      0.238 s.
------------------------------------------------------------

------------------------------------------------------------
          Begin self-consistency loop: Initialization.

          Date     :  20170309, Time     :  191041.465
------------------------------------------------------------

  Initializing index lists of integration centers etc. from given atomic structure:
  | Number of centers in hartree potential         :        32
  | Number of centers in hartree multipole         :        32
  | Number of centers in electron density summation:        32
  | Number of centers in basis integrals           :        32
  | Number of centers in integrals                 :        32
  | Number of centers in hamiltonian               :        32
  Using modified Scalapack Eigenvalue solver (ELPA)
  * Using 32 tasks for Scalapack Eigenvalue solver.
  Detailed listing of tasks and assigned k-points:
  (for non-periodic systems, the "k-point" denotes an internal label only)
   Task     0 k-point     1 on eos036
   Task     1 k-point     1 on eos036
   Task     2 k-point     1 on eos036
   Task     3 k-point     1 on eos036
   Task     4 k-point     1 on eos036
   Task     5 k-point     1 on eos036
   Task     6 k-point     1 on eos036
   Task     7 k-point     1 on eos036
   Task     8 k-point     1 on eos036
   Task     9 k-point     1 on eos036
   Task    10 k-point     1 on eos036
   Task    11 k-point     1 on eos036
   Task    12 k-point     1 on eos036
   Task    13 k-point     1 on eos036
   Task    14 k-point     1 on eos036
   Task    15 k-point     1 on eos036
   Task    16 k-point     1 on eos036
   Task    17 k-point     1 on eos036
   Task    18 k-point     1 on eos036
   Task    19 k-point     1 on eos036
   Task    20 k-point     1 on eos036
   Task    21 k-point     1 on eos036
   Task    22 k-point     1 on eos036
   Task    23 k-point     1 on eos036
   Task    24 k-point     1 on eos036
   Task    25 k-point     1 on eos036
   Task    26 k-point     1 on eos036
   Task    27 k-point     1 on eos036
   Task    28 k-point     1 on eos036
   Task    29 k-point     1 on eos036
   Task    30 k-point     1 on eos036
   Task    31 k-point     1 on eos036
  Tasks:    32 split into      8 X      4 BLACS grid
  Calculating blocksize based on n_basis =          840 max_nprow =            8 max_npcol =            4
  Scalapack blocksize set to:           16
  Required Scalapack workspace - INTEGER:            1 REAL:             1
  Partitioning the integration grid into batches with parallel hashing+maxmin method.
  | Number of batches:     4785
  | Maximal batch size:     200
  | Minimal batch size:      61
  | Average batch size:     110.288
  | Standard deviation of batch sizes:      36.439

  Integration load balanced across    32 MPI tasks.
  Work distribution over tasks is as follows:
  Task     0 has      16550 integration points.
  Task     1 has      16484 integration points.
  Task     2 has      16486 integration points.
  Task     3 has      16461 integration points.
  Task     4 has      16501 integration points.
  Task     5 has      16531 integration points.
  Task     6 has      16452 integration points.
  Task     7 has      16480 integration points.
  Task     8 has      16505 integration points.
  Task     9 has      16555 integration points.
  Task    10 has      16534 integration points.
  Task    11 has      16465 integration points.
  Task    12 has      16503 integration points.
  Task    13 has      16475 integration points.
  Task    14 has      16458 integration points.
  Task    15 has      16467 integration points.
  Task    16 has      16548 integration points.
  Task    17 has      16470 integration points.
  Task    18 has      16473 integration points.
  Task    19 has      16477 integration points.
  Task    20 has      16532 integration points.
  Task    21 has      16450 integration points.
  Task    22 has      16525 integration points.
  Task    23 has      16500 integration points.
  Task    24 has      16447 integration points.
  Task    25 has      16447 integration points.
  Task    26 has      16472 integration points.
  Task    27 has      16542 integration points.
  Task    28 has      16530 integration points.
  Task    29 has      16483 integration points.
  Task    30 has      16456 integration points.
  Task    31 has      16469 integration points.
  Initializing partition tables, free-atom densities, potentials, etc. across the integration grid (initialize_grid_storage).
  | initialize_grid_storage: Actual outermost partition radius vs. multipole_radius_free
  | (-- VB: in principle, multipole_radius_free should be larger, hence this output)
  | Species        1: Confinement radius =              6.000000000000000 AA, multipole_radius_free =              6.071692442739658 AA.
  | Species        1: outer_partition_radius set to              6.071692442739658 AA .
  | Species        2: Confinement radius =              6.000000000000000 AA, multipole_radius_free =              6.029870734432609 AA.
  | Species        2: outer_partition_radius set to              6.029870734432609 AA .
  | Species        3: Confinement radius =              6.000000000000000 AA, multipole_radius_free =              6.058726835495003 AA.
  | Species        3: outer_partition_radius set to              6.058726835495003 AA .
  | Species        4: Confinement radius =              6.000000000000000 AA, multipole_radius_free =              6.064445521808699 AA.
  | Species        4: outer_partition_radius set to              6.064445521808699 AA .
  | Original list of interatomic distances with          32 x         32 entries is created.
  | Net number of integration points:   527728
  | of which are non-zero points    :   411156
  Obtaining max. number of non-zero basis functions in each batch (get_n_compute_maxes).
  | Maximal number of non-zero basis functions:      813 in task     0
  | Maximal number of non-zero basis functions:      800 in task     1
  | Maximal number of non-zero basis functions:      796 in task     2
  | Maximal number of non-zero basis functions:      802 in task     3
  | Maximal number of non-zero basis functions:      787 in task     4
  | Maximal number of non-zero basis functions:      795 in task     5
  | Maximal number of non-zero basis functions:      810 in task     6
  | Maximal number of non-zero basis functions:      785 in task     7
  | Maximal number of non-zero basis functions:      788 in task     8
  | Maximal number of non-zero basis functions:      809 in task     9
  | Maximal number of non-zero basis functions:      792 in task    10
  | Maximal number of non-zero basis functions:      800 in task    11
  | Maximal number of non-zero basis functions:      797 in task    12
  | Maximal number of non-zero basis functions:      818 in task    13
  | Maximal number of non-zero basis functions:      801 in task    14
  | Maximal number of non-zero basis functions:      800 in task    15
  | Maximal number of non-zero basis functions:      811 in task    16
  | Maximal number of non-zero basis functions:      822 in task    17
  | Maximal number of non-zero basis functions:      823 in task    18
  | Maximal number of non-zero basis functions:      808 in task    19
  | Maximal number of non-zero basis functions:      799 in task    20
  | Maximal number of non-zero basis functions:      814 in task    21
  | Maximal number of non-zero basis functions:      797 in task    22
  | Maximal number of non-zero basis functions:      812 in task    23
  | Maximal number of non-zero basis functions:      802 in task    24
  | Maximal number of non-zero basis functions:      805 in task    25
  | Maximal number of non-zero basis functions:      800 in task    26
  | Maximal number of non-zero basis functions:      814 in task    27
  | Maximal number of non-zero basis functions:      806 in task    28
  | Maximal number of non-zero basis functions:      805 in task    29
  | Maximal number of non-zero basis functions:      806 in task    30
  | Maximal number of non-zero basis functions:      783 in task    31
  Selecting the method for density update.
  Loop over occupied states selected for charge density update.
  Integrating Hamiltonian matrix: batch-based integration.
  Time summed over all CPUs for integration: real work       23.352 s, elapsed       24.165 s
  Integrating overlap matrix.
  Time summed over all CPUs for integration: real work       14.262 s, elapsed       14.684 s
  Deallocating overlap matrix.

  Updating Kohn-Sham eigenvalues, eigenvectors, occupation numbers, and Fermi level.
  Solving generalized eigenproblem
  Solving real symmetric generalised eigenvalue problem by standard ScaLAPACK.
  Transforming overlap matrix with ScaLAPACK and checking for singularities.
  : Overlap matrix is nonsingular, using Cholesky decomposition
  | Lowest eigenvalue:  0.862124E-04
  Factoring overlap matrix with Cholesky decomposition
  Using Cholesky factor for transformation
  Using 1-stage real ELPA solver
  Determining occupation numbers for Kohn-Sham eigenstates.
  | Chemical potential (Fermi level) in eV                 : -.95293372E+01
  | Error in electron count due to remaining E_F inaccuracy: 0.00000000E+00
  | Maximum occupation number of highest empty state:  0.00E+00

  Writing Kohn-Sham eigenvalues.

  State    Occupation    Eigenvalue [Ha]    Eigenvalue [eV]
      1       2.00000         -18.975593         -516.35215
      2       2.00000         -18.974947         -516.33457
      3       2.00000         -18.973947         -516.30738
      4       2.00000         -14.255077         -387.90037
      5       2.00000         -14.253109         -387.84682
      6       2.00000         -14.251733         -387.80938
      7       2.00000         -10.171506         -276.78076
      8       2.00000         -10.171216         -276.77286
      9       2.00000         -10.170692         -276.75861
     10       2.00000         -10.166601         -276.64729
     11       2.00000         -10.147891         -276.13816
     12       2.00000         -10.147163         -276.11835
     13       2.00000         -10.136202         -275.82010
     14       2.00000         -10.134098         -275.76284
     15       2.00000         -10.133076         -275.73501
     16       2.00000          -1.136415          -30.92341
     17       2.00000          -1.131714          -30.79550
     18       2.00000          -1.130660          -30.76681
     19       2.00000          -1.018460          -27.71369
     20       2.00000          -1.011811          -27.53278
     21       2.00000          -1.002077          -27.26790
     22       2.00000          -0.885115          -24.08521
     23       2.00000          -0.876509          -23.85102
     24       2.00000          -0.841265          -22.89197
     25       2.00000          -0.817627          -22.24877
     26       2.00000          -0.779678          -21.21611
     27       2.00000          -0.762164          -20.73954
     28       2.00000          -0.702519          -19.11653
     29       2.00000          -0.684442          -18.62462
     30       2.00000          -0.663604          -18.05757
     31       2.00000          -0.634232          -17.25834
     32       2.00000          -0.629564          -17.13131
     33       2.00000          -0.613310          -16.68903
     34       2.00000          -0.611161          -16.63054
     35       2.00000          -0.585425          -15.93023
     36       2.00000          -0.578332          -15.73721
     37       2.00000          -0.566964          -15.42789
     38       2.00000          -0.561392          -15.27625
     39       2.00000          -0.559122          -15.21448
     40       2.00000          -0.553387          -15.05844
     41       2.00000          -0.549380          -14.94940
     42       2.00000          -0.548671          -14.93009
     43       2.00000          -0.535386          -14.56860
     44       2.00000          -0.528842          -14.39051
     45       2.00000          -0.520429          -14.16159
     46       2.00000          -0.515772          -14.03486
     47       2.00000          -0.507905          -13.82081
     48       2.00000          -0.500125          -13.60909
     49       2.00000          -0.496578          -13.51257
     50       2.00000          -0.486553          -13.23979
     51       2.00000          -0.479471          -13.04708
     52       2.00000          -0.478310          -13.01548
     53       2.00000          -0.410019          -11.15718
     54       2.00000          -0.404458          -11.00585
     55       2.00000          -0.400935          -10.91001
     56       2.00000          -0.390495          -10.62591
     57       2.00000          -0.382867          -10.41834
     58       2.00000          -0.381660          -10.38551
     59       0.00000          -0.165962           -4.51605
     60       0.00000          -0.164267           -4.46993
     61       0.00000          -0.158213           -4.30521
     62       0.00000          -0.083127           -2.26201
     63       0.00000          -0.065557           -1.78390
     64       0.00000          -0.063103           -1.71712
     65       0.00000          -0.051191           -1.39297
     66       0.00000          -0.048219           -1.31210
     67       0.00000          -0.037311           -1.01529
     68       0.00000          -0.034002           -0.92525
     69       0.00000          -0.024981           -0.67977
     70       0.00000          -0.023037           -0.62687
     71       0.00000          -0.017647           -0.48019
     72       0.00000          -0.013888           -0.37790
     73       0.00000          -0.012363           -0.33643
     74       0.00000          -0.007558           -0.20566
     75       0.00000          -0.000245           -0.00667
     76       0.00000           0.003018            0.08214
     77       0.00000           0.005765            0.15687
     78       0.00000           0.007525            0.20476
     79       0.00000           0.008969            0.24406
     80       0.00000           0.013292            0.36170
     81       0.00000           0.020190            0.54939
     82       0.00000           0.029221            0.79515
     83       0.00000           0.033078            0.90009
     84       0.00000           0.038717            1.05354
     85       0.00000           0.048196            1.31147
     86       0.00000           0.052239            1.42149
     87       0.00000           0.057318            1.55971
     88       0.00000           0.058393            1.58894
     89       0.00000           0.065180            1.77363
     90       0.00000           0.067989            1.85009
     91       0.00000           0.074776            2.03475
     92       0.00000           0.076826            2.09053
     93       0.00000           0.087028            2.36816
     94       0.00000           0.093355            2.54032
     95       0.00000           0.101253            2.75524
     96       0.00000           0.105671            2.87547
     97       0.00000           0.114099            3.10480
     98       0.00000           0.115546            3.14415
     99       0.00000           0.124673            3.39253
    100       0.00000           0.126579            3.44438
    101       0.00000           0.131224            3.57079
    102       0.00000           0.135115            3.67666
    103       0.00000           0.136725            3.72048
    104       0.00000           0.139693            3.80125
    105       0.00000           0.146917            3.99782
    106       0.00000           0.150037            4.08271
    107       0.00000           0.154014            4.19094
    108       0.00000           0.156696            4.26391
    109       0.00000           0.163488            4.44873
    110       0.00000           0.172702            4.69945
    111       0.00000           0.182938            4.97801
    112       0.00000           0.183715            4.99914
    113       0.00000           0.189344            5.15231
    114       0.00000           0.192754            5.24511
    115       0.00000           0.196948            5.35923
    116       0.00000           0.202199            5.50212
    117       0.00000           0.208440            5.67194
    118       0.00000           0.213291            5.80395
    119       0.00000           0.220910            6.01126
    120       0.00000           0.223086            6.07047
    121       0.00000           0.225824            6.14498
    122       0.00000           0.234260            6.37455
    123       0.00000           0.236017            6.42235
    124       0.00000           0.236826            6.44437
    125       0.00000           0.242776            6.60628
    126       0.00000           0.250362            6.81269
    127       0.00000           0.257305            7.00162
    128       0.00000           0.261446            7.11432
    129       0.00000           0.270278            7.35464

  Highest occupied state (VBM) at    -10.38550857 eV
  | Occupation number:      2.00000000

  Lowest unoccupied state (CBM) at    -4.51604798 eV
  | Occupation number:      0.00000000

  Overall HOMO-LUMO gap:      5.86946059 eV.
  Calculating total energy contributions from superposition of free atom densities.

  Total energy components:
  | Sum of eigenvalues            :        -437.83530888 Ha      -11914.10493750 eV
  | XC energy correction          :         -98.81451978 Ha       -2688.87989199 eV
  | XC potential correction       :         127.01456778 Ha        3456.24224109 eV
  | Free-atom electrostatic energy:        -333.64884243 Ha       -9079.04693931 eV
  | Hartree energy correction     :           0.00000000 Ha           0.00000000 eV
  | MBD@rsSCS energy              :           0.00000000 Ha           0.00000000 eV
  | Entropy correction            :          -0.00000000 Ha          -0.00000000 eV
  | ---------------------------
  | Total energy                  :        -743.28410330 Ha      -20225.78952771 eV
  | Total energy, T -> 0          :        -743.28410330 Ha      -20225.78952771 eV  <-- do not rely on this value for anything but (periodic) metals
  | Electronic free energy        :        -743.28410330 Ha      -20225.78952771 eV

  Derived energy quantities:
  | Kinetic energy                :         735.14165133 Ha       20004.22213617 eV
  | Electrostatic energy          :       -1379.61123485 Ha      -37541.13177190 eV
  | Energy correction for multipole
  | error in Hartree potential    :           0.00000000 Ha           0.00000000 eV
  | Sum of eigenvalues per atom                           :        -372.31577930 eV
  | Total energy (T->0) per atom                          :        -632.05592274 eV  <-- do not rely on this value for anything but (periodic) metals
  | Electronic free energy per atom                       :        -632.05592274 eV
  Initialize hartree_potential_storage
  Max. number of atoms included in rho_multipole:           32

  End scf initialization - timings             :  max(cpu_time)    wall_clock(cpu1)
  | Time for scf. initialization               :        1.988 s           1.989 s
  | Boundary condition initialization          :        0.004 s           0.001 s
  | Integration                                :        1.236 s           1.236 s
  | Solution of K.-S. eqns.                    :        0.076 s           0.075 s
  | Grid partitioning                          :        0.300 s           0.293 s
  | Preloading free-atom quantities on grid    :        0.028 s           0.028 s
  | Free-atom superposition energy             :        0.040 s           0.040 s
  | Total energy evaluation                    :        0.004 s           0.001 s
------------------------------------------------------------

------------------------------------------------------------
          Begin self-consistency iteration #    1

  Date     :  20170309, Time     :  191043.455
------------------------------------------------------------
  Evaluating new KS density.
  Integration grid: deviation in total charge (<rho> - N_e) =   2.842171E-14
  Pulay mixing of updated and previous charge densities.

  Evaluating partitioned Hartree potential by multipole expansion.
  | Analytical far-field extrapolation by fixed multipoles:
  | Hartree multipole sum: apparent total charge =   0.729453E-04
  Summing up the Hartree potential.
  Time summed over all CPUs for potential: real work        9.593 s, elapsed        9.876 s
  | RMS charge density error from multipole expansion :   0.106405E-01

  Integrating Hamiltonian matrix: batch-based integration.
  Time summed over all CPUs for integration: real work       23.749 s, elapsed       24.523 s

  Updating Kohn-Sham eigenvalues, eigenvectors, occupation numbers, and Fermi level.
  Solving generalized eigenproblem
  Solving real symmetric generalised eigenvalue problem by standard ScaLAPACK.
  Using Cholesky factor for transformation
  Using 2-stage real ELPA solver
  K-Point:    1, Trafo times: 1-stage=     0.021 s, 2-stage=     0.019 s ==> Using 2-stage solver
  Determining occupation numbers for Kohn-Sham eigenstates.
  | Chemical potential (Fermi level) in eV                 : -.23092560E+01
  | Error in electron count due to remaining E_F inaccuracy: 0.00000000E+00
  | Maximum occupation number of highest empty state:  0.00E+00

  Writing Kohn-Sham eigenvalues.

  State    Occupation    Eigenvalue [Ha]    Eigenvalue [eV]
      1       2.00000         -18.615600         -506.55625
      2       2.00000         -18.615138         -506.54367
      3       2.00000         -18.605988         -506.29469
      4       2.00000         -14.005258         -381.10246
      5       2.00000         -13.987087         -380.60799
      6       2.00000         -13.986014         -380.57880
      7       2.00000         -10.057684         -273.68352
      8       2.00000         -10.054552         -273.59827
      9       2.00000         -10.050464         -273.48705
     10       2.00000          -9.964894         -271.15855
     11       2.00000          -9.964574         -271.14987
     12       2.00000          -9.892529         -269.18942
     13       2.00000          -9.859411         -268.28822
     14       2.00000          -9.830385         -267.49840
     15       2.00000          -9.818751         -267.18182
     16       2.00000          -0.965419          -26.27039
     17       2.00000          -0.960973          -26.14941
     18       2.00000          -0.950923          -25.87592
     19       2.00000          -0.873897          -23.77994
     20       2.00000          -0.862601          -23.47256
     21       2.00000          -0.853406          -23.22237
     22       2.00000          -0.739532          -20.12369
     23       2.00000          -0.723362          -19.68368
     24       2.00000          -0.691483          -18.81622
     25       2.00000          -0.673193          -18.31850
     26       2.00000          -0.635836          -17.30197
     27       2.00000          -0.619137          -16.84759
     28       2.00000          -0.582795          -15.85865
     29       2.00000          -0.552458          -15.03315
     30       2.00000          -0.539434          -14.67875
     31       2.00000          -0.507884          -13.82023
     32       2.00000          -0.489551          -13.32135
     33       2.00000          -0.475267          -12.93266
     34       2.00000          -0.463402          -12.60982
     35       2.00000          -0.449925          -12.24309
     36       2.00000          -0.438642          -11.93606
     37       2.00000          -0.436522          -11.87836
     38       2.00000          -0.429707          -11.69293
     39       2.00000          -0.406097          -11.05047
     40       2.00000          -0.400858          -10.90790
     41       2.00000          -0.393545          -10.70891
     42       2.00000          -0.389090          -10.58767
     43       2.00000          -0.378758          -10.30653
     44       2.00000          -0.374125          -10.18045
     45       2.00000          -0.367244           -9.99322
     46       2.00000          -0.364659           -9.92289
     47       2.00000          -0.358891           -9.76592
     48       2.00000          -0.355803           -9.68188
     49       2.00000          -0.345990           -9.41488
     50       2.00000          -0.344285           -9.36848
     51       2.00000          -0.336859           -9.16640
     52       2.00000          -0.332937           -9.05966
     53       2.00000          -0.245384           -6.67723
     54       2.00000          -0.229502           -6.24505
     55       2.00000          -0.225186           -6.12762
     56       2.00000          -0.215157           -5.85473
     57       2.00000          -0.210406           -5.72543
     58       2.00000          -0.201032           -5.47037
     59       0.00000          -0.060279           -1.64029
     60       0.00000          -0.052416           -1.42632
     61       0.00000          -0.046066           -1.25352
     62       0.00000          -0.035142           -0.95626
     63       0.00000          -0.022731           -0.61853
     64       0.00000          -0.018699           -0.50884
     65       0.00000          -0.005533           -0.15056
     66       0.00000          -0.000855           -0.02327
     67       0.00000           0.006687            0.18196
     68       0.00000           0.013792            0.37531
     69       0.00000           0.018975            0.51633
     70       0.00000           0.025374            0.69046
     71       0.00000           0.034038            0.92623
     72       0.00000           0.040623            1.10540
     73       0.00000           0.047356            1.28861
     74       0.00000           0.049759            1.35402
     75       0.00000           0.060108            1.63563
     76       0.00000           0.062548            1.70201
     77       0.00000           0.069631            1.89475
     78       0.00000           0.072158            1.96351
     79       0.00000           0.076919            2.09308
     80       0.00000           0.086880            2.36412
     81       0.00000           0.088424            2.40613
     82       0.00000           0.094992            2.58485
     83       0.00000           0.100538            2.73577
     84       0.00000           0.101425            2.75992
     85       0.00000           0.112070            3.04959
     86       0.00000           0.116774            3.17759
     87       0.00000           0.126104            3.43148
     88       0.00000           0.134843            3.66926
     89       0.00000           0.138073            3.75714
     90       0.00000           0.143233            3.89757
     91       0.00000           0.149019            4.05501
     92       0.00000           0.151917            4.13386
     93       0.00000           0.154716            4.21004
     94       0.00000           0.160862            4.37729
     95       0.00000           0.165656            4.50772
     96       0.00000           0.169293            4.60669
     97       0.00000           0.176012            4.78954
     98       0.00000           0.178145            4.84757
     99       0.00000           0.184699            5.02590
    100       0.00000           0.190942            5.19580
    101       0.00000           0.195359            5.31599
    102       0.00000           0.198323            5.39665
    103       0.00000           0.199934            5.44049
    104       0.00000           0.204029            5.55190
    105       0.00000           0.207808            5.65473
    106       0.00000           0.212058            5.77038
    107       0.00000           0.214076            5.82530
    108       0.00000           0.225290            6.13045
    109       0.00000           0.227945            6.20270
    110       0.00000           0.231015            6.28625
    111       0.00000           0.239882            6.52753
    112       0.00000           0.241912            6.58277
    113       0.00000           0.250477            6.81582
    114       0.00000           0.257789            7.01479
    115       0.00000           0.258642            7.03801
    116       0.00000           0.262094            7.13194
    117       0.00000           0.270043            7.34826
    118       0.00000           0.278726            7.58452
    119       0.00000           0.285994            7.78229
    120       0.00000           0.290475            7.90422
    121       0.00000           0.292414            7.95698
    122       0.00000           0.299643            8.15370
    123       0.00000           0.302922            8.24293
    124       0.00000           0.308037            8.38211
    125       0.00000           0.309954            8.43428
    126       0.00000           0.316071            8.60074
    127       0.00000           0.328255            8.93226
    128       0.00000           0.331940            9.03255
    129       0.00000           0.342322            9.31504

  Highest occupied state (VBM) at     -5.47037217 eV
  | Occupation number:      2.00000000

  Lowest unoccupied state (CBM) at    -1.64028654 eV
  | Occupation number:      0.00000000

  Overall HOMO-LUMO gap:      3.83008563 eV.

  Total energy components:
  | Sum of eigenvalues            :        -417.39897388 Ha      -11358.00396812 eV
  | XC energy correction          :        -100.74639058 Ha       -2741.44877093 eV
  | XC potential correction       :         129.51951183 Ha        3524.40523668 eV
  | Free-atom electrostatic energy:        -333.64884243 Ha       -9079.04693931 eV
  | Hartree energy correction     :         -20.43557967 Ha        -556.08041579 eV
  | MBD@rsSCS energy              :           0.00000000 Ha           0.00000000 eV
  | Entropy correction            :          -0.00000000 Ha          -0.00000000 eV
  | ---------------------------
  | Total energy                  :        -742.71027472 Ha      -20210.17485747 eV
  | Total energy, T -> 0          :        -742.71027472 Ha      -20210.17485747 eV  <-- do not rely on this value for anything but (periodic) metals
  | Electronic free energy        :        -742.71027472 Ha      -20210.17485747 eV

  Derived energy quantities:
  | Kinetic energy                :         744.01147272 Ha       20245.58225657 eV
  | Electrostatic energy          :       -1385.97535686 Ha      -37714.30834311 eV
  | Energy correction for multipole
  | error in Hartree potential    :          -0.04128501 Ha          -1.12342238 eV
  | Sum of eigenvalues per atom                           :        -354.93762400 eV
  | Total energy (T->0) per atom                          :        -631.56796430 eV  <-- do not rely on this value for anything but (periodic) metals
  | Electronic free energy per atom                       :        -631.56796430 eV

  Self-consistency convergence accuracy:
  | Change of charge density      :  0.9036E+00
  | Change of sum of eigenvalues  :  0.5561E+03 eV
  | Change of total energy        :  0.1561E+02 eV

  End self-consistency iteration #     1       :  max(cpu_time)    wall_clock(cpu1)
  | Time for this iteration                    :        1.644 s           1.640 s
[...]
   Multipole                     :  0.292066E+00 -0.464397E+00  0.112881E+00
   Pulay + GGA                   :  0.776556E+01 -0.103622E+02  0.262913E+01
   MBD@rsSCS                     :  0.172444E-02 -0.198202E-01  0.639937E-02
   ----------------------------------------------------------------
   Total forces(  20)            : -0.120962E-01 -0.190959E-01  0.358033E-02
  atom #   21
   Hellmann-Feynman              : -0.164670E-01 -0.600687E-01  0.184580E-01
   Ionic forces                  :  0.000000E+00  0.000000E+00  0.000000E+00
   Multipole                     :  0.752104E-02  0.136302E-01 -0.365066E-01
   Pulay + GGA                   :  0.951353E-03  0.558432E-01  0.277607E-01
   MBD@rsSCS                     :  0.356799E-02 -0.411504E-04 -0.102339E-01
   ----------------------------------------------------------------
   Total forces(  21)            : -0.442664E-02  0.936361E-02 -0.521893E-03
  atom #   22
   Hellmann-Feynman              : -0.193717E-01  0.316354E-01  0.557468E-01
   Ionic forces                  :  0.000000E+00  0.000000E+00  0.000000E+00
   Multipole                     : -0.742113E-02 -0.899837E-03 -0.740225E-02
   Pulay + GGA                   :  0.322302E-01 -0.360807E-01 -0.378218E-01
   MBD@rsSCS                     :  0.164637E-01 -0.185557E-01  0.236151E-02
   ----------------------------------------------------------------
   Total forces(  22)            :  0.219012E-01 -0.239008E-01  0.128843E-01
  atom #   23
   Hellmann-Feynman              : -0.956719E+00  0.367188E+00 -0.179015E+00
   Ionic forces                  :  0.000000E+00  0.000000E+00  0.000000E+00
   Multipole                     :  0.338833E+00 -0.120642E+00  0.637705E-01
   Pulay + GGA                   :  0.609046E+00 -0.237317E+00  0.119739E+00
   MBD@rsSCS                     :  0.144027E-01 -0.922560E-02  0.124730E-01
   ----------------------------------------------------------------
   Total forces(  23)            :  0.556351E-02  0.371929E-05  0.169667E-01
  atom #   24
   Hellmann-Feynman              :  0.589304E-01 -0.802237E-03 -0.299414E-01
   Ionic forces                  :  0.000000E+00  0.000000E+00  0.000000E+00
   Multipole                     : -0.688333E-02 -0.213508E-01 -0.106429E-01
   Pulay + GGA                   : -0.456830E-01  0.301450E-01  0.376503E-01
   MBD@rsSCS                     :  0.108889E-01 -0.379534E-04  0.449892E-02
   ----------------------------------------------------------------
   Total forces(  24)            :  0.172529E-01  0.795404E-02  0.156502E-02
  atom #   25
   Hellmann-Feynman              :  0.360221E-01  0.362762E-01  0.227057E-02
   Ionic forces                  :  0.000000E+00  0.000000E+00  0.000000E+00
   Multipole                     : -0.193328E-01  0.250695E-01 -0.131066E-01
   Pulay + GGA                   : -0.143278E-01 -0.634505E-01  0.138791E-01
   MBD@rsSCS                     :  0.143654E-01 -0.836802E-02  0.106090E-01
   ----------------------------------------------------------------
   Total forces(  25)            :  0.167268E-01 -0.104729E-01  0.136521E-01
  atom #   26
   Hellmann-Feynman              :  0.328642E-01  0.292355E-01  0.434416E-01
   Ionic forces                  :  0.000000E+00  0.000000E+00  0.000000E+00
   Multipole                     : -0.210147E-01 -0.365727E-02  0.212829E-01
   Pulay + GGA                   : -0.548459E-02 -0.178348E-01 -0.653821E-01
   MBD@rsSCS                     :  0.971511E-02  0.217746E-02  0.332679E-02
   ----------------------------------------------------------------
   Total forces(  26)            :  0.160800E-01  0.992098E-02  0.266914E-02
  atom #   27
   Hellmann-Feynman              : -0.869142E+00  0.959553E+00 -0.117853E+00
   Ionic forces                  :  0.000000E+00  0.000000E+00  0.000000E+00
   Multipole                     : -0.152703E+00  0.118234E+00 -0.188589E-01
   Pulay + GGA                   :  0.102484E+01 -0.107587E+01  0.135797E+00
   MBD@rsSCS                     : -0.140897E-01 -0.172865E-01  0.879277E-02
   ----------------------------------------------------------------
   Total forces(  27)            : -0.110917E-01 -0.153747E-01  0.787740E-02
  atom #   28
   Hellmann-Feynman              :  0.156242E+01 -0.144646E+01  0.743843E+00
   Ionic forces                  :  0.000000E+00  0.000000E+00  0.000000E+00
   Multipole                     : -0.893164E-01  0.832732E-01 -0.173844E-01
   Pulay + GGA                   : -0.147417E+01  0.138095E+01 -0.731908E+00
   MBD@rsSCS                     : -0.206940E-01 -0.165575E-01  0.113066E-01
   ----------------------------------------------------------------
   Total forces(  28)            : -0.217606E-01  0.119857E-02  0.585719E-02
  atom #   29
   Hellmann-Feynman              : -0.606241E-01 -0.179056E-01  0.953466E-02
   Ionic forces                  :  0.000000E+00  0.000000E+00  0.000000E+00
   Multipole                     :  0.303587E-01 -0.292035E-01  0.274978E-02
   Pulay + GGA                   :  0.364843E-01  0.554499E-01 -0.155258E-01
   MBD@rsSCS                     : -0.219289E-02 -0.737835E-02  0.256393E-02
   ----------------------------------------------------------------
   Total forces(  29)            :  0.402605E-02  0.962473E-03 -0.677417E-03
  atom #   30
   Hellmann-Feynman              : -0.193433E-01  0.297383E-01 -0.788178E-02
   Ionic forces                  :  0.000000E+00  0.000000E+00  0.000000E+00
   Multipole                     :  0.697740E-02 -0.591216E-02 -0.301659E-01
   Pulay + GGA                   :  0.188537E-03 -0.205708E-01  0.343599E-01
   MBD@rsSCS                     : -0.187089E-01 -0.131597E-01  0.474194E-02
   ----------------------------------------------------------------
   Total forces(  30)            : -0.308862E-01 -0.990435E-02  0.105414E-02
  atom #   31
   Hellmann-Feynman              : -0.500459E-01  0.175282E-01  0.821772E-03
   Ionic forces                  :  0.000000E+00  0.000000E+00  0.000000E+00
   Multipole                     : -0.149694E-02 -0.415075E-01  0.615353E-02
   Pulay + GGA                   :  0.592233E-01  0.312918E-01 -0.102146E-01
   MBD@rsSCS                     : -0.540441E-02 -0.179674E-03  0.169808E-03
   ----------------------------------------------------------------
   Total forces(  31)            :  0.227600E-02  0.713276E-02 -0.306953E-02
  atom #   32
   Hellmann-Feynman              : -0.112463E-01  0.604148E-01  0.218855E-02
   Ionic forces                  :  0.000000E+00  0.000000E+00  0.000000E+00
   Multipole                     :  0.395287E-02  0.603394E-02  0.321584E-01
   Pulay + GGA                   :  0.486084E-02 -0.566158E-01 -0.394004E-01
   MBD@rsSCS                     : -0.120700E-01 -0.151650E-01  0.303234E-02
   ----------------------------------------------------------------
   Total forces(  32)            : -0.145025E-01 -0.533201E-02 -0.202109E-02

  Removing unitary transformations (pure translations, rotations) from forces on atoms.
  Atomic forces before filtering:
  | Net force on center of mass :   0.104933E-03 -0.771668E-03 -0.641364E-03 eV/A
  | Net torque on center of mass:   0.158757E-02 -0.194739E-02  0.253821E-02 eV
  Atomic forces after filtering:
  | Net force on center of mass :  -0.250884E-16  0.125442E-16 -0.184678E-16 eV/A
  | Net torque on center of mass:   0.250772E-16 -0.184392E-16  0.177016E-16 eV

  Energy and forces in a compact form:
  | Total energy uncorrected      :         -0.202087709198442E+05 eV
  | Total energy corrected        :         -0.202087709198442E+05 eV  <-- do not rely on this value for anything but (periodic) metals
  | Electronic free energy        :         -0.202087709198442E+05 eV
  Total atomic forces (unitary forces cleaned) [eV/Ang]:
  |   1         -0.151241337456727E-02         -0.446016254440512E-02         -0.391206989855949E-02
  |   2         -0.287325408205545E-01          0.206223001618048E-01          0.166167593680089E-01
  |   3         -0.167332476781368E-01         -0.512117527031885E-02         -0.856535655841724E-03
  |   4         -0.101583322993813E-02          0.405894225765936E-02          0.624881914712383E-02
  |   5         -0.101897222669132E-01         -0.250297164895220E-02          0.388258341253307E-02
  |   6          0.207638786354570E-02          0.199764974531387E-02          0.397053568960540E-02
  |   7          0.551295958667085E-02          0.669873128725508E-02          0.112838188977062E-01
  |   8          0.779674462475784E-02          0.210204922072470E-01         -0.124447224288445E-01
  |   9          0.110954548542659E-01         -0.112884284440227E-01         -0.188378610101525E-01
  |  10         -0.651525964648193E-02         -0.226426758700483E-01          0.579697218307744E-02
  |  11          0.227179789926311E-03          0.821640514841271E-03         -0.489073238589559E-02
  |  12         -0.255220817013680E-02          0.187590678778320E-01         -0.516099127159790E-02
  |  13          0.175343711154731E-01          0.558965630437811E-02         -0.770483343130360E-02
  |  14          0.277723657345097E-02          0.169350312524232E-01         -0.648520095203260E-02
  |  15          0.117259894066038E-01          0.265455776406041E-01         -0.202028345418251E-01
  |  16         -0.802392328462999E-03          0.507471320735679E-02         -0.935043864040806E-02
  |  17          0.460437613405908E-02         -0.147024571559597E-01         -0.342772572484756E-01
  |  18          0.160982400370482E-01         -0.189747769423766E-01          0.172965227645341E-01
  |  19         -0.557067744282477E-03         -0.114374395482968E-02         -0.891111340900713E-03
  |  20         -0.120716132199029E-01         -0.190685126986157E-01          0.358719552900534E-02
  |  21         -0.438181830830276E-02          0.940884192501507E-02         -0.505503900886210E-03
  |  22          0.218875648260543E-01         -0.238798622642677E-01          0.129068200623275E-01
  |  23          0.556184769633313E-02          0.511015532131306E-04          0.170146171689139E-01
  |  24          0.172692231919583E-01          0.801190852417013E-02          0.161486587617891E-02
  |  25          0.167179771004526E-01         -0.104171192650792E-01          0.137149081406885E-01
  |  26          0.160626302763772E-01          0.996116054820103E-02          0.271793247055514E-02
  |  27         -0.110760726642595E-01         -0.153716484196239E-01          0.785945298392310E-02
  |  28         -0.217547078288291E-01          0.119146408062894E-02          0.583271257741088E-02
  |  29          0.404939653184629E-02          0.959002821737014E-03         -0.708235929331948E-03
  |  30         -0.308709256476690E-01         -0.990182999694014E-02          0.103578195938986E-02
  |  31          0.228700441279594E-02          0.711275854238775E-02         -0.311323184355931E-02
  |  32         -0.145187610931821E-01         -0.534467597662881E-02         -0.203873775136741E-02

  ------------------------------------ 
  Start decomposition of the XC Energy 
  ------------------------------------ 
  Hartree-Fock part   :          0.000000000 Ha              0.000000000 eV
  ------------------------------------ 
  X Energy            :        -96.978761371 Ha          -2638.926363988 eV
  C Energy GGA        :         -3.869074994 Ha           -105.282887310 eV
  Total XC Energy     :       -100.847836364 Ha          -2744.209251298 eV
  LDA X and C from self-consistent density 
  X Energy LDA        :        -87.996470390 Ha          -2394.505790431 eV
  C Energy LDA        :         -7.531949092 Ha           -204.954762788 eV
  ------------------------------------ 
  End decomposition of the XC Energy 
  ------------------------------------ 
   
  ESP charge fitting starts.
  | Calculation :  00000001  of  00000001
  | Full density
  Computing multipole expansion for total density.
  Generating points for esp charges.
  Partitioning the integration grid into batches with parallel hashing+maxmin method.
  | Number of batches:     3863
  | Maximal batch size:     197
  | Minimal batch size:      53
  | Average batch size:     125.915
  | Standard deviation of batch sizes:      17.894

  Integration load balanced across    32 MPI tasks.
  Work distribution over tasks is as follows:
  Initializing partition tables, free-atom densities, potentials, etc. across the integration grid (initialize_grid_storage).
  | Original list of interatomic distances with          32 x         32 entries is created.
  | Net number of integration points:   486410
  | of which are non-zero points    :   486410
  Summing up potential from multipole expanded  density.
  Summing up the Hartree potential.
  Time summed over all CPUs for potential: real work        6.450 s, elapsed        6.729 s
  Fitting esp charges to potential.
  |
  | ESP charges fitted to the electrostatic potential :
  |
  | Atom         1: C, ESP charge:      0.92780659
  |
  | Atom         2: C, ESP charge:     -0.57186349
  |
  | Atom         3: O, ESP charge:      0.47540465
  |
  | Atom         4: H, ESP charge:     -0.26765123
  |
  | Atom         5: H, ESP charge:     -0.23907033
  |
  | Atom         6: H, ESP charge:     -0.27427950
  |
  | Atom         7: N, ESP charge:      0.39365701
  |
  | Atom         8: C, ESP charge:     -0.48323983
  |
  | Atom         9: C, ESP charge:     -0.52296596
  |
  | Atom        10: O, ESP charge:      0.50305296
  |
  | Atom        11: H, ESP charge:     -0.24529224
  |
  | Atom        12: H, ESP charge:      0.05168808
  |
  | Atom        13: C, ESP charge:      0.39386635
  |
  | Atom        14: H, ESP charge:     -0.09629207
  |
  | Atom        15: H, ESP charge:     -0.13066283
  |
  | Atom        16: H, ESP charge:     -0.06543239
  |
  | Atom        17: N, ESP charge:      1.01397521
  |
  | Atom        18: C, ESP charge:     -1.08499074
  |
  | Atom        19: C, ESP charge:      0.11145462
  |
  | Atom        20: O, ESP charge:      0.43971644
  |
  | Atom        21: H, ESP charge:     -0.44822068
  |
  | Atom        22: H, ESP charge:      0.21363252
  |
  | Atom        23: C, ESP charge:      0.68017358
  |
  | Atom        24: H, ESP charge:     -0.18344519
  |
  | Atom        25: H, ESP charge:     -0.13331711
  |
  | Atom        26: H, ESP charge:     -0.16356808
  |
  | Atom        27: N, ESP charge:     -0.17173908
  |
  | Atom        28: C, ESP charge:      0.88871579
  |
  | Atom        29: H, ESP charge:     -0.21073560
  |
  | Atom        30: H, ESP charge:     -0.30944706
  |
  | Atom        31: H, ESP charge:     -0.25413557
  |
  | Atom        32: H, ESP charge:     -0.23679483

  RRMS:       0.00305739

  Done.

------------------------------------------------------------------------------
  Final output of selected total energy values:

  The following output summarizes some interesting total energy values
  at the end of a run (AFTER all relaxation, molecular dynamics, etc.).

  | Total energy of the DFT / Hartree-Fock s.c.f. calculation      :         -20208.770919844 eV
  | Final zero-broadening corrected energy (caution - metals only) :         -20208.770919844 eV
  | For reference only, the value of 1 Hartree used in FHI-aims is :             27.211384500 eV

  Before relying on these values, please be sure to understand exactly which
  total energy value is referred to by a given number. Different objects may
  all carry the same name 'total energy'. Definitions:

  Total energy of the DFT / Hartree-Fock s.c.f. calculation:
  | Note that this energy does not include ANY quantities calculated after the
  | s.c.f. cycle, in particular not ANY RPA, MP2, etc. many-body perturbation terms.

  Final zero-broadening corrected energy:
  | For metallic systems only, a broadening of the occupation numbers at the Fermi
  | level can be extrapolated back to zero broadening by an electron-gas inspired
  | formula. For all systems that are not real metals, this value can be
  | meaningless and should be avoided.

------------------------------------------------------------------------------
  Methods described in the following list of references were used in this FHI-aims run.
  If you publish the results, please make sure to cite these reference if they apply.
  FHI-aims is an academic code, and for our developers (often, Ph.D. students
  and postdocs), scientific credit in the community is essential.
  Thank you for helping us!

  For any use of FHI-aims, please cite:

    Volker Blum, Ralf Gehrke, Felix Hanke, Paula Havu, Ville Havu,
    Xinguo Ren, Karsten Reuter, and Matthias Scheffler
    'Ab initio molecular simulations with numeric atom-centered orbitals'
    Computer Physics Communications 180, 2175-2196 (2009)
    http://dx.doi.org/10.1016/j.cpc.2009.06.022


  The scalable eigensolver library ELPA was used in your run.
  ELPA is essential especially for large systems on hundreds or thousands of CPUs.
  For ELPA, please cite:

    Andreas Marek, Volker Blum, Rainer Johanni, Ville Havu, Bruno Lang,
    Thomas Auckenthaler, Alexander Heinecke, Hans-Joachim Bungartz, and Hermann Lederer,
    'The ELPA Library - Scalable Parallel Eigenvalue Solutions
    for Electronic Structure Theory and Computational Science'
    The Journal of Physics: Condensed Matter 26, 213201 (2014).
    http://dx.doi.org/10.1088/0953-8984/26/21/213201


  For ELPA's efficient two-stage tridiagonalization used in your run, please cite:

    T. Auckenthaler, V. Blum, H.-J. Bungartz, T. Huckle, R. Johanni, L. Kraemer,
    B. Lang, H. Lederer, and P. R. Willems,
    'Parallel solution of partial symmetric eigenvalue problems'
    'from  electronic structure calculations'
    Parallel Computing 37, 783-794 (2011).
    http://dx.doi.org/10.1016/j.parco.2011.05.002


  For the real-space grid partitioning and parallelization used in this calculation, please cite:

    Ville Havu, Volker Blum, Paula Havu, and Matthias Scheffler,
    'Efficient O(N) integration for all-electron electronic structure calculation'
    'using numerically tabulated basis functions'
    Journal of Computational Physics 228, 8367-8379 (2009).
    http://dx.doi.org/10.1016/j.jcp.2009.08.008

  Of course, there are many other important community references, e.g., those cited in the
  above references. Our list is limited to references that describe implementations in the
  FHI-aims code. The reason is purely practical (length of this list) - please credit others as well.

------------------------------------------------------------
          Leaving FHI-aims.
          Date     :  20170309, Time     :  191115.727

          Computational steps:
          | Number of self-consistency cycles          :           14

          Detailed time accounting                     :  max(cpu_time)    wall_clock(cpu1)
          | Total time                                 :       35.138 s          35.333 s
          | Preparation time                           :        0.236 s           0.238 s
          | Grid partitioning                          :        0.300 s           0.293 s
          | Preloading free-atom quantities on grid    :        0.028 s           0.028 s
          | Free-atom superposition energy             :        0.040 s           0.040 s
          | Total time for integrations                :       12.125 s          12.109 s
          | Total time for solution of K.-S. equations :        0.536 s           0.506 s
          | Total time for density & force components  :       10.397 s          10.370 s
          | Total time for mixing                      :        0.128 s           0.106 s
          | Total time for Hartree multipole update    :        0.080 s           0.059 s
          | Total time for Hartree multipole sum       :        6.396 s           6.361 s
          | Total time for total energy evaluation     :        0.032 s           0.026 s

          Have a nice day.
------------------------------------------------------------
