  MPI-parallelism will be employed.
------------------------------------------------------------
          Invoking FHI-aims ...
          Version 150427
          Git rev.: 9dd23e0 BL: Update Version stamp
          Compiled on 2015/11/03 at 22:05:20 on host eos03.

          When using FHI-aims, please cite the following reference:

          Volker Blum, Ralf Gehrke, Felix Hanke, Paula Havu,
          Ville Havu, Xinguo Ren, Karsten Reuter, and Matthias Scheffler,
          'Ab Initio Molecular Simulations with Numeric Atom-Centered Orbitals: FHI-aims',
          Computer Physics Communications 180, 2175-2196 (2009)

          For any questions about FHI-aims, please visit the aimsclub website
          with its forums and wiki. Contributions to both the forums and the
          wiki are warmly encouraged - they are for you, and everyone is welcome there.

------------------------------------------------------------

  Date     :  20170309, Time     :  182810.644
  Time zero on CPU 1             :   0.380023000000000E+00  s.
  Internal wall clock time zero  :           258316090.644  s.

  Using       32 parallel tasks.
  Task        0 on host eos026 reporting.
  Task        1 on host eos026 reporting.
  Task        2 on host eos026 reporting.
  Task        3 on host eos026 reporting.
  Task        4 on host eos026 reporting.
  Task        5 on host eos026 reporting.
  Task        6 on host eos026 reporting.
  Task        7 on host eos026 reporting.
  Task        8 on host eos026 reporting.
  Task        9 on host eos026 reporting.
  Task       10 on host eos026 reporting.
  Task       11 on host eos026 reporting.
  Task       12 on host eos026 reporting.
  Task       13 on host eos026 reporting.
  Task       14 on host eos026 reporting.
  Task       15 on host eos026 reporting.
  Task       16 on host eos026 reporting.
  Task       17 on host eos026 reporting.
  Task       18 on host eos026 reporting.
  Task       19 on host eos026 reporting.
  Task       20 on host eos026 reporting.
  Task       21 on host eos026 reporting.
  Task       22 on host eos026 reporting.
  Task       23 on host eos026 reporting.
  Task       24 on host eos026 reporting.
  Task       25 on host eos026 reporting.
  Task       26 on host eos026 reporting.
  Task       27 on host eos026 reporting.
  Task       28 on host eos026 reporting.
  Task       29 on host eos026 reporting.
  Task       30 on host eos026 reporting.
  Task       31 on host eos026 reporting.

  Performing system and environment tests:
  | Environment variable OMP_NUM_THREADS correctly set to 1.
  | Stacksize not measured: no C compiler
  | Checking for scalapack...
  | Testing pdtran()...
  | All pdtran() tests passed.

  Obtaining array dimensions for all initial allocations:
  
  -----------------------------------------------------------------------
  Parsing control.in (first pass over file, find array dimensions only).
  The contents of control.in will be repeated verbatim below
  unless switched off by setting 'verbatim_writeout .false.' .
  in the first line of control.in .
  -----------------------------------------------------------------------
  
  #########################################################################################
  #
  # Input for System
  #
  #########################################################################################
  #
  #
  #  Physical model
  #
    xc                 pbe
    many_body_dispersion
    spin               none
    charge             0.
  #
  #  SCF convergence
  #
    occupation_type    gaussian 0.05
    mixer              pulay
      n_max_pulay        10
      charge_mix_param   0.5
    sc_accuracy_rho    1E-4
    sc_accuracy_eev    1E-2
    sc_accuracy_etot   1E-5
    sc_accuracy_forces 1E-4
    sc_iter_limit      1000
  #
  #  ESP charge
  #
    output esp
    esp equal_grid_n 80 80 80
  #
  #
  ################################################################################
  #
  #  FHI-aims code project
  # Volker Blum, Fritz Haber Institute Berlin, 2009
  #
  #  Suggested "tight" defaults for H atom (to be pasted into control.in file)
  #
  ################################################################################
    species        H
  #     global species definitions
      nucleus             1
      mass                1.00794
  #
      l_hartree           6
  #
      cut_pot             4.0  2.0  1.0
      basis_dep_cutoff    1e-4
  #
      radial_base         24 7.0
      radial_multiplier   2
      angular_grids       specified
        division   0.1930   50
        division   0.3175  110
        division   0.4293  194
        division   0.5066  302
        division   0.5626  434
  #      division   0.5922  590
  #      division   0.6227  974
  #      division   0.6868 1202
  #      outer_grid  770
        outer_grid  434
  ################################################################################
  #
  #  Definition of "minimal" basis
  #
  ################################################################################
  #     valence basis states
      valence      1  s   1.
  #     ion occupancy
      ion_occ      1  s   0.5
  ################################################################################
  #
  #  Suggested additional basis functions. For production calculations,
  #  uncomment them one after another (the most important basis functions are
  #  listed first).
  #
  #  Basis constructed for dimers: 0.5 A, 0.7 A, 1.0 A, 1.5 A, 2.5 A
  #
  ################################################################################
  #  "First tier" - improvements: -1014.90 meV to -62.69 meV
       hydro 2 s 2.1
       hydro 2 p 3.5
  #  "Second tier" - improvements: -12.89 meV to -1.83 meV
       hydro 1 s 0.85
       hydro 2 p 3.7
       hydro 2 s 1.2
       hydro 3 d 7
  #  "Third tier" - improvements: -0.25 meV to -0.12 meV
  #     hydro 4 f 11.2
  #     hydro 3 p 4.8
  #     hydro 4 d 9
  #     hydro 3 s 3.2
  ################################################################################
  #
  # For methods that use the localized form of the "resolution of identity" for
  # the two-electron Coulomb operator (RI_method LVL), particularly Hartree-Fock and
  # hybrid density functional calculations, the highest accuracy can be obtained by
  # uncommenting the line beginning with "for_aux"  below, thus adding an extra g radial
  # function to the construction of the product basis set for the expansion.
  # See Ref. New J. Phys. 17, 093020 (2015) for more information, particularly Figs. 1 and 6.
  #
  ################################################################################
  #
  # for_aux hydro 5 g 6.0
  ################################################################################
  #
  #  FHI-aims code project
  # Volker Blum, Fritz Haber Institute Berlin, 2009
  #
  #  Suggested "tight" defaults for C atom (to be pasted into control.in file)
  #
  ################################################################################
    species        C
  #     global species definitions
      nucleus             6
      mass                12.0107
  #
      l_hartree           6
  #
      cut_pot             4.0  2.0  1.0
      basis_dep_cutoff    1e-4
  #
      radial_base         34 7.0
      radial_multiplier   2
      angular_grids specified
        division   0.2187   50
        division   0.4416  110
        division   0.6335  194
        division   0.7727  302
        division   0.8772  434
  #      division   0.9334  590
  #      division   0.9924  770
  #      division   1.0230  974
  #      division   1.5020 1202
  #     outer_grid  974
        outer_grid  434
  ################################################################################
  #
  #  Definition of "minimal" basis
  #
  ################################################################################
  #     valence basis states
      valence      2  s   2.
      valence      2  p   2.
  #     ion occupancy
      ion_occ      2  s   1.
      ion_occ      2  p   1.
  ################################################################################
  #
  #  Suggested additional basis functions. For production calculations,
  #  uncomment them one after another (the most important basis functions are
  #  listed first).
  #
  #  Constructed for dimers: 1.0 A, 1.25 A, 1.5 A, 2.0 A, 3.0 A
  #
  ################################################################################
  #  "First tier" - improvements: -1214.57 meV to -155.61 meV
       hydro 2 p 1.7
       hydro 3 d 6
       hydro 2 s 4.9
  #  "Second tier" - improvements: -67.75 meV to -5.23 meV
       hydro 4 f 9.8
       hydro 3 p 5.2
       hydro 3 s 4.3
       hydro 5 g 14.4
       hydro 3 d 6.2
  #  "Third tier" - improvements: -2.43 meV to -0.60 meV
  #     hydro 2 p 5.6
  #     hydro 2 s 1.4
  #     hydro 3 d 4.9
  #     hydro 4 f 11.2
  #  "Fourth tier" - improvements: -0.39 meV to -0.18 meV
  #     hydro 2 p 2.1
  #     hydro 5 g 16.4
  #     hydro 4 d 13.2
  #     hydro 3 s 13.6
  #     hydro 4 f 17.6
  #  Further basis functions - improvements: -0.08 meV and below
  #     hydro 3 s 2
  #     hydro 3 p 6
  #     hydro 4 d 20
  ################################################################################
  #
  # For methods that use the localized form of the "resolution of identity" for
  # the two-electron Coulomb operator (RI_method LVL), particularly Hartree-Fock and
  # hybrid density functional calculations, the highest accuracy can be obtained by
  # uncommenting the line beginning with "for_aux"  below, thus adding an extra g radial
  # function to the construction of the product basis set for the expansion.
  # See Ref. New J. Phys. 17, 093020 (2015) for more information, particularly Figs. 1 and 6.
  #
  ################################################################################
  #
  # for_aux hydro 5 g 6.0
  ################################################################################
  #
  #  FHI-aims code project
  # Volker Blum, Fritz Haber Institute Berlin, 2009
  #
  #  Suggested "tight" defaults for N atom (to be pasted into control.in file)
  #
  ################################################################################
    species        N
  #     global species definitions
      nucleus             7
      mass                14.0067
  #
      l_hartree           6
  #
      cut_pot             4.0  2.0  1.0
      basis_dep_cutoff    1e-4
  #
      radial_base         35 7.0
      radial_multiplier   2
      angular_grids       specified
        division   0.1841   50
        division   0.3514  110
        division   0.5126  194
        division   0.6292  302
        division   0.6939  434
  #      division   0.7396  590
  #      division   0.7632  770
  #      division   0.8122  974
  #      division   1.1604 1202
  #      outer_grid  974
        outer_grid  434
  ################################################################################
  #
  #  Definition of "minimal" basis
  #
  ################################################################################
  #     valence basis states
      valence      2  s   2.
      valence      2  p   3.
  #     ion occupancy
      ion_occ      2  s   1.
      ion_occ      2  p   2.
  ################################################################################
  #
  #  Suggested additional basis functions. For production calculations,
  #  uncomment them one after another (the most important basis functions are
  #  listed first).
  #
  #  Constructed for dimers: 1.0 A, 1.1 A, 1.5 A, 2.0 A, 3.0 A
  #
  ################################################################################
  #  "First tier" - improvements: -1193.42 meV to -220.60 meV
       hydro 2 p 1.8
       hydro 3 d 6.8
       hydro 3 s 5.8
  #  "Second tier" - improvements: -80.21 meV to -6.86 meV
       hydro 4 f 10.8
       hydro 3 p 5.8
       hydro 1 s 0.8
       hydro 5 g 16
       hydro 3 d 4.9
  #  "Third tier" - improvements: -4.29 meV to -0.53 meV
  #     hydro 3 s 16
  #     ionic 2 p auto
  #     hydro 3 d 6.6
  #     hydro 4 f 11.6
  #  "Fourth tier" - improvements: -0.75 meV to -0.25 meV
  #     hydro 2 p 4.5
  #     hydro 2 s 2.4
  #     hydro 5 g 14.4
  #     hydro 4 d 14.4
  #     hydro 4 f 16.8
  # Further basis functions - -0.21 meV and below
  #     hydro 3 p 14.8
  #     hydro 3 s 4.4
  #     hydro 3 d 19.6
  #     hydro 5 g 12.8
  ################################################################################
  #
  # For methods that use the localized form of the "resolution of identity" for
  # the two-electron Coulomb operator (RI_method LVL), particularly Hartree-Fock and
  # hybrid density functional calculations, the highest accuracy can be obtained by
  # uncommenting the line beginning with "for_aux"  below, thus adding an extra g radial
  # function to the construction of the product basis set for the expansion.
  # See Ref. New J. Phys. 17, 093020 (2015) for more information, particularly Figs. 1 and 6.
  #
  ################################################################################
  #
  # for_aux hydro 5 g 6.0
  ################################################################################
  #
  #  FHI-aims code project
  # Volker Blum, Fritz Haber Institute Berlin, 2009
  #
  #  Suggested "tight" defaults for O atom (to be pasted into control.in file)
  #
  ################################################################################
    species        O
  #     global species definitions
      nucleus             8
      mass                15.9994
  #
      l_hartree           6
  #
      cut_pot             4.0  2.0  1.0
      basis_dep_cutoff    1e-4
  #
      radial_base         36 7.0
      radial_multiplier   2
       angular_grids specified
        division   0.1817   50
        division   0.3417  110
        division   0.4949  194
        division   0.6251  302
        division   0.8014  434
  #      division   0.8507  590
  #      division   0.8762  770
  #      division   0.9023  974
  #      division   1.2339 1202
  #      outer_grid 974
        outer_grid  434
  ################################################################################
  #
  #  Definition of "minimal" basis
  #
  ################################################################################
  #     valence basis states
      valence      2  s   2.
      valence      2  p   4.
  #     ion occupancy
      ion_occ      2  s   1.
      ion_occ      2  p   3.
  ################################################################################
  #
  #  Suggested additional basis functions. For production calculations,
  #  uncomment them one after another (the most important basis functions are
  #  listed first).
  #
  #  Constructed for dimers: 1.0 A, 1.208 A, 1.5 A, 2.0 A, 3.0 A
  #
  ################################################################################
  #  "First tier" - improvements: -699.05 meV to -159.38 meV
       hydro 2 p 1.8
       hydro 3 d 7.6
       hydro 3 s 6.4
  #  "Second tier" - improvements: -49.91 meV to -5.39 meV
       hydro 4 f 11.6
       hydro 3 p 6.2
       hydro 3 d 5.6
       hydro 5 g 17.6
       hydro 1 s 0.75
  #  "Third tier" - improvements: -2.83 meV to -0.50 meV
  #     ionic 2 p auto
  #     hydro 4 f 10.8
  #     hydro 4 d 4.7
  #     hydro 2 s 6.8
  #  "Fourth tier" - improvements: -0.40 meV to -0.12 meV
  #     hydro 3 p 5
  #     hydro 3 s 3.3
  #     hydro 5 g 15.6
  #     hydro 4 f 17.6
  #     hydro 4 d 14
  # Further basis functions - -0.08 meV and below
  #     hydro 3 s 2.1
  #     hydro 4 d 11.6
  #     hydro 3 p 16
  #     hydro 2 s 17.2
  ################################################################################
  #
  # For methods that use the localized form of the "resolution of identity" for
  # the two-electron Coulomb operator (RI_method LVL), particularly Hartree-Fock and
  # hybrid density functional calculations, the highest accuracy can be obtained by
  # uncommenting the line beginning with "for_aux"  below, thus adding an extra g radial
  # function to the construction of the product basis set for the expansion.
  # See Ref. New J. Phys. 17, 093020 (2015) for more information, particularly Figs. 1 and 6.
  #
  ################################################################################
  #
  # for_aux hydro 5 g 6.0
  
  -----------------------------------------------------------------------
  Completed first pass over input file control.in .
  -----------------------------------------------------------------------
  
  
  -----------------------------------------------------------------------
  Parsing geometry.in (first pass over file, find array dimensions only).
  The contents of geometry.in will be repeated verbatim below
  unless switched off by setting 'verbatim_writeout .false.' .
  in the first line of geometry.in .
  -----------------------------------------------------------------------
  
  #
  # This is the geometry file that corresponds to the current relaxation step.
  # If you do not want this file to be written, set the "write_restart_geometry" flag to .false.
  #
  atom       0.10859829      1.17423414      0.42436945 C
  atom      -0.09663630     -0.04446611      1.30540170 C
  atom       0.76411220     -0.91291237      1.41057376 O
  atom       0.95438498      0.96680738     -0.23680986 H
  atom       0.36301699      2.04648887      1.04245939 H
  atom      -0.76750514      1.43375149     -0.18207790 H
  atom      -1.26269628     -0.14149338      2.03652746 N
  atom      -2.49193394      0.64184239      1.93553084 C
  atom      -3.07822745      0.55909245      0.50262670 C
  atom      -3.15106261     -0.52820743     -0.07687520 O
  atom      -1.33255977     -1.03709919      2.50899237 H
  atom      -3.22642524      0.08567857      2.53806825 H
  atom      -2.37076568      2.04289156      2.54964944 C
  atom      -3.35407663      2.52641220      2.63400152 H
  atom      -1.70322541      2.70070390      1.97748421 H
  atom      -1.95703301      1.95902787      3.56156355 H
  atom      -3.51286028      1.71886195     -0.05423747 N
  atom      -4.05614030      1.78808101     -1.41518800 C
  atom      -2.88315789      1.86247407     -2.43556676 C
  atom      -2.56660561      2.91159427     -2.99236445 O
  atom      -3.32497050      2.59618507      0.41868548 H
  atom      -4.59504698      0.84278728     -1.57364656 H
  atom      -4.99738948      2.97353370     -1.55388117 C
  atom      -5.80910768      2.90762846     -0.81821340 H
  atom      -5.43553290      2.99221915     -2.55843654 H
  atom      -4.45831523      3.92115884     -1.42329750 H
  atom      -2.25134393      0.67032560     -2.60658325 N
  atom      -1.04795622      0.52733611     -3.40394894 C
  atom      -2.54528206     -0.09690211     -1.99863326 H
  atom      -1.17253899     -0.25755561     -4.16222497 H
  atom      -0.18256797      0.27160673     -2.77474571 H
  atom      -0.85615695      1.48216314     -3.90490117 H
  
  -----------------------------------------------------------------------
  Completed first pass over input file geometry.in .
  -----------------------------------------------------------------------
  

  Basic array size parameters:
  | Number of species                 :        4
  | Number of atoms                   :       32
  | Max. basis fn. angular momentum   :        4
  | Max. atomic/ionic basis occupied n:        2
  | Max. number of basis fn. types    :        2
  | Max. radial fns per species/type  :        8
  | Max. logarithmic grid size        :     1301
  | Max. radial integration grid size :       73
  | Max. angular integration grid size:      434
  | Max. angular grid division number :        8
  | Radial grid for Hartree potential :     1301
  | Number of spin channels           :        1

------------------------------------------------------------
          Reading file control.in.
------------------------------------------------------------
  XC: Using PBE gradient-corrected functionals.
  Self-consistent screening and van der Waals energy (TS, TS+SCS,MBD) module
  Spin treatment: No spin polarisation.
  Charge =   0.000000E+00: Neutral system requested explicitly.
  Occupation type: Gaussian broadening, width =   0.500000E-01 eV.
  Using pulay charge density mixing.
  Pulay mixing - number of memorized iterations:   10
  Charge density mixing - mixing parameter:     0.5000
  Convergence accuracy of self-consistent charge density:  0.1000E-03
  Convergence accuracy of sum of eigenvalues:  0.1000E-01
  Convergence accuracy of total energy:  0.1000E-04
  Convergence accuracy of forces:  0.1000E-03
  Maximum number of s.-c. iterations  :  1000
  Fitting ESP-charges to Potential. 
  | Esp charge output options: 
  | ESP Grid method: 3, cubic grid
  | Number of points in x, ,y, z:  0080 0080 0080
  |
 
  Reading configuration options for species H                   .
  | Found nuclear charge :   1.0000
  | Found atomic mass :    1.00794000000000      amu
  | Found l_max for Hartree potential  :   6
  | Found cutoff potl. onset [A], width [A], scale factor :    4.00000    2.00000    1.00000
  | Threshold for basis-dependent cutoff potential is   0.100000E-03
  | Found data for basic radial integration grid :    24 points, outermost radius =    7.000 A
  | Found multiplier for basic radial grid :   2
  | Found angular grid specification: user-specified.
  | Specified grid contains     6 separate shells.
  | Check grid settings after all constraints further below.
  | Found free-atom valence shell :  1 s   1.000
  | No ionic wave fns used. Skipping ion_occ.
  | Found hydrogenic basis function :  2 s   2.100
  | Found hydrogenic basis function :  2 p   3.500
  | Found hydrogenic basis function :  1 s   0.850
  | Found hydrogenic basis function :  2 p   3.700
  | Found hydrogenic basis function :  2 s   1.200
  | Found hydrogenic basis function :  3 d   7.000
  Species H                   : Missing cutoff potential type.
  Defaulting to exp(1/x)/(1-x)^2 type cutoff potential.
  Species H : No 'logarithmic' tag. Using default grid for free atom:
  | Default logarithmic grid data [bohr] : 0.1000E-03 0.1000E+03 0.1012E+01
  Species H : On-site basis accuracy parameter (for Gram-Schmidt orthonormalisation) not specified.
  Using default value basis_acc =  0.1000000E-03.
  Species H                   : Using default innermost maximum threshold i_radial=  2 for radial functions.
  Species H                   : Default cutoff onset for free atom density etc. : 0.40000000E+01 AA.
  Species H                   : Basic radial grid will be enhanced according to radial_multiplier =   2, to contain    49 grid points.
 
  Reading configuration options for species C                   .
  | Found nuclear charge :   6.0000
  | Found atomic mass :    12.0107000000000      amu
  | Found l_max for Hartree potential  :   6
  | Found cutoff potl. onset [A], width [A], scale factor :    4.00000    2.00000    1.00000
  | Threshold for basis-dependent cutoff potential is   0.100000E-03
  | Found data for basic radial integration grid :    34 points, outermost radius =    7.000 A
  | Found multiplier for basic radial grid :   2
  | Found angular grid specification: user-specified.
  | Specified grid contains     6 separate shells.
  | Check grid settings after all constraints further below.
  | Found free-atom valence shell :  2 s   2.000
  | Found free-atom valence shell :  2 p   2.000
  | No ionic wave fns used. Skipping ion_occ.
  | No ionic wave fns used. Skipping ion_occ.
  | Found hydrogenic basis function :  2 p   1.700
  | Found hydrogenic basis function :  3 d   6.000
  | Found hydrogenic basis function :  2 s   4.900
  | Found hydrogenic basis function :  4 f   9.800
  | Found hydrogenic basis function :  3 p   5.200
  | Found hydrogenic basis function :  3 s   4.300
  | Found hydrogenic basis function :  5 g  14.400
  | Found hydrogenic basis function :  3 d   6.200
  Species C                   : Missing cutoff potential type.
  Defaulting to exp(1/x)/(1-x)^2 type cutoff potential.
  Species C : No 'logarithmic' tag. Using default grid for free atom:
  | Default logarithmic grid data [bohr] : 0.1000E-03 0.1000E+03 0.1012E+01
  Species C : On-site basis accuracy parameter (for Gram-Schmidt orthonormalisation) not specified.
  Using default value basis_acc =  0.1000000E-03.
  Species C                   : Using default innermost maximum threshold i_radial=  2 for radial functions.
  Species C                   : Default cutoff onset for free atom density etc. : 0.40000000E+01 AA.
  Species C                   : Basic radial grid will be enhanced according to radial_multiplier =   2, to contain    69 grid points.
 
  Reading configuration options for species N                   .
  | Found nuclear charge :   7.0000
  | Found atomic mass :    14.0067000000000      amu
  | Found l_max for Hartree potential  :   6
  | Found cutoff potl. onset [A], width [A], scale factor :    4.00000    2.00000    1.00000
  | Threshold for basis-dependent cutoff potential is   0.100000E-03
  | Found data for basic radial integration grid :    35 points, outermost radius =    7.000 A
  | Found multiplier for basic radial grid :   2
  | Found angular grid specification: user-specified.
  | Specified grid contains     6 separate shells.
  | Check grid settings after all constraints further below.
  | Found free-atom valence shell :  2 s   2.000
  | Found free-atom valence shell :  2 p   3.000
  | No ionic wave fns used. Skipping ion_occ.
  | No ionic wave fns used. Skipping ion_occ.
  | Found hydrogenic basis function :  2 p   1.800
  | Found hydrogenic basis function :  3 d   6.800
  | Found hydrogenic basis function :  3 s   5.800
  | Found hydrogenic basis function :  4 f  10.800
  | Found hydrogenic basis function :  3 p   5.800
  | Found hydrogenic basis function :  1 s   0.800
  | Found hydrogenic basis function :  5 g  16.000
  | Found hydrogenic basis function :  3 d   4.900
  Species N                   : Missing cutoff potential type.
  Defaulting to exp(1/x)/(1-x)^2 type cutoff potential.
  Species N : No 'logarithmic' tag. Using default grid for free atom:
  | Default logarithmic grid data [bohr] : 0.1000E-03 0.1000E+03 0.1012E+01
  Species N : On-site basis accuracy parameter (for Gram-Schmidt orthonormalisation) not specified.
  Using default value basis_acc =  0.1000000E-03.
  Species N                   : Using default innermost maximum threshold i_radial=  2 for radial functions.
  Species N                   : Default cutoff onset for free atom density etc. : 0.40000000E+01 AA.
  Species N                   : Basic radial grid will be enhanced according to radial_multiplier =   2, to contain    71 grid points.
 
  Reading configuration options for species O                   .
  | Found nuclear charge :   8.0000
  | Found atomic mass :    15.9994000000000      amu
  | Found l_max for Hartree potential  :   6
  | Found cutoff potl. onset [A], width [A], scale factor :    4.00000    2.00000    1.00000
  | Threshold for basis-dependent cutoff potential is   0.100000E-03
  | Found data for basic radial integration grid :    36 points, outermost radius =    7.000 A
  | Found multiplier for basic radial grid :   2
  | Found angular grid specification: user-specified.
  | Specified grid contains     6 separate shells.
  | Check grid settings after all constraints further below.
  | Found free-atom valence shell :  2 s   2.000
  | Found free-atom valence shell :  2 p   4.000
  | No ionic wave fns used. Skipping ion_occ.
  | No ionic wave fns used. Skipping ion_occ.
  | Found hydrogenic basis function :  2 p   1.800
  | Found hydrogenic basis function :  3 d   7.600
  | Found hydrogenic basis function :  3 s   6.400
  | Found hydrogenic basis function :  4 f  11.600
  | Found hydrogenic basis function :  3 p   6.200
  | Found hydrogenic basis function :  3 d   5.600
  | Found hydrogenic basis function :  5 g  17.600
  | Found hydrogenic basis function :  1 s   0.750
  Species O                   : Missing cutoff potential type.
  Defaulting to exp(1/x)/(1-x)^2 type cutoff potential.
  Species O : No 'logarithmic' tag. Using default grid for free atom:
  | Default logarithmic grid data [bohr] : 0.1000E-03 0.1000E+03 0.1012E+01
  Species O : On-site basis accuracy parameter (for Gram-Schmidt orthonormalisation) not specified.
  Using default value basis_acc =  0.1000000E-03.
  Species O                   : Using default innermost maximum threshold i_radial=  2 for radial functions.
  Species O                   : Default cutoff onset for free atom density etc. : 0.40000000E+01 AA.
  Species O                   : Basic radial grid will be enhanced according to radial_multiplier =   2, to contain    73 grid points.
 
  Finished reading input file 'control.in'. Consistency checks are next.
 
  Target number of points in a grid batch is not set. Defaulting to  100
  Method for grid partitioning is not set. Defaulting to parallel hash+maxmin partitioning.
  Batch size limit is not set. Defaulting to    200
  By default, will store active basis functions for each batch.
  If in need of memory, prune_basis_once .false. can be used to disable this option.
  communication_type for Hartree potential was not specified.
  Defaulting to calc_hartree .
  Pulay mixer: Number of initial linear mixing iterations not set.
  Defaulting to    0 iterations.
  Work space size for distributed Hartree potential not set.
  Defaulting to   0.200000E+03 MB.
  Algorithm-dependent basis array size parameters:
  | n_max_pulay                         :       10
  Geometry relaxation not requested: no relaxation will be performed.
  Handling of forces: Unphysical translation and rotation will be removed from forces.
  No accuracy limit for integral partition fn. given. Defaulting to  0.1000E-14.
  No threshold value for u(r) in integrations given. Defaulting to  0.1000E-05.
  No accuracy for occupation numbers given. Defaulting to  0.1000E-07.
  No threshold value for occupation numbers given. Defaulting to  0.0000E+00.
  No accuracy for fermi level given. Defaulting to  0.1000E-19.
  Maximum # of iterations to find E_F not set. Defaulting to  200.
  Preferred method for the eigenvalue solver ('KS_method') not specified in 'control.in'.
  Calling blacs routine to test compilation state
  Since scalapack support is enabled, defaulting to 'elpa'.
  Preferred method for the MBD eigenvalue solver ('mbd_eigensolver') not specified in 'control.in'.
  Calling blacs routine to test compilation state
  Since scalapack support is enabled, defaulting to 'scaLAPACK'.
  Will not use alltoall communication since running on < 1024 CPUs.
  Threshold for basis singularities not set.
  Default threshold for basis singularities:  0.1000E-04
  partition_type (choice of integration weights) for integrals was not specified.
  | Using a version of the partition function of Stratmann and coworkers ('stratmann_smoother').
  | At each grid point, the set of atoms used to build the partition table is smoothly restricted to
  | only those atoms whose free-atom density would be non-zero at that grid point.
  Partitioning for Hartree potential was not defined. Using partition_type for integrals.
  | Adjusted default value of keyword multip_moments_threshold to:       0.10000000E-11
  | This value may affect high angular momentum components of the Hartree potential in periodic systems.
  No q(lm)/r^(l+1) cutoff set for long-range Hartree potential.
  | Using default value of  0.100000E-09 .
  | Verify using the multipole_threshold keyword.
  Defaulting to new monopole extrapolation.
  Density update method: automatic selection selected.
------------------------------------------------------------


------------------------------------------------------------
          Reading geometry description geometry.in.
------------------------------------------------------------
 * Warning! You did not set the 'relativistic' flag in input file 'control.in'.
 * Since you are not attempting to treat any elements beyond Ca(Z=20), FHI-aims
 * will default to 'relativistic none'.
 * You must ensure that this is really what you want!!
 * For example, DO NOT compute total-energy differences between results from
 * different settings of the 'relativistic' flag.
  Input structure read successfully.
  The structure contains       32 atoms,  and a total of        116.000 electrons.

  Input geometry:
  | No unit cell requested.
  | Atomic structure:
  |       Atom                x [A]            y [A]            z [A]
  |    1: Species C              0.108598         1.174234         0.424369
  |    2: Species C             -0.096636        -0.044466         1.305402
  |    3: Species O              0.764112        -0.912912         1.410574
  |    4: Species H              0.954385         0.966807        -0.236810
  |    5: Species H              0.363017         2.046489         1.042459
  |    6: Species H             -0.767505         1.433751        -0.182078
  |    7: Species N             -1.262696        -0.141493         2.036527
  |    8: Species C             -2.491934         0.641842         1.935531
  |    9: Species C             -3.078227         0.559092         0.502627
  |   10: Species O             -3.151063        -0.528207        -0.076875
  |   11: Species H             -1.332560        -1.037099         2.508992
  |   12: Species H             -3.226425         0.085679         2.538068
  |   13: Species C             -2.370766         2.042892         2.549649
  |   14: Species H             -3.354077         2.526412         2.634002
  |   15: Species H             -1.703225         2.700704         1.977484
  |   16: Species H             -1.957033         1.959028         3.561564
  |   17: Species N             -3.512860         1.718862        -0.054237
  |   18: Species C             -4.056140         1.788081        -1.415188
  |   19: Species C             -2.883158         1.862474        -2.435567
  |   20: Species O             -2.566606         2.911594        -2.992364
  |   21: Species H             -3.324971         2.596185         0.418685
  |   22: Species H             -4.595047         0.842787        -1.573647
  |   23: Species C             -4.997389         2.973534        -1.553881
  |   24: Species H             -5.809108         2.907628        -0.818213
  |   25: Species H             -5.435533         2.992219        -2.558437
  |   26: Species H             -4.458315         3.921159        -1.423298
  |   27: Species N             -2.251344         0.670326        -2.606583
  |   28: Species C             -1.047956         0.527336        -3.403949
  |   29: Species H             -2.545282        -0.096902        -1.998633
  |   30: Species H             -1.172539        -0.257556        -4.162225
  |   31: Species H             -0.182568         0.271607        -2.774746
  |   32: Species H             -0.856157         1.482163        -3.904901
  |

  | The smallest distance between any two atoms is         1.01422608 AA.
  |
  | The first atom of this pair is atom number                     17 .
  | The second atom of this pair is atom number                    21 .

  Number of empty states per atom not set in control.in - providing a guess from actual geometry.
  | Total number of empty states used during s.c.f. cycle:       71
  If you use a very high smearing, use empty_states (per atom!) in control.in to increase this value.

  Structure-dependent array size parameters: 
  | Maximum number of distinct radial functions  :       40
  | Maximum number of basis functions            :      840
  | Number of Kohn-Sham states (occupied + empty):      129
------------------------------------------------------------

------------------------------------------------------------
          Preparing all fixed parts of the calculation.
------------------------------------------------------------
  Determining machine precision:
    2.225073858507201E-308
  Setting up grids for atomic and cluster calculations.

  Creating wave function, potential, and density for free atoms.

  Species: H

  List of occupied orbitals and eigenvalues:
    n    l              occ      energy [Ha]    energy [eV]
    1    0           1.0000        -0.238382        -6.4867


  Species: C

  List of occupied orbitals and eigenvalues:
    n    l              occ      energy [Ha]    energy [eV]
    1    0           2.0000       -10.041232      -273.2358
    2    0           2.0000        -0.504327       -13.7234
    2    1           2.0000        -0.193750        -5.2722


  Species: N

  List of occupied orbitals and eigenvalues:
    n    l              occ      energy [Ha]    energy [eV]
    1    0           2.0000       -14.129007      -384.4699
    2    0           2.0000        -0.681802       -18.5528
    2    1           3.0000        -0.260543        -7.0897


  Species: O

  List of occupied orbitals and eigenvalues:
    n    l              occ      energy [Ha]    energy [eV]
    1    0           2.0000       -18.898576      -514.2564
    2    0           2.0000        -0.878795       -23.9132
    2    1           4.0000        -0.332075        -9.0362

  Creating fixed part of basis set: Ionic, confined, hydrogenic.
 
  H                    hydrogenic:
 
  List of hydrogenic basis orbitals: 
    n    l      effective z      eigenvalue [eV]  inner max. [A]     outer max. [A]     outer radius [A]   
    2    0         2.100000       -14.9965           0.193243           1.317208           5.373006
    2    1         3.500000       -41.6672           0.602369           0.602369           4.056063
    1    0         0.850000        -9.8292           0.624871           0.624871           5.373006
    2    1         3.700000       -46.5653           0.573622           0.573622           3.910002
    2    0         1.200000        -4.5995           0.334980           2.228188           5.505995
    3    2         7.000000       -74.0753           0.680699           0.680699           3.769201
 
 
  C                    hydrogenic:
 
  List of hydrogenic basis orbitals: 
    n    l      effective z      eigenvalue [eV]  inner max. [A]     outer max. [A]     outer radius [A]   
    2    1         1.700000        -9.8152           1.245706           1.245706           5.401630
    3    2         6.000000       -54.4226           0.792453           0.792453           4.178599
    2    0         4.900000       -81.6681           0.082559           0.562749           3.353238
    4    3         9.800000       -81.6681           0.863254           0.863254           4.028125
    3    1         5.200000       -40.8774           0.305389           1.215618           4.898362
    3    0         4.300000       -27.9508           0.091041           1.610311           5.401630
    5    4        14.400000      -112.8510           0.917666           0.917666           3.883070
    3    2         6.200000       -58.1113           0.763917           0.763917           4.077671
 
 
  N                    hydrogenic:
 
  List of hydrogenic basis orbitals: 
    n    l      effective z      eigenvalue [eV]  inner max. [A]     outer max. [A]     outer radius [A]   
    2    1         1.800000       -11.0118           1.177451           1.177451           5.427479
    3    2         6.800000       -69.9029           0.704619           0.704619           3.854246
    3    0         5.800000       -50.8549           0.067388           1.191934           4.629968
    4    3        10.800000       -99.1854           0.786571           0.786571           3.761152
    3    1         5.800000       -50.8549           0.274880           1.094176           4.518138
    1    0         0.800000        -8.7059           0.662839           0.662839           5.361532
    5    4        16.000000      -139.3222           0.825990           0.825990           3.625711
    3    2         4.900000       -36.2967           0.968267           0.968267           4.862000
 
 
  O                    hydrogenic:
 
  List of hydrogenic basis orbitals: 
    n    l      effective z      eigenvalue [eV]  inner max. [A]     outer max. [A]     outer radius [A]   
    2    1         1.800000       -11.0118           1.178562           1.178562           5.432602
    3    2         7.600000       -87.3182           0.624125           0.624125           3.541477
    3    0         6.400000       -61.9209           0.061167           1.081902           4.306578
    4    3        11.600000      -114.4238           0.731631           0.731631           3.585037
    3    1         6.200000       -58.1113           0.255680           1.030270           4.306578
    3    2         5.600000       -47.4081           0.847233           0.847233           4.413171
    5    4        17.600000      -168.5799           0.749740           0.749740           3.372465
    1    0         0.750000        -7.6499           0.705284           0.705284           5.366593
 

  Adding cutoff potential to free-atom effective potential.
  Creating atomic-like basis functions for current effective potential.

  Species H                   :

  List of atomic basis orbitals and eigenvalues:
    n    l      energy [Ha]    energy [eV]    outer radius [A]
    1    0        -0.238382        -6.4867       5.373006


  Species C                   :

  List of atomic basis orbitals and eigenvalues:
    n    l      energy [Ha]    energy [eV]    outer radius [A]
    1    0       -10.041232      -273.2358       1.934409
    2    0        -0.504327       -13.7234       5.271162
    2    1        -0.193750        -5.2722       5.401630


  Species N                   :

  List of atomic basis orbitals and eigenvalues:
    n    l      energy [Ha]    energy [eV]    outer radius [A]
    1    0       -14.129007      -384.4699       1.637919
    2    0        -0.681802       -18.5528       5.168461
    2    1        -0.260543        -7.0897       5.361532


  Species O                   :

  List of atomic basis orbitals and eigenvalues:
    n    l      energy [Ha]    energy [eV]    outer radius [A]
    1    0       -18.898576      -514.2564       1.415765
    2    0        -0.878795       -23.9132       5.048385
    2    1        -0.332075        -9.0362       5.301386

  Assembling full basis from fixed parts.
  | Species H :   atomic orbital   1 s accepted.
  | Species H :    hydro orbital   2 s accepted.
  | Species H :    hydro orbital   1 s accepted.
  | Species H :    hydro orbital   2 s accepted.
  | Species H :    hydro orbital   2 p accepted.
  | Species H :    hydro orbital   2 p accepted.
  | Species H :    hydro orbital   3 d accepted.
  | Species C :   atomic orbital   1 s accepted.
  | Species C :    hydro orbital   2 s accepted.
  | Species C :   atomic orbital   2 s accepted.
  | Species C :    hydro orbital   3 s accepted.
  | Species C :    hydro orbital   3 p accepted.
  | Species C :   atomic orbital   2 p accepted.
  | Species C :    hydro orbital   2 p accepted.
  | Species C :    hydro orbital   3 d accepted.
  | Species C :    hydro orbital   3 d accepted.
  | Species C :    hydro orbital   4 f accepted.
  | Species C :    hydro orbital   5 g accepted.
  | Species N :   atomic orbital   1 s accepted.
  | Species N :    hydro orbital   3 s accepted.
  | Species N :   atomic orbital   2 s accepted.
  | Species N :    hydro orbital   1 s accepted.
  | Species N :    hydro orbital   3 p accepted.
  | Species N :   atomic orbital   2 p accepted.
  | Species N :    hydro orbital   2 p accepted.
  | Species N :    hydro orbital   3 d accepted.
  | Species N :    hydro orbital   3 d accepted.
  | Species N :    hydro orbital   4 f accepted.
  | Species N :    hydro orbital   5 g accepted.
  | Species O :   atomic orbital   1 s accepted.
  | Species O :    hydro orbital   3 s accepted.
  | Species O :   atomic orbital   2 s accepted.
  | Species O :    hydro orbital   1 s accepted.
  | Species O :    hydro orbital   3 p accepted.
  | Species O :   atomic orbital   2 p accepted.
  | Species O :    hydro orbital   2 p accepted.
  | Species O :    hydro orbital   3 d accepted.
  | Species O :    hydro orbital   3 d accepted.
  | Species O :    hydro orbital   4 f accepted.
  | Species O :    hydro orbital   5 g accepted.
 
  Basis size parameters after reduction:
  | Total number of radial functions:       40
  | Total number of basis functions :      840
 
  Testing on-site integration grid accuracy.
  |  Species  Function  <phi|h_atom|phi> (log., in eV)  <phi|h_atom|phi> (rad., in eV)
           1        1                 -6.4869821809                 -6.4870742227
           1        2                 13.5044133542                 13.5041049177
           1        3                 32.7854418792                 32.7779770519
           1        4                 33.7995553101                 33.7152624900 ***
           1        5                 28.8558651799                 28.8558652046
           1        6                 59.6361831893                 59.6362535845
           1        7                 60.2733718049                 60.2733715484
           2        8               -273.2358277112               -273.2358261765
           2        9                -10.7624923123                -10.7625144012
           2       10                 17.4634079027                 17.4634252127
           2       11                 53.0363661832                 53.0366180446
           2       12                 15.0981351967                 15.0981317714
           2       13                  3.8522181899                  3.8522770949
           2       14                 12.1181835661                 12.1206868578
           2       15                 29.4320778347                 29.4320780959
           2       16                 54.8753777694                 54.8752901936
           2       17                 59.3533975461                 59.3533974833
           2       18                 93.4537491195                 93.4537492066
           3       19               -384.4698526889               -384.4698499465
           3       20                 12.5691022037                 12.5690910168
           3       21                -15.7489097511                -15.7489165588
           3       22                 27.0978334940                 27.0985589490
           3       23                 18.5949116966                 18.5949125562
           3       24                  1.2212828291                  1.2212855301
           3       25                 13.4428926797                 13.4434051125
           3       26                 35.9380614500                 35.9380613666
           3       27                 39.9231532098                 39.9231654735
           3       28                 72.9957335806                 72.9957336833
           3       29                116.4231321147                116.4231321431
           4       30               -514.2564144315               -514.2564099626
           4       31                 15.1726678541                 15.1726530877
           4       32                -21.5447785304                -21.5447874973
           4       33                 14.4944558459                 14.4944698284
           4       34                 20.8882174564                 20.8882178906
           4       35                 -2.4850315908                 -2.4850322289
           4       36                 13.8600193195                 13.8599826966
           4       37                 45.8243383616                 45.8243383675
           4       38                 52.1840606465                 52.1840622440
           4       39                 85.4074185510                 85.4074185819
           4       40                142.0983717302                142.0983717339
 * Note: Onsite integrals marked "***" above are less accurate than
 * onsite_accuracy_threshold =    0.03000 eV. Usually, this is harmless.
 * When in doubt, tighten the "radial" and/or "radial_multiplier" flags to check.

  Preparing densities etc. for the partition functions (integrals / Hartree potential).

  Preparations completed.
  max(cpu_time)          :      0.240 s.
  Wall clock time (cpu1) :      0.237 s.
------------------------------------------------------------

------------------------------------------------------------
          Begin self-consistency loop: Initialization.

          Date     :  20170309, Time     :  182811.659
------------------------------------------------------------

  Initializing index lists of integration centers etc. from given atomic structure:
  | Number of centers in hartree potential         :        32
  | Number of centers in hartree multipole         :        32
  | Number of centers in electron density summation:        32
  | Number of centers in basis integrals           :        32
  | Number of centers in integrals                 :        32
  | Number of centers in hamiltonian               :        32
  Using modified Scalapack Eigenvalue solver (ELPA)
  * Using 32 tasks for Scalapack Eigenvalue solver.
  Detailed listing of tasks and assigned k-points:
  (for non-periodic systems, the "k-point" denotes an internal label only)
   Task     0 k-point     1 on eos026
   Task     1 k-point     1 on eos026
   Task     2 k-point     1 on eos026
   Task     3 k-point     1 on eos026
   Task     4 k-point     1 on eos026
   Task     5 k-point     1 on eos026
   Task     6 k-point     1 on eos026
   Task     7 k-point     1 on eos026
   Task     8 k-point     1 on eos026
   Task     9 k-point     1 on eos026
   Task    10 k-point     1 on eos026
   Task    11 k-point     1 on eos026
   Task    12 k-point     1 on eos026
   Task    13 k-point     1 on eos026
   Task    14 k-point     1 on eos026
   Task    15 k-point     1 on eos026
   Task    16 k-point     1 on eos026
   Task    17 k-point     1 on eos026
   Task    18 k-point     1 on eos026
   Task    19 k-point     1 on eos026
   Task    20 k-point     1 on eos026
   Task    21 k-point     1 on eos026
   Task    22 k-point     1 on eos026
   Task    23 k-point     1 on eos026
   Task    24 k-point     1 on eos026
   Task    25 k-point     1 on eos026
   Task    26 k-point     1 on eos026
   Task    27 k-point     1 on eos026
   Task    28 k-point     1 on eos026
   Task    29 k-point     1 on eos026
   Task    30 k-point     1 on eos026
   Task    31 k-point     1 on eos026
  Tasks:    32 split into      8 X      4 BLACS grid
  Calculating blocksize based on n_basis =          840 max_nprow =            8 max_npcol =            4
  Scalapack blocksize set to:           16
  Required Scalapack workspace - INTEGER:            1 REAL:             1
  Partitioning the integration grid into batches with parallel hashing+maxmin method.
  | Number of batches:     4865
  | Maximal batch size:     194
  | Minimal batch size:      50
  | Average batch size:     108.474
  | Standard deviation of batch sizes:      31.051

  Integration load balanced across    32 MPI tasks.
  Work distribution over tasks is as follows:
  Task     0 has      16439 integration points.
  Task     1 has      16431 integration points.
  Task     2 has      16504 integration points.
  Task     3 has      16568 integration points.
  Task     4 has      16533 integration points.
  Task     5 has      16426 integration points.
  Task     6 has      16419 integration points.
  Task     7 has      16523 integration points.
  Task     8 has      16441 integration points.
  Task     9 has      16566 integration points.
  Task    10 has      16515 integration points.
  Task    11 has      16516 integration points.
  Task    12 has      16508 integration points.
  Task    13 has      16423 integration points.
  Task    14 has      16415 integration points.
  Task    15 has      16437 integration points.
  Task    16 has      16536 integration points.
  Task    17 has      16533 integration points.
  Task    18 has      16576 integration points.
  Task    19 has      16510 integration points.
  Task    20 has      16435 integration points.
  Task    21 has      16575 integration points.
  Task    22 has      16420 integration points.
  Task    23 has      16417 integration points.
  Task    24 has      16520 integration points.
  Task    25 has      16580 integration points.
  Task    26 has      16571 integration points.
  Task    27 has      16419 integration points.
  Task    28 has      16565 integration points.
  Task    29 has      16416 integration points.
  Task    30 has      16439 integration points.
  Task    31 has      16552 integration points.
  Initializing partition tables, free-atom densities, potentials, etc. across the integration grid (initialize_grid_storage).
  | initialize_grid_storage: Actual outermost partition radius vs. multipole_radius_free
  | (-- VB: in principle, multipole_radius_free should be larger, hence this output)
  | Species        1: Confinement radius =              6.000000000000000 AA, multipole_radius_free =              6.071692442739658 AA.
  | Species        1: outer_partition_radius set to              6.071692442739658 AA .
  | Species        2: Confinement radius =              6.000000000000000 AA, multipole_radius_free =              6.029870734432609 AA.
  | Species        2: outer_partition_radius set to              6.029870734432609 AA .
  | Species        3: Confinement radius =              6.000000000000000 AA, multipole_radius_free =              6.058726835495003 AA.
  | Species        3: outer_partition_radius set to              6.058726835495003 AA .
  | Species        4: Confinement radius =              6.000000000000000 AA, multipole_radius_free =              6.064445521808699 AA.
  | Species        4: outer_partition_radius set to              6.064445521808699 AA .
  | Original list of interatomic distances with          32 x         32 entries is created.
  | Net number of integration points:   527728
  | of which are non-zero points    :   413120
  Obtaining max. number of non-zero basis functions in each batch (get_n_compute_maxes).
  | Maximal number of non-zero basis functions:      798 in task     0
  | Maximal number of non-zero basis functions:      764 in task     1
  | Maximal number of non-zero basis functions:      799 in task     2
  | Maximal number of non-zero basis functions:      787 in task     3
  | Maximal number of non-zero basis functions:      808 in task     4
  | Maximal number of non-zero basis functions:      818 in task     5
  | Maximal number of non-zero basis functions:      800 in task     6
  | Maximal number of non-zero basis functions:      803 in task     7
  | Maximal number of non-zero basis functions:      795 in task     8
  | Maximal number of non-zero basis functions:      805 in task     9
  | Maximal number of non-zero basis functions:      781 in task    10
  | Maximal number of non-zero basis functions:      793 in task    11
  | Maximal number of non-zero basis functions:      807 in task    12
  | Maximal number of non-zero basis functions:      799 in task    13
  | Maximal number of non-zero basis functions:      813 in task    14
  | Maximal number of non-zero basis functions:      793 in task    15
  | Maximal number of non-zero basis functions:      809 in task    16
  | Maximal number of non-zero basis functions:      799 in task    17
  | Maximal number of non-zero basis functions:      788 in task    18
  | Maximal number of non-zero basis functions:      803 in task    19
  | Maximal number of non-zero basis functions:      774 in task    20
  | Maximal number of non-zero basis functions:      796 in task    21
  | Maximal number of non-zero basis functions:      790 in task    22
  | Maximal number of non-zero basis functions:      795 in task    23
  | Maximal number of non-zero basis functions:      786 in task    24
  | Maximal number of non-zero basis functions:      796 in task    25
  | Maximal number of non-zero basis functions:      807 in task    26
  | Maximal number of non-zero basis functions:      803 in task    27
  | Maximal number of non-zero basis functions:      801 in task    28
  | Maximal number of non-zero basis functions:      783 in task    29
  | Maximal number of non-zero basis functions:      799 in task    30
  | Maximal number of non-zero basis functions:      789 in task    31
  Selecting the method for density update.
  Loop over occupied states selected for charge density update.
  Integrating Hamiltonian matrix: batch-based integration.
  Time summed over all CPUs for integration: real work       22.545 s, elapsed       23.463 s
  Integrating overlap matrix.
  Time summed over all CPUs for integration: real work       13.662 s, elapsed       14.264 s
  Deallocating overlap matrix.

  Updating Kohn-Sham eigenvalues, eigenvectors, occupation numbers, and Fermi level.
  Solving generalized eigenproblem
  Solving real symmetric generalised eigenvalue problem by standard ScaLAPACK.
  Transforming overlap matrix with ScaLAPACK and checking for singularities.
  : Overlap matrix is nonsingular, using Cholesky decomposition
  | Lowest eigenvalue:  0.852721E-04
  Factoring overlap matrix with Cholesky decomposition
  Using Cholesky factor for transformation
  Using 1-stage real ELPA solver
  Determining occupation numbers for Kohn-Sham eigenstates.
  | Chemical potential (Fermi level) in eV                 : -.95776621E+01
  | Error in electron count due to remaining E_F inaccuracy: 0.00000000E+00
  | Maximum occupation number of highest empty state:  0.00E+00

  Writing Kohn-Sham eigenvalues.

  State    Occupation    Eigenvalue [Ha]    Eigenvalue [eV]
      1       2.00000         -18.974441         -516.32080
      2       2.00000         -18.974085         -516.31111
      3       2.00000         -18.973924         -516.30674
      4       2.00000         -14.255664         -387.91636
      5       2.00000         -14.255495         -387.91175
      6       2.00000         -14.252056         -387.81818
      7       2.00000         -10.172001         -276.79423
      8       2.00000         -10.171210         -276.77271
      9       2.00000         -10.170742         -276.75998
     10       2.00000         -10.166719         -276.65051
     11       2.00000         -10.148261         -276.14822
     12       2.00000         -10.147413         -276.12515
     13       2.00000         -10.135294         -275.79537
     14       2.00000         -10.134172         -275.76484
     15       2.00000         -10.133909         -275.75770
     16       2.00000          -1.134114          -30.86082
     17       2.00000          -1.131514          -30.79007
     18       2.00000          -1.127630          -30.68436
     19       2.00000          -1.020405          -27.76663
     20       2.00000          -1.011677          -27.52913
     21       2.00000          -1.007747          -27.42220
     22       2.00000          -0.890592          -24.23425
     23       2.00000          -0.867900          -23.61676
     24       2.00000          -0.848334          -23.08435
     25       2.00000          -0.823991          -22.42193
     26       2.00000          -0.775026          -21.08954
     27       2.00000          -0.752470          -20.47575
     28       2.00000          -0.702810          -19.12444
     29       2.00000          -0.682871          -18.58187
     30       2.00000          -0.674664          -18.35855
     31       2.00000          -0.645061          -17.55302
     32       2.00000          -0.630314          -17.15172
     33       2.00000          -0.612027          -16.65410
     34       2.00000          -0.599110          -16.30262
     35       2.00000          -0.597345          -16.25459
     36       2.00000          -0.590930          -16.08002
     37       2.00000          -0.563239          -15.32651
     38       2.00000          -0.560138          -15.24212
     39       2.00000          -0.556583          -15.14540
     40       2.00000          -0.553108          -15.05084
     41       2.00000          -0.547578          -14.90035
     42       2.00000          -0.537686          -14.63117
     43       2.00000          -0.531994          -14.47630
     44       2.00000          -0.527414          -14.35168
     45       2.00000          -0.519351          -14.13227
     46       2.00000          -0.516637          -14.05842
     47       2.00000          -0.513149          -13.96349
     48       2.00000          -0.505772          -13.76277
     49       2.00000          -0.495913          -13.49449
     50       2.00000          -0.484240          -13.17685
     51       2.00000          -0.481761          -13.10939
     52       2.00000          -0.474843          -12.92114
     53       2.00000          -0.417664          -11.36523
     54       2.00000          -0.406188          -11.05294
     55       2.00000          -0.402189          -10.94412
     56       2.00000          -0.386464          -10.51623
     57       2.00000          -0.383999          -10.44914
     58       2.00000          -0.378928          -10.31114
     59       0.00000          -0.171825           -4.67560
     60       0.00000          -0.158735           -4.31941
     61       0.00000          -0.152229           -4.14235
     62       0.00000          -0.081302           -2.21235
     63       0.00000          -0.062716           -1.70659
     64       0.00000          -0.056523           -1.53806
     65       0.00000          -0.054248           -1.47616
     66       0.00000          -0.047017           -1.27940
     67       0.00000          -0.035074           -0.95440
     68       0.00000          -0.031438           -0.85547
     69       0.00000          -0.029430           -0.80084
     70       0.00000          -0.020875           -0.56803
     71       0.00000          -0.017885           -0.48667
     72       0.00000          -0.014431           -0.39267
     73       0.00000          -0.013676           -0.37215
     74       0.00000          -0.008216           -0.22358
     75       0.00000          -0.006336           -0.17241
     76       0.00000          -0.000499           -0.01358
     77       0.00000           0.000777            0.02114
     78       0.00000           0.005568            0.15152
     79       0.00000           0.009751            0.26533
     80       0.00000           0.018274            0.49726
     81       0.00000           0.019997            0.54414
     82       0.00000           0.023536            0.64046
     83       0.00000           0.032174            0.87549
     84       0.00000           0.038673            1.05233
     85       0.00000           0.042164            1.14735
     86       0.00000           0.051857            1.41109
     87       0.00000           0.059909            1.63020
     88       0.00000           0.064471            1.75435
     89       0.00000           0.067902            1.84772
     90       0.00000           0.071166            1.93652
     91       0.00000           0.081009            2.20437
     92       0.00000           0.084646            2.30332
     93       0.00000           0.089688            2.44053
     94       0.00000           0.094186            2.56292
     95       0.00000           0.097673            2.65782
     96       0.00000           0.101905            2.77299
     97       0.00000           0.112584            3.06357
     98       0.00000           0.114881            3.12606
     99       0.00000           0.118169            3.21554
    100       0.00000           0.123419            3.35841
    101       0.00000           0.129297            3.51835
    102       0.00000           0.138086            3.75750
    103       0.00000           0.139553            3.79743
    104       0.00000           0.142699            3.88305
    105       0.00000           0.146098            3.97552
    106       0.00000           0.154547            4.20545
    107       0.00000           0.157188            4.27731
    108       0.00000           0.160153            4.35798
    109       0.00000           0.165451            4.50216
    110       0.00000           0.170684            4.64456
    111       0.00000           0.174407            4.74585
    112       0.00000           0.184462            5.01946
    113       0.00000           0.187936            5.11401
    114       0.00000           0.193571            5.26733
    115       0.00000           0.198071            5.38979
    116       0.00000           0.199585            5.43099
    117       0.00000           0.201178            5.47433
    118       0.00000           0.203349            5.53341
    119       0.00000           0.212188            5.77393
    120       0.00000           0.219233            5.96565
    121       0.00000           0.223858            6.09149
    122       0.00000           0.226346            6.15920
    123       0.00000           0.227197            6.18234
    124       0.00000           0.236883            6.44591
    125       0.00000           0.247009            6.72147
    126       0.00000           0.251899            6.85452
    127       0.00000           0.260234            7.08132
    128       0.00000           0.265752            7.23147
    129       0.00000           0.270019            7.34759

  Highest occupied state (VBM) at    -10.31114435 eV
  | Occupation number:      2.00000000

  Lowest unoccupied state (CBM) at    -4.67560035 eV
  | Occupation number:      0.00000000

  Overall HOMO-LUMO gap:      5.63554400 eV.
  Calculating total energy contributions from superposition of free atom densities.

  Total energy components:
  | Sum of eigenvalues            :        -437.87351999 Ha      -11915.14471489 eV
  | XC energy correction          :         -98.82701093 Ha       -2689.21979344 eV
  | XC potential correction       :         127.03146454 Ha        3456.70202532 eV
  | Free-atom electrostatic energy:        -333.61681188 Ha       -9078.17534379 eV
  | Hartree energy correction     :           0.00000000 Ha           0.00000000 eV
  | MBD@rsSCS energy              :           0.00000000 Ha           0.00000000 eV
  | Entropy correction            :          -0.00000000 Ha          -0.00000000 eV
  | ---------------------------
  | Total energy                  :        -743.28587826 Ha      -20225.83782679 eV
  | Total energy, T -> 0          :        -743.28587826 Ha      -20225.83782679 eV  <-- do not rely on this value for anything but (periodic) metals
  | Electronic free energy        :        -743.28587826 Ha      -20225.83782679 eV

  Derived energy quantities:
  | Kinetic energy                :         735.17056016 Ha       20005.00878572 eV
  | Electrostatic energy          :       -1379.62942749 Ha      -37541.62681907 eV
  | Energy correction for multipole
  | error in Hartree potential    :           0.00000000 Ha           0.00000000 eV
  | Sum of eigenvalues per atom                           :        -372.34827234 eV
  | Total energy (T->0) per atom                          :        -632.05743209 eV  <-- do not rely on this value for anything but (periodic) metals
  | Electronic free energy per atom                       :        -632.05743209 eV
  Initialize hartree_potential_storage
  Max. number of atoms included in rho_multipole:           32

  End scf initialization - timings             :  max(cpu_time)    wall_clock(cpu1)
  | Time for scf. initialization               :        1.944 s           1.939 s
  | Boundary condition initialization          :        0.000 s           0.000 s
  | Integration                                :        1.204 s           1.202 s
  | Solution of K.-S. eqns.                    :        0.076 s           0.076 s
  | Grid partitioning                          :        0.296 s           0.290 s
  | Preloading free-atom quantities on grid    :        0.028 s           0.027 s
  | Free-atom superposition energy             :        0.044 s           0.041 s
  | Total energy evaluation                    :        0.004 s           0.001 s
------------------------------------------------------------

------------------------------------------------------------
          Begin self-consistency iteration #    1

  Date     :  20170309, Time     :  182813.600
------------------------------------------------------------
  Evaluating new KS density.
  Integration grid: deviation in total charge (<rho> - N_e) =   0.000000E+00
  Pulay mixing of updated and previous charge densities.

  Evaluating partitioned Hartree potential by multipole expansion.
  | Analytical far-field extrapolation by fixed multipoles:
  | Hartree multipole sum: apparent total charge =  -0.570777E-04
  Summing up the Hartree potential.
  Time summed over all CPUs for potential: real work        9.605 s, elapsed        9.873 s
  | RMS charge density error from multipole expansion :   0.107944E-01

  Integrating Hamiltonian matrix: batch-based integration.
  Time summed over all CPUs for integration: real work       22.386 s, elapsed       23.208 s

  Updating Kohn-Sham eigenvalues, eigenvectors, occupation numbers, and Fermi level.
  Solving generalized eigenproblem
  Solving real symmetric generalised eigenvalue problem by standard ScaLAPACK.
  Using Cholesky factor for transformation
  Using 2-stage real ELPA solver
  K-Point:    1, Trafo times: 1-stage=     0.021 s, 2-stage=     0.020 s ==> Using 2-stage solver
  Determining occupation numbers for Kohn-Sham eigenstates.
  | Chemical potential (Fermi level) in eV                 : -.43789455E+01
  | Error in electron count due to remaining E_F inaccuracy: 0.00000000E+00
  | Maximum occupation number of highest empty state:  0.00E+00

  Writing Kohn-Sham eigenvalues.

  State    Occupation    Eigenvalue [Ha]    Eigenvalue [eV]
      1       2.00000         -18.642098         -507.27730
      2       2.00000         -18.613914         -506.51037
      3       2.00000         -18.604723         -506.26026
      4       2.00000         -14.016956         -381.42078
      5       2.00000         -13.983569         -380.51227
      6       2.00000         -13.976357         -380.31603
      7       2.00000         -10.076414         -274.19318
      8       2.00000         -10.047255         -273.39973
      9       2.00000         -10.046291         -273.37347
     10       2.00000          -9.981648         -271.61445
     11       2.00000          -9.966170         -271.19329
     12       2.00000          -9.875347         -268.72188
     13       2.00000          -9.857750         -268.24302
     14       2.00000          -9.847131         -267.95407
     15       2.00000          -9.837114         -267.68150
     16       2.00000          -0.984964          -26.80223
     17       2.00000          -0.953806          -25.95438
     18       2.00000          -0.951179          -25.88290
     19       2.00000          -0.885586          -24.09803
     20       2.00000          -0.862121          -23.45950
     21       2.00000          -0.851892          -23.18117
     22       2.00000          -0.753372          -20.50029
     23       2.00000          -0.721891          -19.64365
     24       2.00000          -0.696685          -18.95777
     25       2.00000          -0.671103          -18.26165
     26       2.00000          -0.644518          -17.53822
     27       2.00000          -0.613464          -16.69321
     28       2.00000          -0.585673          -15.93698
     29       2.00000          -0.555717          -15.12182
     30       2.00000          -0.542639          -14.76595
     31       2.00000          -0.518060          -14.09714
     32       2.00000          -0.504384          -13.72498
     33       2.00000          -0.481522          -13.10288
     34       2.00000          -0.469510          -12.77601
     35       2.00000          -0.445447          -12.12122
     36       2.00000          -0.440763          -11.99376
     37       2.00000          -0.428339          -11.65569
     38       2.00000          -0.417744          -11.36738
     39       2.00000          -0.410909          -11.18140
     40       2.00000          -0.399399          -10.86820
     41       2.00000          -0.396169          -10.78030
     42       2.00000          -0.393489          -10.70739
     43       2.00000          -0.390312          -10.62094
     44       2.00000          -0.382736          -10.41478
     45       2.00000          -0.381507          -10.38134
     46       2.00000          -0.367135           -9.99025
     47       2.00000          -0.364537           -9.91956
     48       2.00000          -0.358735           -9.76169
     49       2.00000          -0.351611           -9.56783
     50       2.00000          -0.348193           -9.47480
     51       2.00000          -0.343003           -9.33358
     52       2.00000          -0.336955           -9.16900
     53       2.00000          -0.261821           -7.12452
     54       2.00000          -0.239000           -6.50351
     55       2.00000          -0.227905           -6.20162
     56       2.00000          -0.224445           -6.10746
     57       2.00000          -0.208516           -5.67402
     58       2.00000          -0.203083           -5.52617
     59       0.00000          -0.071778           -1.95318
     60       0.00000          -0.047166           -1.28346
     61       0.00000          -0.039770           -1.08220
     62       0.00000          -0.033364           -0.90787
     63       0.00000          -0.018538           -0.50445
     64       0.00000          -0.016138           -0.43914
     65       0.00000          -0.012700           -0.34559
     66       0.00000           0.009394            0.25563
     67       0.00000           0.010392            0.28277
     68       0.00000           0.016267            0.44265
     69       0.00000           0.017423            0.47411
     70       0.00000           0.025740            0.70042
     71       0.00000           0.037638            1.02420
     72       0.00000           0.039528            1.07561
     73       0.00000           0.039800            1.08301
     74       0.00000           0.049981            1.36006
     75       0.00000           0.050908            1.38528
     76       0.00000           0.060665            1.65077
     77       0.00000           0.060861            1.65612
     78       0.00000           0.077010            2.09555
     79       0.00000           0.082238            2.23782
     80       0.00000           0.084005            2.28588
     81       0.00000           0.088811            2.41668
     82       0.00000           0.095365            2.59501
     83       0.00000           0.100773            2.74217
     84       0.00000           0.105720            2.87679
     85       0.00000           0.108656            2.95667
     86       0.00000           0.118920            3.23599
     87       0.00000           0.122592            3.33590
     88       0.00000           0.125074            3.40343
     89       0.00000           0.134510            3.66020
     90       0.00000           0.135490            3.68687
     91       0.00000           0.140337            3.81875
     92       0.00000           0.145917            3.97059
     93       0.00000           0.154204            4.19610
     94       0.00000           0.158692            4.31823
     95       0.00000           0.161611            4.39765
     96       0.00000           0.170704            4.64509
     97       0.00000           0.177277            4.82396
     98       0.00000           0.179442            4.88287
     99       0.00000           0.184893            5.03120
    100       0.00000           0.190198            5.17554
    101       0.00000           0.193231            5.25808
    102       0.00000           0.195695            5.32514
    103       0.00000           0.196210            5.33914
    104       0.00000           0.200445            5.45437
    105       0.00000           0.208144            5.66390
    106       0.00000           0.210155            5.71861
    107       0.00000           0.217936            5.93035
    108       0.00000           0.219746            5.97958
    109       0.00000           0.225597            6.13880
    110       0.00000           0.232707            6.33228
    111       0.00000           0.239806            6.52546
    112       0.00000           0.245023            6.66742
    113       0.00000           0.250771            6.82382
    114       0.00000           0.255003            6.93897
    115       0.00000           0.256353            6.97573
    116       0.00000           0.259364            7.05766
    117       0.00000           0.264227            7.18998
    118       0.00000           0.271696            7.39322
    119       0.00000           0.278980            7.59144
    120       0.00000           0.281479            7.65943
    121       0.00000           0.283158            7.70513
    122       0.00000           0.287076            7.81174
    123       0.00000           0.294788            8.02158
    124       0.00000           0.305240            8.30600
    125       0.00000           0.306059            8.32829
    126       0.00000           0.320606            8.72413
    127       0.00000           0.329737            8.97259
    128       0.00000           0.339368            9.23469
    129       0.00000           0.340727            9.27165

  Highest occupied state (VBM) at     -5.52617090 eV
  | Occupation number:      2.00000000

  Lowest unoccupied state (CBM) at    -1.95317905 eV
  | Occupation number:      0.00000000

  Overall HOMO-LUMO gap:      3.57299185 eV.

  Total energy components:
  | Sum of eigenvalues            :        -417.88515190 Ha      -11371.23354511 eV
  | XC energy correction          :        -100.75418453 Ha       -2741.66085532 eV
  | XC potential correction       :         129.53043780 Ha        3524.70254734 eV
  | Free-atom electrostatic energy:        -333.61681188 Ha       -9078.17534379 eV
  | Hartree energy correction     :         -19.99360273 Ha        -544.05361135 eV
  | MBD@rsSCS energy              :           0.00000000 Ha           0.00000000 eV
  | Entropy correction            :          -0.00000000 Ha          -0.00000000 eV
  | ---------------------------
  | Total energy                  :        -742.71931324 Ha      -20210.42080823 eV
  | Total energy, T -> 0          :        -742.71931324 Ha      -20210.42080823 eV  <-- do not rely on this value for anything but (periodic) metals
  | Electronic free energy        :        -742.71931324 Ha      -20210.42080823 eV

  Derived energy quantities:
  | Kinetic energy                :         744.02596464 Ha       20245.97660167 eV
  | Electrostatic energy          :       -1385.99109334 Ha      -37714.73655458 eV
  | Energy correction for multipole
  | error in Hartree potential    :          -0.04089710 Ha          -1.11286677 eV
  | Sum of eigenvalues per atom                           :        -355.35104828 eV
  | Total energy (T->0) per atom                          :        -631.57565026 eV  <-- do not rely on this value for anything but (periodic) metals
  | Electronic free energy per atom                       :        -631.57565026 eV

  Self-consistency convergence accuracy:
  | Change of charge density      :  0.9014E+00
  | Change of sum of eigenvalues  :  0.5439E+03 eV
  | Change of total energy        :  0.1542E+02 eV

  End self-consistency iteration #     1       :  max(cpu_time)    wall_clock(cpu1)
  | Time for this iteration                    :        1.596 s           1.593 s
[...]
   Multipole                     : -0.971591E-01 -0.507016E+00  0.276183E+00
   Pulay + GGA                   : -0.291822E+01 -0.113979E+02  0.587249E+01
   MBD@rsSCS                     : -0.786828E-02 -0.128986E-01  0.160958E-01
   ----------------------------------------------------------------
   Total forces(  20)            : -0.179818E-01 -0.813596E-02  0.865771E-02
  atom #   21
   Hellmann-Feynman              : -0.217086E-02 -0.298079E-01 -0.300093E-01
   Ionic forces                  :  0.000000E+00  0.000000E+00  0.000000E+00
   Multipole                     : -0.155372E-01 -0.751415E-02 -0.122313E-01
   Pulay + GGA                   :  0.906267E-02  0.472351E-01  0.402245E-01
   MBD@rsSCS                     :  0.361261E-02 -0.186250E-02 -0.378570E-02
   ----------------------------------------------------------------
   Total forces(  21)            : -0.503274E-02  0.805049E-02 -0.580188E-02
  atom #   22
   Hellmann-Feynman              :  0.239386E-01  0.360211E-01  0.311754E-01
   Ionic forces                  :  0.000000E+00  0.000000E+00  0.000000E+00
   Multipole                     :  0.315821E-02  0.141543E-01 -0.168238E-01
   Pulay + GGA                   : -0.288592E-01 -0.487438E-01 -0.145057E-01
   MBD@rsSCS                     :  0.669199E-02  0.570306E-03  0.216796E-02
   ----------------------------------------------------------------
   Total forces(  22)            :  0.492962E-02  0.200185E-02  0.201385E-02
  atom #   23
   Hellmann-Feynman              : -0.575277E+00  0.868648E+00 -0.579147E-01
   Ionic forces                  :  0.000000E+00  0.000000E+00  0.000000E+00
   Multipole                     :  0.936256E-01 -0.256400E+00 -0.157860E-01
   Pulay + GGA                   :  0.479144E+00 -0.599529E+00  0.689566E-01
   MBD@rsSCS                     :  0.997773E-02 -0.532083E-02  0.521455E-02
   ----------------------------------------------------------------
   Total forces(  23)            :  0.747016E-02  0.739767E-02  0.470457E-03
  atom #   24
   Hellmann-Feynman              :  0.373083E-01 -0.353981E-01 -0.225437E-01
   Ionic forces                  :  0.000000E+00  0.000000E+00  0.000000E+00
   Multipole                     :  0.250795E-02  0.327629E-01 -0.179809E-01
   Pulay + GGA                   : -0.399224E-01 -0.596352E-03  0.413570E-01
   MBD@rsSCS                     :  0.886899E-02 -0.671177E-02  0.299996E-02
   ----------------------------------------------------------------
   Total forces(  24)            :  0.876285E-02 -0.994337E-02  0.383239E-02
  atom #   25
   Hellmann-Feynman              :  0.592529E-01 -0.211425E-01  0.283476E-01
   Ionic forces                  :  0.000000E+00  0.000000E+00  0.000000E+00
   Multipole                     : -0.115150E-01  0.242375E-01  0.220033E-01
   Pulay + GGA                   : -0.414268E-01 -0.751237E-02 -0.530504E-01
   MBD@rsSCS                     :  0.861647E-02 -0.572206E-02  0.836436E-03
   ----------------------------------------------------------------
   Total forces(  25)            :  0.149277E-01 -0.101394E-01 -0.186311E-02
  atom #   26
   Hellmann-Feynman              :  0.121628E-01 -0.498463E-01 -0.531975E-01
   Ionic forces                  :  0.000000E+00  0.000000E+00  0.000000E+00
   Multipole                     : -0.243310E-01 -0.843687E-02  0.665654E-02
   Pulay + GGA                   :  0.210481E-01  0.483321E-01  0.460007E-01
   MBD@rsSCS                     :  0.910740E-02 -0.895426E-02  0.240020E-02
   ----------------------------------------------------------------
   Total forces(  26)            :  0.179873E-01 -0.189054E-01  0.185990E-02
  atom #   27
   Hellmann-Feynman              : -0.204420E+01 -0.447073E+00 -0.359584E+00
   Ionic forces                  :  0.000000E+00  0.000000E+00  0.000000E+00
   Multipole                     : -0.300831E-01  0.208797E+00  0.671277E-01
   Pulay + GGA                   :  0.206490E+01  0.233303E+00  0.306528E+00
   MBD@rsSCS                     : -0.859304E-02  0.109539E-01  0.283789E-01
   ----------------------------------------------------------------
   Total forces(  27)            : -0.179747E-01  0.598065E-02  0.424514E-01
  atom #   28
   Hellmann-Feynman              :  0.184431E+01  0.533123E-01 -0.143041E+01
   Ionic forces                  :  0.000000E+00  0.000000E+00  0.000000E+00
   Multipole                     : -0.151819E+00 -0.113874E-02  0.893711E-01
   Pulay + GGA                   : -0.168804E+01 -0.523827E-01  0.131168E+01
   MBD@rsSCS                     : -0.843127E-02  0.664285E-02  0.171778E-01
   ----------------------------------------------------------------
   Total forces(  28)            : -0.397365E-02  0.643373E-02 -0.121804E-01
  atom #   29
   Hellmann-Feynman              : -0.711241E-02  0.387312E-01  0.103969E-03
   Ionic forces                  :  0.000000E+00  0.000000E+00  0.000000E+00
   Multipole                     :  0.306721E-01 -0.799740E-02 -0.387515E-01
   Pulay + GGA                   : -0.281014E-01 -0.298906E-01  0.340597E-01
   MBD@rsSCS                     :  0.288587E-02  0.927812E-02  0.635096E-02
   ----------------------------------------------------------------
   Total forces(  29)            : -0.165586E-02  0.101213E-01  0.176314E-02
  atom #   30
   Hellmann-Feynman              : -0.338664E-01  0.266803E-01  0.385329E-01
   Ionic forces                  :  0.000000E+00  0.000000E+00  0.000000E+00
   Multipole                     :  0.306312E-01  0.183898E-01  0.114365E-01
   Pulay + GGA                   :  0.562029E-02 -0.479173E-01 -0.495180E-01
   MBD@rsSCS                     : -0.453185E-02  0.261623E-02  0.455592E-02
   ----------------------------------------------------------------
   Total forces(  30)            : -0.214677E-02 -0.231020E-03  0.500730E-02
  atom #   31
   Hellmann-Feynman              : -0.548440E-01  0.476841E-02 -0.141871E-01
   Ionic forces                  :  0.000000E+00  0.000000E+00  0.000000E+00
   Multipole                     : -0.769972E-02  0.473687E-02 -0.305416E-01
   Pulay + GGA                   :  0.594856E-01 -0.116845E-01  0.307175E-01
   MBD@rsSCS                     : -0.172978E-02  0.337246E-02  0.150672E-01
   ----------------------------------------------------------------
   Total forces(  31)            : -0.478787E-02  0.119325E-02  0.105595E-02
  atom #   32
   Hellmann-Feynman              : -0.595408E-01  0.333707E-02  0.418350E-01
   Ionic forces                  :  0.000000E+00  0.000000E+00  0.000000E+00
   Multipole                     :  0.299106E-01 -0.430483E-01 -0.731452E-02
   Pulay + GGA                   :  0.285833E-01  0.388139E-01 -0.347921E-01
   MBD@rsSCS                     : -0.463589E-02 -0.209223E-03  0.552357E-02
   ----------------------------------------------------------------
   Total forces(  32)            : -0.568275E-02 -0.110657E-02  0.525191E-02

  Removing unitary transformations (pure translations, rotations) from forces on atoms.
  Atomic forces before filtering:
  | Net force on center of mass :  -0.232329E-03 -0.478948E-04  0.469339E-03 eV/A
  | Net torque on center of mass:  -0.145340E-02  0.217990E-02  0.390678E-03 eV
  Atomic forces after filtering:
  | Net force on center of mass :   0.146349E-16 -0.104535E-17  0.202101E-16 eV/A
  | Net torque on center of mass:  -0.162265E-16  0.206518E-16 -0.129074E-17 eV

  Energy and forces in a compact form:
  | Total energy uncorrected      :         -0.202091016625639E+05 eV
  | Total energy corrected        :         -0.202091016625639E+05 eV  <-- do not rely on this value for anything but (periodic) metals
  | Electronic free energy        :         -0.202091016625639E+05 eV
  Total atomic forces (unitary forces cleaned) [eV/Ang]:
  |   1         -0.240157990524101E-01         -0.235778233355445E-02          0.312076257817370E-01
  |   2         -0.202177648815038E-01          0.383426001663854E-02          0.269078059058295E-02
  |   3          0.473372085540641E-02          0.298929139848451E-02         -0.164466395346457E-02
  |   4          0.944365204365376E-02         -0.428108975309162E-02         -0.329917039094369E-03
  |   5         -0.438581697136939E-02          0.204526217325961E-02          0.107281526383760E-01
  |   6         -0.437151599486904E-01         -0.541768654502091E-02          0.505772109672203E-02
  |   7          0.418730854831132E-02          0.271836577694648E-01         -0.191588720367467E-01
  |   8          0.111634301725796E-01          0.120611518626893E-01         -0.126809669811877E-01
  |   9          0.332851252566395E-01          0.147960269058590E-01         -0.240834849651622E-01
  |  10          0.744024687319023E-02          0.196225043189004E-01         -0.174451127624746E-02
  |  11         -0.483834846209151E-02         -0.487336382021057E-02          0.364891972460358E-02
  |  12         -0.774698076558830E-04          0.482535963671816E-02          0.461877440132194E-03
  |  13          0.109492096388700E-01         -0.921026572726102E-02         -0.201440292614106E-01
  |  14         -0.322964248747925E-02         -0.143554943017467E-01         -0.186001075737774E-01
  |  15          0.715898443116978E-02         -0.248259393099655E-01         -0.289406620088668E-01
  |  16         -0.227146266716337E-02         -0.110021599148329E-01         -0.499903543241472E-03
  |  17          0.189560770199765E-01          0.192843714083396E-02          0.362217815043201E-02
  |  18         -0.253392108249281E-02         -0.691884037814093E-02         -0.661377759200943E-03
  |  19          0.276782971274306E-02          0.977754582441388E-03          0.187954607810030E-01
  |  20         -0.179456628717535E-01         -0.810953324087933E-02          0.865492854858107E-02
  |  21         -0.503148741068890E-02          0.804645843765458E-02         -0.581523336367799E-02
  |  22          0.494949942469704E-02          0.201714746739334E-02          0.197161013904637E-02
  |  23          0.749175232627367E-02          0.741314882756428E-02          0.443589194069855E-03
  |  24          0.877692739874947E-02         -0.993387305918570E-02          0.379668509820123E-02
  |  25          0.149594603798309E-01         -0.101143124189773E-01         -0.189424825474740E-02
  |  26          0.180084425858212E-01         -0.188915881379654E-01          0.184715328344582E-02
  |  27         -0.179445272979110E-01          0.600327158989434E-02          0.424313532462959E-01
  |  28         -0.393548608491672E-02          0.646254953434692E-02         -0.121895673068957E-01
  |  29         -0.163251465277436E-02          0.101386046191840E-01          0.173311219189257E-02
  |  30         -0.210162985149227E-02         -0.195164298934075E-03          0.498972181623685E-02
  |  31         -0.475632270316693E-02          0.121555257317046E-02          0.105324622790784E-02
  |  32         -0.563865043435230E-02         -0.107334561473126E-02          0.525342937445497E-02

  ------------------------------------ 
  Start decomposition of the XC Energy 
  ------------------------------------ 
  Hartree-Fock part   :          0.000000000 Ha              0.000000000 eV
  ------------------------------------ 
  X Energy            :        -96.985918504 Ha          -2639.121119487 eV
  C Energy GGA        :         -3.871264217 Ha           -105.342459107 eV
  Total XC Energy     :       -100.857182720 Ha          -2744.463578594 eV
  LDA X and C from self-consistent density 
  X Energy LDA        :        -88.006706207 Ha          -2394.784321180 eV
  C Energy LDA        :         -7.532616961 Ha           -204.972936430 eV
  ------------------------------------ 
  End decomposition of the XC Energy 
  ------------------------------------ 
   
  ESP charge fitting starts.
  | Calculation :  00000001  of  00000001
  | Full density
  Computing multipole expansion for total density.
  Generating points for esp charges.
  Partitioning the integration grid into batches with parallel hashing+maxmin method.
  | Number of batches:     3858
  | Maximal batch size:     198
  | Minimal batch size:      93
  | Average batch size:     126.272
  | Standard deviation of batch sizes:      18.711

  Integration load balanced across    32 MPI tasks.
  Work distribution over tasks is as follows:
  Initializing partition tables, free-atom densities, potentials, etc. across the integration grid (initialize_grid_storage).
  | Original list of interatomic distances with          32 x         32 entries is created.
  | Net number of integration points:   487159
  | of which are non-zero points    :   487159
  Summing up potential from multipole expanded  density.
  Summing up the Hartree potential.
  Time summed over all CPUs for potential: real work        6.417 s, elapsed        6.708 s
  Fitting esp charges to potential.
  |
  | ESP charges fitted to the electrostatic potential :
  |
  | Atom         1: C, ESP charge:      0.26718255
  |
  | Atom         2: C, ESP charge:     -0.65671464
  |
  | Atom         3: O, ESP charge:      0.54831648
  |
  | Atom         4: H, ESP charge:     -0.09408711
  |
  | Atom         5: H, ESP charge:     -0.08892117
  |
  | Atom         6: H, ESP charge:     -0.05282829
  |
  | Atom         7: N, ESP charge:      0.66086568
  |
  | Atom         8: C, ESP charge:     -0.25591340
  |
  | Atom         9: C, ESP charge:     -0.33456232
  |
  | Atom        10: O, ESP charge:      0.48942002
  |
  | Atom        11: H, ESP charge:     -0.34122799
  |
  | Atom        12: H, ESP charge:     -0.09636483
  |
  | Atom        13: C, ESP charge:      0.43043049
  |
  | Atom        14: H, ESP charge:     -0.08228648
  |
  | Atom        15: H, ESP charge:     -0.12963229
  |
  | Atom        16: H, ESP charge:     -0.14917268
  |
  | Atom        17: N, ESP charge:      0.36882115
  |
  | Atom        18: C, ESP charge:     -0.24000328
  |
  | Atom        19: C, ESP charge:     -0.36545329
  |
  | Atom        20: O, ESP charge:      0.47767268
  |
  | Atom        21: H, ESP charge:     -0.27581516
  |
  | Atom        22: H, ESP charge:     -0.01104478
  |
  | Atom        23: C, ESP charge:      0.26014832
  |
  | Atom        24: H, ESP charge:     -0.06523885
  |
  | Atom        25: H, ESP charge:     -0.09690786
  |
  | Atom        26: H, ESP charge:     -0.06531506
  |
  | Atom        27: N, ESP charge:      0.31697825
  |
  | Atom        28: C, ESP charge:      0.18660717
  |
  | Atom        29: H, ESP charge:     -0.29166453
  |
  | Atom        30: H, ESP charge:     -0.09900590
  |
  | Atom        31: H, ESP charge:     -0.09543526
  |
  | Atom        32: H, ESP charge:     -0.11884761

  RRMS:       0.00641714

  Done.

------------------------------------------------------------------------------
  Final output of selected total energy values:

  The following output summarizes some interesting total energy values
  at the end of a run (AFTER all relaxation, molecular dynamics, etc.).

  | Total energy of the DFT / Hartree-Fock s.c.f. calculation      :         -20209.101662564 eV
  | Final zero-broadening corrected energy (caution - metals only) :         -20209.101662564 eV
  | For reference only, the value of 1 Hartree used in FHI-aims is :             27.211384500 eV

  Before relying on these values, please be sure to understand exactly which
  total energy value is referred to by a given number. Different objects may
  all carry the same name 'total energy'. Definitions:

  Total energy of the DFT / Hartree-Fock s.c.f. calculation:
  | Note that this energy does not include ANY quantities calculated after the
  | s.c.f. cycle, in particular not ANY RPA, MP2, etc. many-body perturbation terms.

  Final zero-broadening corrected energy:
  | For metallic systems only, a broadening of the occupation numbers at the Fermi
  | level can be extrapolated back to zero broadening by an electron-gas inspired
  | formula. For all systems that are not real metals, this value can be
  | meaningless and should be avoided.

------------------------------------------------------------------------------
  Methods described in the following list of references were used in this FHI-aims run.
  If you publish the results, please make sure to cite these reference if they apply.
  FHI-aims is an academic code, and for our developers (often, Ph.D. students
  and postdocs), scientific credit in the community is essential.
  Thank you for helping us!

  For any use of FHI-aims, please cite:

    Volker Blum, Ralf Gehrke, Felix Hanke, Paula Havu, Ville Havu,
    Xinguo Ren, Karsten Reuter, and Matthias Scheffler
    'Ab initio molecular simulations with numeric atom-centered orbitals'
    Computer Physics Communications 180, 2175-2196 (2009)
    http://dx.doi.org/10.1016/j.cpc.2009.06.022


  The scalable eigensolver library ELPA was used in your run.
  ELPA is essential especially for large systems on hundreds or thousands of CPUs.
  For ELPA, please cite:

    Andreas Marek, Volker Blum, Rainer Johanni, Ville Havu, Bruno Lang,
    Thomas Auckenthaler, Alexander Heinecke, Hans-Joachim Bungartz, and Hermann Lederer,
    'The ELPA Library - Scalable Parallel Eigenvalue Solutions
    for Electronic Structure Theory and Computational Science'
    The Journal of Physics: Condensed Matter 26, 213201 (2014).
    http://dx.doi.org/10.1088/0953-8984/26/21/213201


  For ELPA's efficient two-stage tridiagonalization used in your run, please cite:

    T. Auckenthaler, V. Blum, H.-J. Bungartz, T. Huckle, R. Johanni, L. Kraemer,
    B. Lang, H. Lederer, and P. R. Willems,
    'Parallel solution of partial symmetric eigenvalue problems'
    'from  electronic structure calculations'
    Parallel Computing 37, 783-794 (2011).
    http://dx.doi.org/10.1016/j.parco.2011.05.002


  For the real-space grid partitioning and parallelization used in this calculation, please cite:

    Ville Havu, Volker Blum, Paula Havu, and Matthias Scheffler,
    'Efficient O(N) integration for all-electron electronic structure calculation'
    'using numerically tabulated basis functions'
    Journal of Computational Physics 228, 8367-8379 (2009).
    http://dx.doi.org/10.1016/j.jcp.2009.08.008

  Of course, there are many other important community references, e.g., those cited in the
  above references. Our list is limited to references that describe implementations in the
  FHI-aims code. The reason is purely practical (length of this list) - please credit others as well.

------------------------------------------------------------
          Leaving FHI-aims.
          Date     :  20170309, Time     :  182841.311

          Computational steps:
          | Number of self-consistency cycles          :           13

          Detailed time accounting                     :  max(cpu_time)    wall_clock(cpu1)
          | Total time                                 :       30.494 s          30.667 s
          | Preparation time                           :        0.240 s           0.237 s
          | Grid partitioning                          :        0.296 s           0.290 s
          | Preloading free-atom quantities on grid    :        0.028 s           0.027 s
          | Free-atom superposition energy             :        0.044 s           0.041 s
          | Total time for integrations                :       10.849 s          10.838 s
          | Total time for solution of K.-S. equations :        0.496 s           0.472 s
          | Total time for density & force components  :        8.085 s           8.054 s
          | Total time for mixing                      :        0.116 s           0.094 s
          | Total time for Hartree multipole update    :        0.068 s           0.055 s
          | Total time for Hartree multipole sum       :        5.384 s           5.354 s
          | Total time for total energy evaluation     :        0.020 s           0.020 s

          Have a nice day.
------------------------------------------------------------
