  MPI-parallelism will be employed.
------------------------------------------------------------
          Invoking FHI-aims ...
          Version 150427
          Git rev.: 9dd23e0 BL: Update Version stamp
          Compiled on 2015/11/03 at 22:05:20 on host eos03.

          When using FHI-aims, please cite the following reference:

          Volker Blum, Ralf Gehrke, Felix Hanke, Paula Havu,
          Ville Havu, Xinguo Ren, Karsten Reuter, and Matthias Scheffler,
          'Ab Initio Molecular Simulations with Numeric Atom-Centered Orbitals: FHI-aims',
          Computer Physics Communications 180, 2175-2196 (2009)

          For any questions about FHI-aims, please visit the aimsclub website
          with its forums and wiki. Contributions to both the forums and the
          wiki are warmly encouraged - they are for you, and everyone is welcome there.

------------------------------------------------------------

  Date     :  20170309, Time     :  180925.305
  Time zero on CPU 1             :   0.352021000000000E+00  s.
  Internal wall clock time zero  :           258314965.305  s.

  Using       32 parallel tasks.
  Task        0 on host eos383 reporting.
  Task        1 on host eos383 reporting.
  Task        2 on host eos383 reporting.
  Task        3 on host eos383 reporting.
  Task        4 on host eos383 reporting.
  Task        5 on host eos383 reporting.
  Task        6 on host eos383 reporting.
  Task        7 on host eos383 reporting.
  Task        8 on host eos383 reporting.
  Task        9 on host eos383 reporting.
  Task       10 on host eos383 reporting.
  Task       11 on host eos383 reporting.
  Task       12 on host eos383 reporting.
  Task       13 on host eos383 reporting.
  Task       14 on host eos383 reporting.
  Task       15 on host eos383 reporting.
  Task       16 on host eos383 reporting.
  Task       17 on host eos383 reporting.
  Task       18 on host eos383 reporting.
  Task       19 on host eos383 reporting.
  Task       20 on host eos383 reporting.
  Task       21 on host eos383 reporting.
  Task       22 on host eos383 reporting.
  Task       23 on host eos383 reporting.
  Task       24 on host eos383 reporting.
  Task       25 on host eos383 reporting.
  Task       26 on host eos383 reporting.
  Task       27 on host eos383 reporting.
  Task       28 on host eos383 reporting.
  Task       29 on host eos383 reporting.
  Task       30 on host eos383 reporting.
  Task       31 on host eos383 reporting.

  Performing system and environment tests:
  | Environment variable OMP_NUM_THREADS correctly set to 1.
  | Stacksize not measured: no C compiler
  | Checking for scalapack...
  | Testing pdtran()...
  | All pdtran() tests passed.

  Obtaining array dimensions for all initial allocations:
  
  -----------------------------------------------------------------------
  Parsing control.in (first pass over file, find array dimensions only).
  The contents of control.in will be repeated verbatim below
  unless switched off by setting 'verbatim_writeout .false.' .
  in the first line of control.in .
  -----------------------------------------------------------------------
  
  #########################################################################################
  #
  # Input for System
  #
  #########################################################################################
  #
  #
  #  Physical model
  #
    xc                 pbe
    many_body_dispersion
    spin               none
    charge             0.
  #
  #  SCF convergence
  #
    occupation_type    gaussian 0.05
    mixer              pulay
      n_max_pulay        10
      charge_mix_param   0.5
    sc_accuracy_rho    1E-4
    sc_accuracy_eev    1E-2
    sc_accuracy_etot   1E-5
    sc_accuracy_forces 1E-4
    sc_iter_limit      1000
  #
  #  ESP charge
  #
    output esp
    esp equal_grid_n 80 80 80
  #
  #
  ################################################################################
  #
  #  FHI-aims code project
  # Volker Blum, Fritz Haber Institute Berlin, 2009
  #
  #  Suggested "tight" defaults for H atom (to be pasted into control.in file)
  #
  ################################################################################
    species        H
  #     global species definitions
      nucleus             1
      mass                1.00794
  #
      l_hartree           6
  #
      cut_pot             4.0  2.0  1.0
      basis_dep_cutoff    1e-4
  #
      radial_base         24 7.0
      radial_multiplier   2
      angular_grids       specified
        division   0.1930   50
        division   0.3175  110
        division   0.4293  194
        division   0.5066  302
        division   0.5626  434
  #      division   0.5922  590
  #      division   0.6227  974
  #      division   0.6868 1202
  #      outer_grid  770
        outer_grid  434
  ################################################################################
  #
  #  Definition of "minimal" basis
  #
  ################################################################################
  #     valence basis states
      valence      1  s   1.
  #     ion occupancy
      ion_occ      1  s   0.5
  ################################################################################
  #
  #  Suggested additional basis functions. For production calculations,
  #  uncomment them one after another (the most important basis functions are
  #  listed first).
  #
  #  Basis constructed for dimers: 0.5 A, 0.7 A, 1.0 A, 1.5 A, 2.5 A
  #
  ################################################################################
  #  "First tier" - improvements: -1014.90 meV to -62.69 meV
       hydro 2 s 2.1
       hydro 2 p 3.5
  #  "Second tier" - improvements: -12.89 meV to -1.83 meV
       hydro 1 s 0.85
       hydro 2 p 3.7
       hydro 2 s 1.2
       hydro 3 d 7
  #  "Third tier" - improvements: -0.25 meV to -0.12 meV
  #     hydro 4 f 11.2
  #     hydro 3 p 4.8
  #     hydro 4 d 9
  #     hydro 3 s 3.2
  ################################################################################
  #
  # For methods that use the localized form of the "resolution of identity" for
  # the two-electron Coulomb operator (RI_method LVL), particularly Hartree-Fock and
  # hybrid density functional calculations, the highest accuracy can be obtained by
  # uncommenting the line beginning with "for_aux"  below, thus adding an extra g radial
  # function to the construction of the product basis set for the expansion.
  # See Ref. New J. Phys. 17, 093020 (2015) for more information, particularly Figs. 1 and 6.
  #
  ################################################################################
  #
  # for_aux hydro 5 g 6.0
  ################################################################################
  #
  #  FHI-aims code project
  # Volker Blum, Fritz Haber Institute Berlin, 2009
  #
  #  Suggested "tight" defaults for C atom (to be pasted into control.in file)
  #
  ################################################################################
    species        C
  #     global species definitions
      nucleus             6
      mass                12.0107
  #
      l_hartree           6
  #
      cut_pot             4.0  2.0  1.0
      basis_dep_cutoff    1e-4
  #
      radial_base         34 7.0
      radial_multiplier   2
      angular_grids specified
        division   0.2187   50
        division   0.4416  110
        division   0.6335  194
        division   0.7727  302
        division   0.8772  434
  #      division   0.9334  590
  #      division   0.9924  770
  #      division   1.0230  974
  #      division   1.5020 1202
  #     outer_grid  974
        outer_grid  434
  ################################################################################
  #
  #  Definition of "minimal" basis
  #
  ################################################################################
  #     valence basis states
      valence      2  s   2.
      valence      2  p   2.
  #     ion occupancy
      ion_occ      2  s   1.
      ion_occ      2  p   1.
  ################################################################################
  #
  #  Suggested additional basis functions. For production calculations,
  #  uncomment them one after another (the most important basis functions are
  #  listed first).
  #
  #  Constructed for dimers: 1.0 A, 1.25 A, 1.5 A, 2.0 A, 3.0 A
  #
  ################################################################################
  #  "First tier" - improvements: -1214.57 meV to -155.61 meV
       hydro 2 p 1.7
       hydro 3 d 6
       hydro 2 s 4.9
  #  "Second tier" - improvements: -67.75 meV to -5.23 meV
       hydro 4 f 9.8
       hydro 3 p 5.2
       hydro 3 s 4.3
       hydro 5 g 14.4
       hydro 3 d 6.2
  #  "Third tier" - improvements: -2.43 meV to -0.60 meV
  #     hydro 2 p 5.6
  #     hydro 2 s 1.4
  #     hydro 3 d 4.9
  #     hydro 4 f 11.2
  #  "Fourth tier" - improvements: -0.39 meV to -0.18 meV
  #     hydro 2 p 2.1
  #     hydro 5 g 16.4
  #     hydro 4 d 13.2
  #     hydro 3 s 13.6
  #     hydro 4 f 17.6
  #  Further basis functions - improvements: -0.08 meV and below
  #     hydro 3 s 2
  #     hydro 3 p 6
  #     hydro 4 d 20
  ################################################################################
  #
  # For methods that use the localized form of the "resolution of identity" for
  # the two-electron Coulomb operator (RI_method LVL), particularly Hartree-Fock and
  # hybrid density functional calculations, the highest accuracy can be obtained by
  # uncommenting the line beginning with "for_aux"  below, thus adding an extra g radial
  # function to the construction of the product basis set for the expansion.
  # See Ref. New J. Phys. 17, 093020 (2015) for more information, particularly Figs. 1 and 6.
  #
  ################################################################################
  #
  # for_aux hydro 5 g 6.0
  ################################################################################
  #
  #  FHI-aims code project
  # Volker Blum, Fritz Haber Institute Berlin, 2009
  #
  #  Suggested "tight" defaults for N atom (to be pasted into control.in file)
  #
  ################################################################################
    species        N
  #     global species definitions
      nucleus             7
      mass                14.0067
  #
      l_hartree           6
  #
      cut_pot             4.0  2.0  1.0
      basis_dep_cutoff    1e-4
  #
      radial_base         35 7.0
      radial_multiplier   2
      angular_grids       specified
        division   0.1841   50
        division   0.3514  110
        division   0.5126  194
        division   0.6292  302
        division   0.6939  434
  #      division   0.7396  590
  #      division   0.7632  770
  #      division   0.8122  974
  #      division   1.1604 1202
  #      outer_grid  974
        outer_grid  434
  ################################################################################
  #
  #  Definition of "minimal" basis
  #
  ################################################################################
  #     valence basis states
      valence      2  s   2.
      valence      2  p   3.
  #     ion occupancy
      ion_occ      2  s   1.
      ion_occ      2  p   2.
  ################################################################################
  #
  #  Suggested additional basis functions. For production calculations,
  #  uncomment them one after another (the most important basis functions are
  #  listed first).
  #
  #  Constructed for dimers: 1.0 A, 1.1 A, 1.5 A, 2.0 A, 3.0 A
  #
  ################################################################################
  #  "First tier" - improvements: -1193.42 meV to -220.60 meV
       hydro 2 p 1.8
       hydro 3 d 6.8
       hydro 3 s 5.8
  #  "Second tier" - improvements: -80.21 meV to -6.86 meV
       hydro 4 f 10.8
       hydro 3 p 5.8
       hydro 1 s 0.8
       hydro 5 g 16
       hydro 3 d 4.9
  #  "Third tier" - improvements: -4.29 meV to -0.53 meV
  #     hydro 3 s 16
  #     ionic 2 p auto
  #     hydro 3 d 6.6
  #     hydro 4 f 11.6
  #  "Fourth tier" - improvements: -0.75 meV to -0.25 meV
  #     hydro 2 p 4.5
  #     hydro 2 s 2.4
  #     hydro 5 g 14.4
  #     hydro 4 d 14.4
  #     hydro 4 f 16.8
  # Further basis functions - -0.21 meV and below
  #     hydro 3 p 14.8
  #     hydro 3 s 4.4
  #     hydro 3 d 19.6
  #     hydro 5 g 12.8
  ################################################################################
  #
  # For methods that use the localized form of the "resolution of identity" for
  # the two-electron Coulomb operator (RI_method LVL), particularly Hartree-Fock and
  # hybrid density functional calculations, the highest accuracy can be obtained by
  # uncommenting the line beginning with "for_aux"  below, thus adding an extra g radial
  # function to the construction of the product basis set for the expansion.
  # See Ref. New J. Phys. 17, 093020 (2015) for more information, particularly Figs. 1 and 6.
  #
  ################################################################################
  #
  # for_aux hydro 5 g 6.0
  ################################################################################
  #
  #  FHI-aims code project
  # Volker Blum, Fritz Haber Institute Berlin, 2009
  #
  #  Suggested "tight" defaults for O atom (to be pasted into control.in file)
  #
  ################################################################################
    species        O
  #     global species definitions
      nucleus             8
      mass                15.9994
  #
      l_hartree           6
  #
      cut_pot             4.0  2.0  1.0
      basis_dep_cutoff    1e-4
  #
      radial_base         36 7.0
      radial_multiplier   2
       angular_grids specified
        division   0.1817   50
        division   0.3417  110
        division   0.4949  194
        division   0.6251  302
        division   0.8014  434
  #      division   0.8507  590
  #      division   0.8762  770
  #      division   0.9023  974
  #      division   1.2339 1202
  #      outer_grid 974
        outer_grid  434
  ################################################################################
  #
  #  Definition of "minimal" basis
  #
  ################################################################################
  #     valence basis states
      valence      2  s   2.
      valence      2  p   4.
  #     ion occupancy
      ion_occ      2  s   1.
      ion_occ      2  p   3.
  ################################################################################
  #
  #  Suggested additional basis functions. For production calculations,
  #  uncomment them one after another (the most important basis functions are
  #  listed first).
  #
  #  Constructed for dimers: 1.0 A, 1.208 A, 1.5 A, 2.0 A, 3.0 A
  #
  ################################################################################
  #  "First tier" - improvements: -699.05 meV to -159.38 meV
       hydro 2 p 1.8
       hydro 3 d 7.6
       hydro 3 s 6.4
  #  "Second tier" - improvements: -49.91 meV to -5.39 meV
       hydro 4 f 11.6
       hydro 3 p 6.2
       hydro 3 d 5.6
       hydro 5 g 17.6
       hydro 1 s 0.75
  #  "Third tier" - improvements: -2.83 meV to -0.50 meV
  #     ionic 2 p auto
  #     hydro 4 f 10.8
  #     hydro 4 d 4.7
  #     hydro 2 s 6.8
  #  "Fourth tier" - improvements: -0.40 meV to -0.12 meV
  #     hydro 3 p 5
  #     hydro 3 s 3.3
  #     hydro 5 g 15.6
  #     hydro 4 f 17.6
  #     hydro 4 d 14
  # Further basis functions - -0.08 meV and below
  #     hydro 3 s 2.1
  #     hydro 4 d 11.6
  #     hydro 3 p 16
  #     hydro 2 s 17.2
  ################################################################################
  #
  # For methods that use the localized form of the "resolution of identity" for
  # the two-electron Coulomb operator (RI_method LVL), particularly Hartree-Fock and
  # hybrid density functional calculations, the highest accuracy can be obtained by
  # uncommenting the line beginning with "for_aux"  below, thus adding an extra g radial
  # function to the construction of the product basis set for the expansion.
  # See Ref. New J. Phys. 17, 093020 (2015) for more information, particularly Figs. 1 and 6.
  #
  ################################################################################
  #
  # for_aux hydro 5 g 6.0
  
  -----------------------------------------------------------------------
  Completed first pass over input file control.in .
  -----------------------------------------------------------------------
  
  
  -----------------------------------------------------------------------
  Parsing geometry.in (first pass over file, find array dimensions only).
  The contents of geometry.in will be repeated verbatim below
  unless switched off by setting 'verbatim_writeout .false.' .
  in the first line of geometry.in .
  -----------------------------------------------------------------------
  
  #
  # This is the geometry file that corresponds to the current relaxation step.
  # If you do not want this file to be written, set the "write_restart_geometry" flag to .false.
  #
  atom       0.30258681     -1.26212852      0.73959190 C
  atom      -0.11059875     -0.09544995      1.61730565 C
  atom       0.64340461      0.84703580      1.85895829 O
  atom      -0.48334087     -2.01606433      0.60920481 H
  atom       1.18700934     -1.73807137      1.18111698 H
  atom       0.59603847     -0.87643554     -0.24447024 H
  atom      -1.37990608     -0.15992178      2.11811955 N
  atom      -1.89852372      0.83985527      3.02841684 C
  atom      -2.94673887      0.15100787      3.90936033 C
  atom      -3.54586439     -0.86437254      3.52534813 O
  atom      -1.97080871     -0.97657576      1.98323346 H
  atom      -1.05722973      1.20139159      3.64047845 H
  atom      -2.52244489      2.03815464      2.28664722 C
  atom      -2.88589212      2.80046613      2.98901591 H
  atom      -3.36493951      1.70671508      1.66568729 H
  atom      -1.76262255      2.49553363      1.64232513 H
  atom      -3.19489306      0.74463729      5.10014692 N
  atom      -4.20875733      0.26425791      6.04534480 C
  atom      -5.61203104      0.80129559      5.64276777 C
  atom      -6.16213514      1.71747858      6.24899051 O
  atom      -2.69700826      1.59696599      5.33639973 H
  atom      -4.21866160     -0.83139686      5.94719410 H
  atom      -3.84128588      0.66869818      7.46412342 C
  atom      -4.57010106      0.26034080      8.17352983 H
  atom      -3.86122076      1.76047237      7.57872639 H
  atom      -2.84566574      0.28862399      7.72630037 H
  atom      -6.13821223      0.15969657      4.56470751 N
  atom      -7.38838405      0.56345198      3.95047453 C
  atom      -5.53126228     -0.50548321      4.08324962 H
  atom      -8.02722368     -0.31029402      3.76659124 H
  atom      -7.22219462      1.08557721      2.99591805 H
  atom      -7.89959228      1.24590742      4.63759954 H
  
  -----------------------------------------------------------------------
  Completed first pass over input file geometry.in .
  -----------------------------------------------------------------------
  

  Basic array size parameters:
  | Number of species                 :        4
  | Number of atoms                   :       32
  | Max. basis fn. angular momentum   :        4
  | Max. atomic/ionic basis occupied n:        2
  | Max. number of basis fn. types    :        2
  | Max. radial fns per species/type  :        8
  | Max. logarithmic grid size        :     1301
  | Max. radial integration grid size :       73
  | Max. angular integration grid size:      434
  | Max. angular grid division number :        8
  | Radial grid for Hartree potential :     1301
  | Number of spin channels           :        1

------------------------------------------------------------
          Reading file control.in.
------------------------------------------------------------
  XC: Using PBE gradient-corrected functionals.
  Self-consistent screening and van der Waals energy (TS, TS+SCS,MBD) module
  Spin treatment: No spin polarisation.
  Charge =   0.000000E+00: Neutral system requested explicitly.
  Occupation type: Gaussian broadening, width =   0.500000E-01 eV.
  Using pulay charge density mixing.
  Pulay mixing - number of memorized iterations:   10
  Charge density mixing - mixing parameter:     0.5000
  Convergence accuracy of self-consistent charge density:  0.1000E-03
  Convergence accuracy of sum of eigenvalues:  0.1000E-01
  Convergence accuracy of total energy:  0.1000E-04
  Convergence accuracy of forces:  0.1000E-03
  Maximum number of s.-c. iterations  :  1000
  Fitting ESP-charges to Potential. 
  | Esp charge output options: 
  | ESP Grid method: 3, cubic grid
  | Number of points in x, ,y, z:  0080 0080 0080
  |
 
  Reading configuration options for species H                   .
  | Found nuclear charge :   1.0000
  | Found atomic mass :    1.00794000000000      amu
  | Found l_max for Hartree potential  :   6
  | Found cutoff potl. onset [A], width [A], scale factor :    4.00000    2.00000    1.00000
  | Threshold for basis-dependent cutoff potential is   0.100000E-03
  | Found data for basic radial integration grid :    24 points, outermost radius =    7.000 A
  | Found multiplier for basic radial grid :   2
  | Found angular grid specification: user-specified.
  | Specified grid contains     6 separate shells.
  | Check grid settings after all constraints further below.
  | Found free-atom valence shell :  1 s   1.000
  | No ionic wave fns used. Skipping ion_occ.
  | Found hydrogenic basis function :  2 s   2.100
  | Found hydrogenic basis function :  2 p   3.500
  | Found hydrogenic basis function :  1 s   0.850
  | Found hydrogenic basis function :  2 p   3.700
  | Found hydrogenic basis function :  2 s   1.200
  | Found hydrogenic basis function :  3 d   7.000
  Species H                   : Missing cutoff potential type.
  Defaulting to exp(1/x)/(1-x)^2 type cutoff potential.
  Species H : No 'logarithmic' tag. Using default grid for free atom:
  | Default logarithmic grid data [bohr] : 0.1000E-03 0.1000E+03 0.1012E+01
  Species H : On-site basis accuracy parameter (for Gram-Schmidt orthonormalisation) not specified.
  Using default value basis_acc =  0.1000000E-03.
  Species H                   : Using default innermost maximum threshold i_radial=  2 for radial functions.
  Species H                   : Default cutoff onset for free atom density etc. : 0.40000000E+01 AA.
  Species H                   : Basic radial grid will be enhanced according to radial_multiplier =   2, to contain    49 grid points.
 
  Reading configuration options for species C                   .
  | Found nuclear charge :   6.0000
  | Found atomic mass :    12.0107000000000      amu
  | Found l_max for Hartree potential  :   6
  | Found cutoff potl. onset [A], width [A], scale factor :    4.00000    2.00000    1.00000
  | Threshold for basis-dependent cutoff potential is   0.100000E-03
  | Found data for basic radial integration grid :    34 points, outermost radius =    7.000 A
  | Found multiplier for basic radial grid :   2
  | Found angular grid specification: user-specified.
  | Specified grid contains     6 separate shells.
  | Check grid settings after all constraints further below.
  | Found free-atom valence shell :  2 s   2.000
  | Found free-atom valence shell :  2 p   2.000
  | No ionic wave fns used. Skipping ion_occ.
  | No ionic wave fns used. Skipping ion_occ.
  | Found hydrogenic basis function :  2 p   1.700
  | Found hydrogenic basis function :  3 d   6.000
  | Found hydrogenic basis function :  2 s   4.900
  | Found hydrogenic basis function :  4 f   9.800
  | Found hydrogenic basis function :  3 p   5.200
  | Found hydrogenic basis function :  3 s   4.300
  | Found hydrogenic basis function :  5 g  14.400
  | Found hydrogenic basis function :  3 d   6.200
  Species C                   : Missing cutoff potential type.
  Defaulting to exp(1/x)/(1-x)^2 type cutoff potential.
  Species C : No 'logarithmic' tag. Using default grid for free atom:
  | Default logarithmic grid data [bohr] : 0.1000E-03 0.1000E+03 0.1012E+01
  Species C : On-site basis accuracy parameter (for Gram-Schmidt orthonormalisation) not specified.
  Using default value basis_acc =  0.1000000E-03.
  Species C                   : Using default innermost maximum threshold i_radial=  2 for radial functions.
  Species C                   : Default cutoff onset for free atom density etc. : 0.40000000E+01 AA.
  Species C                   : Basic radial grid will be enhanced according to radial_multiplier =   2, to contain    69 grid points.
 
  Reading configuration options for species N                   .
  | Found nuclear charge :   7.0000
  | Found atomic mass :    14.0067000000000      amu
  | Found l_max for Hartree potential  :   6
  | Found cutoff potl. onset [A], width [A], scale factor :    4.00000    2.00000    1.00000
  | Threshold for basis-dependent cutoff potential is   0.100000E-03
  | Found data for basic radial integration grid :    35 points, outermost radius =    7.000 A
  | Found multiplier for basic radial grid :   2
  | Found angular grid specification: user-specified.
  | Specified grid contains     6 separate shells.
  | Check grid settings after all constraints further below.
  | Found free-atom valence shell :  2 s   2.000
  | Found free-atom valence shell :  2 p   3.000
  | No ionic wave fns used. Skipping ion_occ.
  | No ionic wave fns used. Skipping ion_occ.
  | Found hydrogenic basis function :  2 p   1.800
  | Found hydrogenic basis function :  3 d   6.800
  | Found hydrogenic basis function :  3 s   5.800
  | Found hydrogenic basis function :  4 f  10.800
  | Found hydrogenic basis function :  3 p   5.800
  | Found hydrogenic basis function :  1 s   0.800
  | Found hydrogenic basis function :  5 g  16.000
  | Found hydrogenic basis function :  3 d   4.900
  Species N                   : Missing cutoff potential type.
  Defaulting to exp(1/x)/(1-x)^2 type cutoff potential.
  Species N : No 'logarithmic' tag. Using default grid for free atom:
  | Default logarithmic grid data [bohr] : 0.1000E-03 0.1000E+03 0.1012E+01
  Species N : On-site basis accuracy parameter (for Gram-Schmidt orthonormalisation) not specified.
  Using default value basis_acc =  0.1000000E-03.
  Species N                   : Using default innermost maximum threshold i_radial=  2 for radial functions.
  Species N                   : Default cutoff onset for free atom density etc. : 0.40000000E+01 AA.
  Species N                   : Basic radial grid will be enhanced according to radial_multiplier =   2, to contain    71 grid points.
 
  Reading configuration options for species O                   .
  | Found nuclear charge :   8.0000
  | Found atomic mass :    15.9994000000000      amu
  | Found l_max for Hartree potential  :   6
  | Found cutoff potl. onset [A], width [A], scale factor :    4.00000    2.00000    1.00000
  | Threshold for basis-dependent cutoff potential is   0.100000E-03
  | Found data for basic radial integration grid :    36 points, outermost radius =    7.000 A
  | Found multiplier for basic radial grid :   2
  | Found angular grid specification: user-specified.
  | Specified grid contains     6 separate shells.
  | Check grid settings after all constraints further below.
  | Found free-atom valence shell :  2 s   2.000
  | Found free-atom valence shell :  2 p   4.000
  | No ionic wave fns used. Skipping ion_occ.
  | No ionic wave fns used. Skipping ion_occ.
  | Found hydrogenic basis function :  2 p   1.800
  | Found hydrogenic basis function :  3 d   7.600
  | Found hydrogenic basis function :  3 s   6.400
  | Found hydrogenic basis function :  4 f  11.600
  | Found hydrogenic basis function :  3 p   6.200
  | Found hydrogenic basis function :  3 d   5.600
  | Found hydrogenic basis function :  5 g  17.600
  | Found hydrogenic basis function :  1 s   0.750
  Species O                   : Missing cutoff potential type.
  Defaulting to exp(1/x)/(1-x)^2 type cutoff potential.
  Species O : No 'logarithmic' tag. Using default grid for free atom:
  | Default logarithmic grid data [bohr] : 0.1000E-03 0.1000E+03 0.1012E+01
  Species O : On-site basis accuracy parameter (for Gram-Schmidt orthonormalisation) not specified.
  Using default value basis_acc =  0.1000000E-03.
  Species O                   : Using default innermost maximum threshold i_radial=  2 for radial functions.
  Species O                   : Default cutoff onset for free atom density etc. : 0.40000000E+01 AA.
  Species O                   : Basic radial grid will be enhanced according to radial_multiplier =   2, to contain    73 grid points.
 
  Finished reading input file 'control.in'. Consistency checks are next.
 
  Target number of points in a grid batch is not set. Defaulting to  100
  Method for grid partitioning is not set. Defaulting to parallel hash+maxmin partitioning.
  Batch size limit is not set. Defaulting to    200
  By default, will store active basis functions for each batch.
  If in need of memory, prune_basis_once .false. can be used to disable this option.
  communication_type for Hartree potential was not specified.
  Defaulting to calc_hartree .
  Pulay mixer: Number of initial linear mixing iterations not set.
  Defaulting to    0 iterations.
  Work space size for distributed Hartree potential not set.
  Defaulting to   0.200000E+03 MB.
  Algorithm-dependent basis array size parameters:
  | n_max_pulay                         :       10
  Geometry relaxation not requested: no relaxation will be performed.
  Handling of forces: Unphysical translation and rotation will be removed from forces.
  No accuracy limit for integral partition fn. given. Defaulting to  0.1000E-14.
  No threshold value for u(r) in integrations given. Defaulting to  0.1000E-05.
  No accuracy for occupation numbers given. Defaulting to  0.1000E-07.
  No threshold value for occupation numbers given. Defaulting to  0.0000E+00.
  No accuracy for fermi level given. Defaulting to  0.1000E-19.
  Maximum # of iterations to find E_F not set. Defaulting to  200.
  Preferred method for the eigenvalue solver ('KS_method') not specified in 'control.in'.
  Calling blacs routine to test compilation state
  Since scalapack support is enabled, defaulting to 'elpa'.
  Preferred method for the MBD eigenvalue solver ('mbd_eigensolver') not specified in 'control.in'.
  Calling blacs routine to test compilation state
  Since scalapack support is enabled, defaulting to 'scaLAPACK'.
  Will not use alltoall communication since running on < 1024 CPUs.
  Threshold for basis singularities not set.
  Default threshold for basis singularities:  0.1000E-04
  partition_type (choice of integration weights) for integrals was not specified.
  | Using a version of the partition function of Stratmann and coworkers ('stratmann_smoother').
  | At each grid point, the set of atoms used to build the partition table is smoothly restricted to
  | only those atoms whose free-atom density would be non-zero at that grid point.
  Partitioning for Hartree potential was not defined. Using partition_type for integrals.
  | Adjusted default value of keyword multip_moments_threshold to:       0.10000000E-11
  | This value may affect high angular momentum components of the Hartree potential in periodic systems.
  No q(lm)/r^(l+1) cutoff set for long-range Hartree potential.
  | Using default value of  0.100000E-09 .
  | Verify using the multipole_threshold keyword.
  Defaulting to new monopole extrapolation.
  Density update method: automatic selection selected.
------------------------------------------------------------


------------------------------------------------------------
          Reading geometry description geometry.in.
------------------------------------------------------------
 * Warning! You did not set the 'relativistic' flag in input file 'control.in'.
 * Since you are not attempting to treat any elements beyond Ca(Z=20), FHI-aims
 * will default to 'relativistic none'.
 * You must ensure that this is really what you want!!
 * For example, DO NOT compute total-energy differences between results from
 * different settings of the 'relativistic' flag.
  Input structure read successfully.
  The structure contains       32 atoms,  and a total of        116.000 electrons.

  Input geometry:
  | No unit cell requested.
  | Atomic structure:
  |       Atom                x [A]            y [A]            z [A]
  |    1: Species C              0.302587        -1.262129         0.739592
  |    2: Species C             -0.110599        -0.095450         1.617306
  |    3: Species O              0.643405         0.847036         1.858958
  |    4: Species H             -0.483341        -2.016064         0.609205
  |    5: Species H              1.187009        -1.738071         1.181117
  |    6: Species H              0.596038        -0.876436        -0.244470
  |    7: Species N             -1.379906        -0.159922         2.118120
  |    8: Species C             -1.898524         0.839855         3.028417
  |    9: Species C             -2.946739         0.151008         3.909360
  |   10: Species O             -3.545864        -0.864373         3.525348
  |   11: Species H             -1.970809        -0.976576         1.983233
  |   12: Species H             -1.057230         1.201392         3.640478
  |   13: Species C             -2.522445         2.038155         2.286647
  |   14: Species H             -2.885892         2.800466         2.989016
  |   15: Species H             -3.364940         1.706715         1.665687
  |   16: Species H             -1.762623         2.495534         1.642325
  |   17: Species N             -3.194893         0.744637         5.100147
  |   18: Species C             -4.208757         0.264258         6.045345
  |   19: Species C             -5.612031         0.801296         5.642768
  |   20: Species O             -6.162135         1.717479         6.248991
  |   21: Species H             -2.697008         1.596966         5.336400
  |   22: Species H             -4.218662        -0.831397         5.947194
  |   23: Species C             -3.841286         0.668698         7.464123
  |   24: Species H             -4.570101         0.260341         8.173530
  |   25: Species H             -3.861221         1.760472         7.578726
  |   26: Species H             -2.845666         0.288624         7.726300
  |   27: Species N             -6.138212         0.159697         4.564708
  |   28: Species C             -7.388384         0.563452         3.950475
  |   29: Species H             -5.531262        -0.505483         4.083250
  |   30: Species H             -8.027224        -0.310294         3.766591
  |   31: Species H             -7.222195         1.085577         2.995918
  |   32: Species H             -7.899592         1.245907         4.637600
  |

  | The smallest distance between any two atoms is         1.01497235 AA.
  |
  | The first atom of this pair is atom number                     17 .
  | The second atom of this pair is atom number                    21 .

  Number of empty states per atom not set in control.in - providing a guess from actual geometry.
  | Total number of empty states used during s.c.f. cycle:       71
  If you use a very high smearing, use empty_states (per atom!) in control.in to increase this value.

  Structure-dependent array size parameters: 
  | Maximum number of distinct radial functions  :       40
  | Maximum number of basis functions            :      840
  | Number of Kohn-Sham states (occupied + empty):      129
------------------------------------------------------------

------------------------------------------------------------
          Preparing all fixed parts of the calculation.
------------------------------------------------------------
  Determining machine precision:
    2.225073858507201E-308
  Setting up grids for atomic and cluster calculations.

  Creating wave function, potential, and density for free atoms.

  Species: H

  List of occupied orbitals and eigenvalues:
    n    l              occ      energy [Ha]    energy [eV]
    1    0           1.0000        -0.238382        -6.4867


  Species: C

  List of occupied orbitals and eigenvalues:
    n    l              occ      energy [Ha]    energy [eV]
    1    0           2.0000       -10.041232      -273.2358
    2    0           2.0000        -0.504327       -13.7234
    2    1           2.0000        -0.193750        -5.2722


  Species: N

  List of occupied orbitals and eigenvalues:
    n    l              occ      energy [Ha]    energy [eV]
    1    0           2.0000       -14.129007      -384.4699
    2    0           2.0000        -0.681802       -18.5528
    2    1           3.0000        -0.260543        -7.0897


  Species: O

  List of occupied orbitals and eigenvalues:
    n    l              occ      energy [Ha]    energy [eV]
    1    0           2.0000       -18.898576      -514.2564
    2    0           2.0000        -0.878795       -23.9132
    2    1           4.0000        -0.332075        -9.0362

  Creating fixed part of basis set: Ionic, confined, hydrogenic.
 
  H                    hydrogenic:
 
  List of hydrogenic basis orbitals: 
    n    l      effective z      eigenvalue [eV]  inner max. [A]     outer max. [A]     outer radius [A]   
    2    0         2.100000       -14.9965           0.193243           1.317208           5.373006
    2    1         3.500000       -41.6672           0.602369           0.602369           4.056063
    1    0         0.850000        -9.8292           0.624871           0.624871           5.373006
    2    1         3.700000       -46.5653           0.573622           0.573622           3.910002
    2    0         1.200000        -4.5995           0.334980           2.228188           5.505995
    3    2         7.000000       -74.0753           0.680699           0.680699           3.769201
 
 
  C                    hydrogenic:
 
  List of hydrogenic basis orbitals: 
    n    l      effective z      eigenvalue [eV]  inner max. [A]     outer max. [A]     outer radius [A]   
    2    1         1.700000        -9.8152           1.245706           1.245706           5.401630
    3    2         6.000000       -54.4226           0.792453           0.792453           4.178599
    2    0         4.900000       -81.6681           0.082559           0.562749           3.353238
    4    3         9.800000       -81.6681           0.863254           0.863254           4.028125
    3    1         5.200000       -40.8774           0.305389           1.215618           4.898362
    3    0         4.300000       -27.9508           0.091041           1.610311           5.401630
    5    4        14.400000      -112.8510           0.917666           0.917666           3.883070
    3    2         6.200000       -58.1113           0.763917           0.763917           4.077671
 
 
  N                    hydrogenic:
 
  List of hydrogenic basis orbitals: 
    n    l      effective z      eigenvalue [eV]  inner max. [A]     outer max. [A]     outer radius [A]   
    2    1         1.800000       -11.0118           1.177451           1.177451           5.427479
    3    2         6.800000       -69.9029           0.704619           0.704619           3.854246
    3    0         5.800000       -50.8549           0.067388           1.191934           4.629968
    4    3        10.800000       -99.1854           0.786571           0.786571           3.761152
    3    1         5.800000       -50.8549           0.274880           1.094176           4.518138
    1    0         0.800000        -8.7059           0.662839           0.662839           5.361532
    5    4        16.000000      -139.3222           0.825990           0.825990           3.625711
    3    2         4.900000       -36.2967           0.968267           0.968267           4.862000
 
 
  O                    hydrogenic:
 
  List of hydrogenic basis orbitals: 
    n    l      effective z      eigenvalue [eV]  inner max. [A]     outer max. [A]     outer radius [A]   
    2    1         1.800000       -11.0118           1.178562           1.178562           5.432602
    3    2         7.600000       -87.3182           0.624125           0.624125           3.541477
    3    0         6.400000       -61.9209           0.061167           1.081902           4.306578
    4    3        11.600000      -114.4238           0.731631           0.731631           3.585037
    3    1         6.200000       -58.1113           0.255680           1.030270           4.306578
    3    2         5.600000       -47.4081           0.847233           0.847233           4.413171
    5    4        17.600000      -168.5799           0.749740           0.749740           3.372465
    1    0         0.750000        -7.6499           0.705284           0.705284           5.366593
 

  Adding cutoff potential to free-atom effective potential.
  Creating atomic-like basis functions for current effective potential.

  Species H                   :

  List of atomic basis orbitals and eigenvalues:
    n    l      energy [Ha]    energy [eV]    outer radius [A]
    1    0        -0.238382        -6.4867       5.373006


  Species C                   :

  List of atomic basis orbitals and eigenvalues:
    n    l      energy [Ha]    energy [eV]    outer radius [A]
    1    0       -10.041232      -273.2358       1.934409
    2    0        -0.504327       -13.7234       5.271162
    2    1        -0.193750        -5.2722       5.401630


  Species N                   :

  List of atomic basis orbitals and eigenvalues:
    n    l      energy [Ha]    energy [eV]    outer radius [A]
    1    0       -14.129007      -384.4699       1.637919
    2    0        -0.681802       -18.5528       5.168461
    2    1        -0.260543        -7.0897       5.361532


  Species O                   :

  List of atomic basis orbitals and eigenvalues:
    n    l      energy [Ha]    energy [eV]    outer radius [A]
    1    0       -18.898576      -514.2564       1.415765
    2    0        -0.878795       -23.9132       5.048385
    2    1        -0.332075        -9.0362       5.301386

  Assembling full basis from fixed parts.
  | Species H :   atomic orbital   1 s accepted.
  | Species H :    hydro orbital   2 s accepted.
  | Species H :    hydro orbital   1 s accepted.
  | Species H :    hydro orbital   2 s accepted.
  | Species H :    hydro orbital   2 p accepted.
  | Species H :    hydro orbital   2 p accepted.
  | Species H :    hydro orbital   3 d accepted.
  | Species C :   atomic orbital   1 s accepted.
  | Species C :    hydro orbital   2 s accepted.
  | Species C :   atomic orbital   2 s accepted.
  | Species C :    hydro orbital   3 s accepted.
  | Species C :    hydro orbital   3 p accepted.
  | Species C :   atomic orbital   2 p accepted.
  | Species C :    hydro orbital   2 p accepted.
  | Species C :    hydro orbital   3 d accepted.
  | Species C :    hydro orbital   3 d accepted.
  | Species C :    hydro orbital   4 f accepted.
  | Species C :    hydro orbital   5 g accepted.
  | Species N :   atomic orbital   1 s accepted.
  | Species N :    hydro orbital   3 s accepted.
  | Species N :   atomic orbital   2 s accepted.
  | Species N :    hydro orbital   1 s accepted.
  | Species N :    hydro orbital   3 p accepted.
  | Species N :   atomic orbital   2 p accepted.
  | Species N :    hydro orbital   2 p accepted.
  | Species N :    hydro orbital   3 d accepted.
  | Species N :    hydro orbital   3 d accepted.
  | Species N :    hydro orbital   4 f accepted.
  | Species N :    hydro orbital   5 g accepted.
  | Species O :   atomic orbital   1 s accepted.
  | Species O :    hydro orbital   3 s accepted.
  | Species O :   atomic orbital   2 s accepted.
  | Species O :    hydro orbital   1 s accepted.
  | Species O :    hydro orbital   3 p accepted.
  | Species O :   atomic orbital   2 p accepted.
  | Species O :    hydro orbital   2 p accepted.
  | Species O :    hydro orbital   3 d accepted.
  | Species O :    hydro orbital   3 d accepted.
  | Species O :    hydro orbital   4 f accepted.
  | Species O :    hydro orbital   5 g accepted.
 
  Basis size parameters after reduction:
  | Total number of radial functions:       40
  | Total number of basis functions :      840
 
  Testing on-site integration grid accuracy.
  |  Species  Function  <phi|h_atom|phi> (log., in eV)  <phi|h_atom|phi> (rad., in eV)
           1        1                 -6.4869821809                 -6.4870742227
           1        2                 13.5044133542                 13.5041049177
           1        3                 32.7854418792                 32.7779770519
           1        4                 33.7995553101                 33.7152624900 ***
           1        5                 28.8558651799                 28.8558652046
           1        6                 59.6361831893                 59.6362535845
           1        7                 60.2733718049                 60.2733715484
           2        8               -273.2358277112               -273.2358261765
           2        9                -10.7624923123                -10.7625144012
           2       10                 17.4634079027                 17.4634252127
           2       11                 53.0363661832                 53.0366180446
           2       12                 15.0981351967                 15.0981317714
           2       13                  3.8522181899                  3.8522770949
           2       14                 12.1181835661                 12.1206868578
           2       15                 29.4320778347                 29.4320780959
           2       16                 54.8753777694                 54.8752901936
           2       17                 59.3533975461                 59.3533974833
           2       18                 93.4537491195                 93.4537492066
           3       19               -384.4698526889               -384.4698499465
           3       20                 12.5691022037                 12.5690910168
           3       21                -15.7489097511                -15.7489165588
           3       22                 27.0978334940                 27.0985589490
           3       23                 18.5949116966                 18.5949125562
           3       24                  1.2212828291                  1.2212855301
           3       25                 13.4428926797                 13.4434051125
           3       26                 35.9380614500                 35.9380613666
           3       27                 39.9231532098                 39.9231654735
           3       28                 72.9957335806                 72.9957336833
           3       29                116.4231321147                116.4231321431
           4       30               -514.2564144315               -514.2564099626
           4       31                 15.1726678541                 15.1726530877
           4       32                -21.5447785304                -21.5447874973
           4       33                 14.4944558459                 14.4944698284
           4       34                 20.8882174564                 20.8882178906
           4       35                 -2.4850315908                 -2.4850322289
           4       36                 13.8600193195                 13.8599826966
           4       37                 45.8243383616                 45.8243383675
           4       38                 52.1840606465                 52.1840622440
           4       39                 85.4074185510                 85.4074185819
           4       40                142.0983717302                142.0983717339
 * Note: Onsite integrals marked "***" above are less accurate than
 * onsite_accuracy_threshold =    0.03000 eV. Usually, this is harmless.
 * When in doubt, tighten the "radial" and/or "radial_multiplier" flags to check.

  Preparing densities etc. for the partition functions (integrals / Hartree potential).

  Preparations completed.
  max(cpu_time)          :      0.236 s.
  Wall clock time (cpu1) :      0.237 s.
------------------------------------------------------------

------------------------------------------------------------
          Begin self-consistency loop: Initialization.

          Date     :  20170309, Time     :  180926.358
------------------------------------------------------------

  Initializing index lists of integration centers etc. from given atomic structure:
  | Number of centers in hartree potential         :        32
  | Number of centers in hartree multipole         :        32
  | Number of centers in electron density summation:        32
  | Number of centers in basis integrals           :        32
  | Number of centers in integrals                 :        32
  | Number of centers in hamiltonian               :        32
  Using modified Scalapack Eigenvalue solver (ELPA)
  * Using 32 tasks for Scalapack Eigenvalue solver.
  Detailed listing of tasks and assigned k-points:
  (for non-periodic systems, the "k-point" denotes an internal label only)
   Task     0 k-point     1 on eos383
   Task     1 k-point     1 on eos383
   Task     2 k-point     1 on eos383
   Task     3 k-point     1 on eos383
   Task     4 k-point     1 on eos383
   Task     5 k-point     1 on eos383
   Task     6 k-point     1 on eos383
   Task     7 k-point     1 on eos383
   Task     8 k-point     1 on eos383
   Task     9 k-point     1 on eos383
   Task    10 k-point     1 on eos383
   Task    11 k-point     1 on eos383
   Task    12 k-point     1 on eos383
   Task    13 k-point     1 on eos383
   Task    14 k-point     1 on eos383
   Task    15 k-point     1 on eos383
   Task    16 k-point     1 on eos383
   Task    17 k-point     1 on eos383
   Task    18 k-point     1 on eos383
   Task    19 k-point     1 on eos383
   Task    20 k-point     1 on eos383
   Task    21 k-point     1 on eos383
   Task    22 k-point     1 on eos383
   Task    23 k-point     1 on eos383
   Task    24 k-point     1 on eos383
   Task    25 k-point     1 on eos383
   Task    26 k-point     1 on eos383
   Task    27 k-point     1 on eos383
   Task    28 k-point     1 on eos383
   Task    29 k-point     1 on eos383
   Task    30 k-point     1 on eos383
   Task    31 k-point     1 on eos383
  Tasks:    32 split into      8 X      4 BLACS grid
  Calculating blocksize based on n_basis =          840 max_nprow =            8 max_npcol =            4
  Scalapack blocksize set to:           16
  Required Scalapack workspace - INTEGER:            1 REAL:             1
  Partitioning the integration grid into batches with parallel hashing+maxmin method.
  | Number of batches:     5136
  | Maximal batch size:     198
  | Minimal batch size:      17
  | Average batch size:     102.751
  | Standard deviation of batch sizes:      32.321

  Integration load balanced across    32 MPI tasks.
  Work distribution over tasks is as follows:
  Task     0 has      16553 integration points.
  Task     1 has      16553 integration points.
  Task     2 has      16503 integration points.
  Task     3 has      16505 integration points.
  Task     4 has      16511 integration points.
  Task     5 has      16432 integration points.
  Task     6 has      16551 integration points.
  Task     7 has      16424 integration points.
  Task     8 has      16454 integration points.
  Task     9 has      16504 integration points.
  Task    10 has      16551 integration points.
  Task    11 has      16494 integration points.
  Task    12 has      16514 integration points.
  Task    13 has      16423 integration points.
  Task    14 has      16450 integration points.
  Task    15 has      16509 integration points.
  Task    16 has      16423 integration points.
  Task    17 has      16462 integration points.
  Task    18 has      16547 integration points.
  Task    19 has      16558 integration points.
  Task    20 has      16425 integration points.
  Task    21 has      16456 integration points.
  Task    22 has      16467 integration points.
  Task    23 has      16500 integration points.
  Task    24 has      16553 integration points.
  Task    25 has      16469 integration points.
  Task    26 has      16426 integration points.
  Task    27 has      16506 integration points.
  Task    28 has      16442 integration points.
  Task    29 has      16495 integration points.
  Task    30 has      16518 integration points.
  Task    31 has      16550 integration points.
  Initializing partition tables, free-atom densities, potentials, etc. across the integration grid (initialize_grid_storage).
  | initialize_grid_storage: Actual outermost partition radius vs. multipole_radius_free
  | (-- VB: in principle, multipole_radius_free should be larger, hence this output)
  | Species        1: Confinement radius =              6.000000000000000 AA, multipole_radius_free =              6.071692442739658 AA.
  | Species        1: outer_partition_radius set to              6.071692442739658 AA .
  | Species        2: Confinement radius =              6.000000000000000 AA, multipole_radius_free =              6.029870734432609 AA.
  | Species        2: outer_partition_radius set to              6.029870734432609 AA .
  | Species        3: Confinement radius =              6.000000000000000 AA, multipole_radius_free =              6.058726835495003 AA.
  | Species        3: outer_partition_radius set to              6.058726835495003 AA .
  | Species        4: Confinement radius =              6.000000000000000 AA, multipole_radius_free =              6.064445521808699 AA.
  | Species        4: outer_partition_radius set to              6.064445521808699 AA .
  | Original list of interatomic distances with          32 x         32 entries is created.
  | Net number of integration points:   527728
  | of which are non-zero points    :   418418
  Obtaining max. number of non-zero basis functions in each batch (get_n_compute_maxes).
  | Maximal number of non-zero basis functions:      693 in task     0
  | Maximal number of non-zero basis functions:      693 in task     1
  | Maximal number of non-zero basis functions:      708 in task     2
  | Maximal number of non-zero basis functions:      693 in task     3
  | Maximal number of non-zero basis functions:      704 in task     4
  | Maximal number of non-zero basis functions:      710 in task     5
  | Maximal number of non-zero basis functions:      697 in task     6
  | Maximal number of non-zero basis functions:      700 in task     7
  | Maximal number of non-zero basis functions:      718 in task     8
  | Maximal number of non-zero basis functions:      684 in task     9
  | Maximal number of non-zero basis functions:      689 in task    10
  | Maximal number of non-zero basis functions:      688 in task    11
  | Maximal number of non-zero basis functions:      705 in task    12
  | Maximal number of non-zero basis functions:      684 in task    13
  | Maximal number of non-zero basis functions:      704 in task    14
  | Maximal number of non-zero basis functions:      698 in task    15
  | Maximal number of non-zero basis functions:      702 in task    16
  | Maximal number of non-zero basis functions:      716 in task    17
  | Maximal number of non-zero basis functions:      704 in task    18
  | Maximal number of non-zero basis functions:      687 in task    19
  | Maximal number of non-zero basis functions:      689 in task    20
  | Maximal number of non-zero basis functions:      694 in task    21
  | Maximal number of non-zero basis functions:      700 in task    22
  | Maximal number of non-zero basis functions:      704 in task    23
  | Maximal number of non-zero basis functions:      708 in task    24
  | Maximal number of non-zero basis functions:      683 in task    25
  | Maximal number of non-zero basis functions:      700 in task    26
  | Maximal number of non-zero basis functions:      692 in task    27
  | Maximal number of non-zero basis functions:      695 in task    28
  | Maximal number of non-zero basis functions:      708 in task    29
  | Maximal number of non-zero basis functions:      691 in task    30
  | Maximal number of non-zero basis functions:      707 in task    31
  Selecting the method for density update.
  Loop over occupied states selected for charge density update.
  Integrating Hamiltonian matrix: batch-based integration.
  Time summed over all CPUs for integration: real work       19.219 s, elapsed       20.349 s
  Integrating overlap matrix.
  Time summed over all CPUs for integration: real work       11.457 s, elapsed       12.016 s
  Deallocating overlap matrix.

  Updating Kohn-Sham eigenvalues, eigenvectors, occupation numbers, and Fermi level.
  Solving generalized eigenproblem
  Solving real symmetric generalised eigenvalue problem by standard ScaLAPACK.
  Transforming overlap matrix with ScaLAPACK and checking for singularities.
  : Overlap matrix is nonsingular, using Cholesky decomposition
  | Lowest eigenvalue:  0.884901E-04
  Factoring overlap matrix with Cholesky decomposition
  Using Cholesky factor for transformation
  Using 1-stage real ELPA solver
  Determining occupation numbers for Kohn-Sham eigenstates.
  | Chemical potential (Fermi level) in eV                 : -.96162368E+01
  | Error in electron count due to remaining E_F inaccuracy: 0.00000000E+00
  | Maximum occupation number of highest empty state:  0.00E+00

  Writing Kohn-Sham eigenvalues.

  State    Occupation    Eigenvalue [Ha]    Eigenvalue [eV]
      1       2.00000         -18.974241         -516.31536
      2       2.00000         -18.973538         -516.29625
      3       2.00000         -18.972900         -516.27887
      4       2.00000         -14.256122         -387.92881
      5       2.00000         -14.255902         -387.92284
      6       2.00000         -14.255551         -387.91328
      7       2.00000         -10.172027         -276.79494
      8       2.00000         -10.170912         -276.76460
      9       2.00000         -10.169964         -276.73881
     10       2.00000         -10.166754         -276.65145
     11       2.00000         -10.149659         -276.18627
     12       2.00000         -10.148207         -276.14677
     13       2.00000         -10.136325         -275.82344
     14       2.00000         -10.135455         -275.79977
     15       2.00000         -10.133978         -275.75958
     16       2.00000          -1.133156          -30.83473
     17       2.00000          -1.130543          -30.76364
     18       2.00000          -1.126076          -30.64209
     19       2.00000          -1.020396          -27.76639
     20       2.00000          -1.016179          -27.65164
     21       2.00000          -1.010269          -27.49083
     22       2.00000          -0.893856          -24.32306
     23       2.00000          -0.874008          -23.78297
     24       2.00000          -0.841138          -22.88854
     25       2.00000          -0.823906          -22.41962
     26       2.00000          -0.775992          -21.11582
     27       2.00000          -0.747776          -20.34801
     28       2.00000          -0.701876          -19.09900
     29       2.00000          -0.687872          -18.71796
     30       2.00000          -0.681615          -18.54769
     31       2.00000          -0.650083          -17.68966
     32       2.00000          -0.629656          -17.13381
     33       2.00000          -0.606106          -16.49299
     34       2.00000          -0.601222          -16.36008
     35       2.00000          -0.591612          -16.09859
     36       2.00000          -0.585908          -15.94337
     37       2.00000          -0.573019          -15.59263
     38       2.00000          -0.560533          -15.25288
     39       2.00000          -0.558403          -15.19492
     40       2.00000          -0.555132          -15.10591
     41       2.00000          -0.548734          -14.93180
     42       2.00000          -0.538742          -14.65993
     43       2.00000          -0.534567          -14.54630
     44       2.00000          -0.530717          -14.44155
     45       2.00000          -0.516525          -14.05537
     46       2.00000          -0.513493          -13.97287
     47       2.00000          -0.509318          -13.85923
     48       2.00000          -0.504069          -13.71641
     49       2.00000          -0.496900          -13.52132
     50       2.00000          -0.487478          -13.26496
     51       2.00000          -0.481806          -13.11059
     52       2.00000          -0.473019          -12.87150
     53       2.00000          -0.417566          -11.36254
     54       2.00000          -0.406824          -11.07025
     55       2.00000          -0.400922          -10.90964
     56       2.00000          -0.390560          -10.62768
     57       2.00000          -0.385010          -10.47667
     58       2.00000          -0.377461          -10.27124
     59       0.00000          -0.170084           -4.62822
     60       0.00000          -0.159012           -4.32693
     61       0.00000          -0.149161           -4.05887
     62       0.00000          -0.077359           -2.10504
     63       0.00000          -0.062252           -1.69395
     64       0.00000          -0.057919           -1.57606
     65       0.00000          -0.049748           -1.35371
     66       0.00000          -0.044433           -1.20909
     67       0.00000          -0.040940           -1.11403
     68       0.00000          -0.032448           -0.88296
     69       0.00000          -0.028622           -0.77885
     70       0.00000          -0.026682           -0.72606
     71       0.00000          -0.016211           -0.44113
     72       0.00000          -0.014641           -0.39841
     73       0.00000          -0.010322           -0.28087
     74       0.00000          -0.006732           -0.18320
     75       0.00000          -0.000720           -0.01958
     76       0.00000           0.001356            0.03690
     77       0.00000           0.002254            0.06134
     78       0.00000           0.007239            0.19699
     79       0.00000           0.009040            0.24600
     80       0.00000           0.015376            0.41840
     81       0.00000           0.021491            0.58480
     82       0.00000           0.026485            0.72070
     83       0.00000           0.030780            0.83756
     84       0.00000           0.040926            1.11365
     85       0.00000           0.043743            1.19031
     86       0.00000           0.046035            1.25269
     87       0.00000           0.053876            1.46603
     88       0.00000           0.057241            1.55760
     89       0.00000           0.059037            1.60648
     90       0.00000           0.061690            1.67868
     91       0.00000           0.072458            1.97169
     92       0.00000           0.076493            2.08147
     93       0.00000           0.079157            2.15397
     94       0.00000           0.087849            2.39050
     95       0.00000           0.094947            2.58364
     96       0.00000           0.097269            2.64683
     97       0.00000           0.098614            2.68341
     98       0.00000           0.106079            2.88657
     99       0.00000           0.114966            3.12838
    100       0.00000           0.125469            3.41419
    101       0.00000           0.128906            3.50770
    102       0.00000           0.133434            3.63092
    103       0.00000           0.135948            3.69932
    104       0.00000           0.143579            3.90699
    105       0.00000           0.146758            3.99350
    106       0.00000           0.149926            4.07969
    107       0.00000           0.153039            4.16441
    108       0.00000           0.159081            4.32882
    109       0.00000           0.160773            4.37485
    110       0.00000           0.164041            4.46379
    111       0.00000           0.173451            4.71985
    112       0.00000           0.174906            4.75944
    113       0.00000           0.182971            4.97889
    114       0.00000           0.189497            5.15647
    115       0.00000           0.194373            5.28916
    116       0.00000           0.201161            5.47386
    117       0.00000           0.202451            5.50898
    118       0.00000           0.204340            5.56036
    119       0.00000           0.210761            5.73509
    120       0.00000           0.213999            5.82321
    121       0.00000           0.219037            5.96029
    122       0.00000           0.221696            6.03267
    123       0.00000           0.224106            6.09823
    124       0.00000           0.232349            6.32254
    125       0.00000           0.233742            6.36045
    126       0.00000           0.239441            6.51553
    127       0.00000           0.247909            6.74594
    128       0.00000           0.258968            7.04689
    129       0.00000           0.265261            7.21812

  Highest occupied state (VBM) at    -10.27123783 eV
  | Occupation number:      2.00000000

  Lowest unoccupied state (CBM) at    -4.62821541 eV
  | Occupation number:      0.00000000

  Overall HOMO-LUMO gap:      5.64302243 eV.
  Calculating total energy contributions from superposition of free atom densities.

  Total energy components:
  | Sum of eigenvalues            :        -437.92316026 Ha      -11916.49549526 eV
  | XC energy correction          :         -98.81705219 Ha       -2688.94880216 eV
  | XC potential correction       :         127.01602121 Ha        3456.28179079 eV
  | Free-atom electrostatic energy:        -333.58149987 Ha       -9077.21445499 eV
  | Hartree energy correction     :           0.00000000 Ha           0.00000000 eV
  | MBD@rsSCS energy              :           0.00000000 Ha           0.00000000 eV
  | Entropy correction            :          -0.00000000 Ha          -0.00000000 eV
  | ---------------------------
  | Total energy                  :        -743.30569110 Ha      -20226.37696163 eV
  | Total energy, T -> 0          :        -743.30569110 Ha      -20226.37696163 eV  <-- do not rely on this value for anything but (periodic) metals
  | Electronic free energy        :        -743.30569110 Ha      -20226.37696163 eV

  Derived energy quantities:
  | Kinetic energy                :         735.14880054 Ha       20004.41667611 eV
  | Electrostatic energy          :       -1379.63743945 Ha      -37541.84483558 eV
  | Energy correction for multipole
  | error in Hartree potential    :           0.00000000 Ha           0.00000000 eV
  | Sum of eigenvalues per atom                           :        -372.39048423 eV
  | Total energy (T->0) per atom                          :        -632.07428005 eV  <-- do not rely on this value for anything but (periodic) metals
  | Electronic free energy per atom                       :        -632.07428005 eV
  Initialize hartree_potential_storage
  Max. number of atoms included in rho_multipole:           32

  End scf initialization - timings             :  max(cpu_time)    wall_clock(cpu1)
  | Time for scf. initialization               :        1.748 s           1.747 s
  | Boundary condition initialization          :        0.000 s           0.000 s
  | Integration                                :        1.036 s           1.032 s
  | Solution of K.-S. eqns.                    :        0.076 s           0.075 s
  | Grid partitioning                          :        0.312 s           0.309 s
  | Preloading free-atom quantities on grid    :        0.028 s           0.028 s
  | Free-atom superposition energy             :        0.040 s           0.037 s
  | Total energy evaluation                    :        0.004 s           0.001 s
------------------------------------------------------------

------------------------------------------------------------
          Begin self-consistency iteration #    1

  Date     :  20170309, Time     :  180928.107
------------------------------------------------------------
  Evaluating new KS density.
  Integration grid: deviation in total charge (<rho> - N_e) =   1.421085E-14
  Pulay mixing of updated and previous charge densities.

  Evaluating partitioned Hartree potential by multipole expansion.
  | Analytical far-field extrapolation by fixed multipoles:
  | Hartree multipole sum: apparent total charge =  -0.327372E-05
  Summing up the Hartree potential.
  Time summed over all CPUs for potential: real work        9.470 s, elapsed        9.703 s
  | RMS charge density error from multipole expansion :   0.106438E-01

  Integrating Hamiltonian matrix: batch-based integration.
  Time summed over all CPUs for integration: real work       18.987 s, elapsed       19.962 s

  Updating Kohn-Sham eigenvalues, eigenvectors, occupation numbers, and Fermi level.
  Solving generalized eigenproblem
  Solving real symmetric generalised eigenvalue problem by standard ScaLAPACK.
  Using Cholesky factor for transformation
  Using 2-stage real ELPA solver
  K-Point:    1, Trafo times: 1-stage=     0.021 s, 2-stage=     0.019 s ==> Using 2-stage solver
  Determining occupation numbers for Kohn-Sham eigenstates.
  | Chemical potential (Fermi level) in eV                 : -.41078377E+01
  | Error in electron count due to remaining E_F inaccuracy: 0.00000000E+00
  | Maximum occupation number of highest empty state:  0.00E+00

  Writing Kohn-Sham eigenvalues.

  State    Occupation    Eigenvalue [Ha]    Eigenvalue [eV]
      1       2.00000         -18.656061         -507.65725
      2       2.00000         -18.611764         -506.45187
      3       2.00000         -18.605177         -506.27263
      4       2.00000         -14.013306         -381.32146
      5       2.00000         -13.982293         -380.47755
      6       2.00000         -13.976154         -380.31050
      7       2.00000         -10.075775         -274.17578
      8       2.00000         -10.044851         -273.33430
      9       2.00000         -10.044134         -273.31480
     10       2.00000          -9.965261         -271.16856
     11       2.00000          -9.963780         -271.12824
     12       2.00000          -9.876776         -268.76075
     13       2.00000          -9.845141         -267.89992
     14       2.00000          -9.835888         -267.64814
     15       2.00000          -9.835400         -267.63484
     16       2.00000          -0.988092          -26.88736
     17       2.00000          -0.952557          -25.92038
     18       2.00000          -0.949638          -25.84095
     19       2.00000          -0.886055          -24.11079
     20       2.00000          -0.860471          -23.41460
     21       2.00000          -0.851718          -23.17641
     22       2.00000          -0.753559          -20.50538
     23       2.00000          -0.722700          -19.66567
     24       2.00000          -0.683338          -18.59457
     25       2.00000          -0.671492          -18.27224
     26       2.00000          -0.632812          -17.21970
     27       2.00000          -0.606493          -16.50352
     28       2.00000          -0.582546          -15.85189
     29       2.00000          -0.556535          -15.14409
     30       2.00000          -0.546826          -14.87989
     31       2.00000          -0.522222          -14.21039
     32       2.00000          -0.493520          -13.42936
     33       2.00000          -0.475959          -12.95150
     34       2.00000          -0.458076          -12.46489
     35       2.00000          -0.444883          -12.10587
     36       2.00000          -0.436668          -11.88235
     37       2.00000          -0.433669          -11.80073
     38       2.00000          -0.420003          -11.42887
     39       2.00000          -0.418696          -11.39329
     40       2.00000          -0.398468          -10.84288
     41       2.00000          -0.395085          -10.75080
     42       2.00000          -0.391228          -10.64586
     43       2.00000          -0.381934          -10.39294
     44       2.00000          -0.372156          -10.12687
     45       2.00000          -0.368216          -10.01966
     46       2.00000          -0.365259           -9.93921
     47       2.00000          -0.362714           -9.86994
     48       2.00000          -0.356586           -9.70319
     49       2.00000          -0.350756           -9.54456
     50       2.00000          -0.349080           -9.49895
     51       2.00000          -0.342109           -9.30925
     52       2.00000          -0.325209           -8.84938
     53       2.00000          -0.263743           -7.17681
     54       2.00000          -0.247210           -6.72693
     55       2.00000          -0.227521           -6.19115
     56       2.00000          -0.224976           -6.12190
     57       2.00000          -0.206428           -5.61718
     58       2.00000          -0.203318           -5.53256
     59       0.00000          -0.066406           -1.80700
     60       0.00000          -0.042219           -1.14884
     61       0.00000          -0.033355           -0.90763
     62       0.00000          -0.031679           -0.86202
     63       0.00000          -0.021471           -0.58426
     64       0.00000          -0.015497           -0.42170
     65       0.00000          -0.009289           -0.25275
     66       0.00000           0.009321            0.25363
     67       0.00000           0.010279            0.27971
     68       0.00000           0.016331            0.44439
     69       0.00000           0.021969            0.59782
     70       0.00000           0.031220            0.84954
     71       0.00000           0.033681            0.91651
     72       0.00000           0.040613            1.10515
     73       0.00000           0.041319            1.12435
     74       0.00000           0.046922            1.27681
     75       0.00000           0.052229            1.42122
     76       0.00000           0.057238            1.55752
     77       0.00000           0.062923            1.71222
     78       0.00000           0.071277            1.93954
     79       0.00000           0.078195            2.12779
     80       0.00000           0.083089            2.26096
     81       0.00000           0.090284            2.45676
     82       0.00000           0.094595            2.57406
     83       0.00000           0.097428            2.65115
     84       0.00000           0.101211            2.75409
     85       0.00000           0.107682            2.93018
     86       0.00000           0.117550            3.19868
     87       0.00000           0.118360            3.22075
     88       0.00000           0.122161            3.32418
     89       0.00000           0.123550            3.36196
     90       0.00000           0.133848            3.64218
     91       0.00000           0.136569            3.71623
     92       0.00000           0.142071            3.86595
     93       0.00000           0.148402            4.03824
     94       0.00000           0.152665            4.15424
     95       0.00000           0.160581            4.36962
     96       0.00000           0.165904            4.51448
     97       0.00000           0.168331            4.58053
     98       0.00000           0.174096            4.73739
     99       0.00000           0.188336            5.12487
    100       0.00000           0.189275            5.15042
    101       0.00000           0.192434            5.23639
    102       0.00000           0.196095            5.33602
    103       0.00000           0.201888            5.49366
    104       0.00000           0.205706            5.59754
    105       0.00000           0.212017            5.76926
    106       0.00000           0.213215            5.80188
    107       0.00000           0.216527            5.89201
    108       0.00000           0.218409            5.94321
    109       0.00000           0.223230            6.07441
    110       0.00000           0.227137            6.18070
    111       0.00000           0.231338            6.29503
    112       0.00000           0.238017            6.47678
    113       0.00000           0.243287            6.62019
    114       0.00000           0.247655            6.73903
    115       0.00000           0.254398            6.92251
    116       0.00000           0.258403            7.03151
    117       0.00000           0.260892            7.09923
    118       0.00000           0.268167            7.29719
    119       0.00000           0.273307            7.43705
    120       0.00000           0.276148            7.51438
    121       0.00000           0.281132            7.64999
    122       0.00000           0.287716            7.82915
    123       0.00000           0.291561            7.93379
    124       0.00000           0.295421            8.03881
    125       0.00000           0.300028            8.16416
    126       0.00000           0.309782            8.42960
    127       0.00000           0.329269            8.95988
    128       0.00000           0.332498            9.04773
    129       0.00000           0.336700            9.16207

  Highest occupied state (VBM) at     -5.53255788 eV
  | Occupation number:      2.00000000

  Lowest unoccupied state (CBM) at    -1.80700393 eV
  | Occupation number:      0.00000000

  Overall HOMO-LUMO gap:      3.72555396 eV.

  Total energy components:
  | Sum of eigenvalues            :        -417.62456321 Ha      -11364.14256629 eV
  | XC energy correction          :        -100.75907254 Ha       -2741.79386473 eV
  | XC potential correction       :         129.53562917 Ha        3524.84381188 eV
  | Free-atom electrostatic energy:        -333.58149987 Ha       -9077.21445499 eV
  | Hartree energy correction     :         -20.30287318 Ha        -552.46928857 eV
  | MBD@rsSCS energy              :           0.00000000 Ha           0.00000000 eV
  | Entropy correction            :           0.00000000 Ha           0.00000000 eV
  | ---------------------------
  | Total energy                  :        -742.73237963 Ha      -20210.77636270 eV
  | Total energy, T -> 0          :        -742.73237963 Ha      -20210.77636270 eV  <-- do not rely on this value for anything but (periodic) metals
  | Electronic free energy        :        -742.73237963 Ha      -20210.77636270 eV

  Derived energy quantities:
  | Kinetic energy                :         744.05604436 Ha       20246.79511262 eV
  | Electrostatic energy          :       -1386.02935145 Ha      -37715.77761059 eV
  | Energy correction for multipole
  | error in Hartree potential    :          -0.04078825 Ha          -1.10990482 eV
  | Sum of eigenvalues per atom                           :        -355.12945520 eV
  | Total energy (T->0) per atom                          :        -631.58676133 eV  <-- do not rely on this value for anything but (periodic) metals
  | Electronic free energy per atom                       :        -631.58676133 eV

  Self-consistency convergence accuracy:
  | Change of charge density      :  0.9013E+00
  | Change of sum of eigenvalues  :  0.5524E+03 eV
  | Change of total energy        :  0.1560E+02 eV

  End self-consistency iteration #     1       :  max(cpu_time)    wall_clock(cpu1)
  | Time for this iteration                    :        1.440 s           1.436 s
[...]
   Multipole                     :  0.255971E+00 -0.422446E+00 -0.333026E+00
   Pulay + GGA                   :  0.556540E+01 -0.981113E+01 -0.685325E+01
   MBD@rsSCS                     :  0.154139E-01 -0.130842E-01 -0.626587E-02
   ----------------------------------------------------------------
   Total forces(  20)            :  0.129275E-01 -0.137150E-01  0.413009E-02
  atom #   21
   Hellmann-Feynman              : -0.217114E-01 -0.311309E-01 -0.101006E-01
   Ionic forces                  :  0.000000E+00  0.000000E+00  0.000000E+00
   Multipole                     : -0.137457E-01 -0.141394E-01  0.675211E-02
   Pulay + GGA                   :  0.363113E-01  0.504125E-01  0.899605E-02
   MBD@rsSCS                     : -0.309195E-02  0.219545E-03 -0.185985E-02
   ----------------------------------------------------------------
   Total forces(  21)            : -0.223764E-02  0.536173E-02  0.378775E-02
  atom #   22
   Hellmann-Feynman              :  0.211917E-01  0.537639E-01 -0.106922E-01
   Ionic forces                  :  0.000000E+00  0.000000E+00  0.000000E+00
   Multipole                     : -0.148477E-01  0.530630E-02  0.140659E-01
   Pulay + GGA                   : -0.594537E-02 -0.590324E-01 -0.271151E-02
   MBD@rsSCS                     : -0.874116E-03  0.392669E-02 -0.546027E-02
   ----------------------------------------------------------------
   Total forces(  22)            : -0.475483E-03  0.396452E-02 -0.479809E-02
  atom #   23
   Hellmann-Feynman              :  0.262544E+00  0.375873E+00  0.973515E+00
   Ionic forces                  :  0.000000E+00  0.000000E+00  0.000000E+00
   Multipole                     : -0.718373E-01 -0.157133E+00 -0.209073E+00
   Pulay + GGA                   : -0.192691E+00 -0.212137E+00 -0.754910E+00
   MBD@rsSCS                     :  0.188169E-04  0.220020E-02 -0.972219E-02
   ----------------------------------------------------------------
   Total forces(  23)            : -0.196571E-02  0.880263E-02 -0.190288E-03
  atom #   24
   Hellmann-Feynman              : -0.726084E-03  0.227573E-01 -0.661011E-01
   Ionic forces                  :  0.000000E+00  0.000000E+00  0.000000E+00
   Multipole                     :  0.275410E-01  0.179426E-01  0.132061E-01
   Pulay + GGA                   : -0.322434E-01 -0.395734E-01  0.456002E-01
   MBD@rsSCS                     : -0.342252E-02  0.289104E-03 -0.983496E-02
   ----------------------------------------------------------------
   Total forces(  24)            : -0.885102E-02  0.141560E-02 -0.171298E-01
  atom #   25
   Hellmann-Feynman              : -0.556620E-01 -0.413170E-01 -0.188937E-01
   Ionic forces                  :  0.000000E+00  0.000000E+00  0.000000E+00
   Multipole                     :  0.149173E-01 -0.193816E-01  0.104323E-01
   Pulay + GGA                   :  0.369945E-01  0.584479E-01 -0.468054E-02
   MBD@rsSCS                     : -0.269775E-02 -0.222436E-02 -0.120759E-01
   ----------------------------------------------------------------
   Total forces(  25)            : -0.644800E-02 -0.447502E-02 -0.252179E-01
  atom #   26
   Hellmann-Feynman              : -0.387508E-01 -0.117628E-01 -0.385405E-01
   Ionic forces                  :  0.000000E+00  0.000000E+00  0.000000E+00
   Multipole                     : -0.145041E-01  0.250740E-01  0.242393E-01
   Pulay + GGA                   :  0.532267E-01 -0.155072E-01  0.111083E-01
   MBD@rsSCS                     : -0.170092E-02 -0.149439E-03 -0.111883E-01
   ----------------------------------------------------------------
   Total forces(  26)            : -0.172912E-02 -0.234550E-02 -0.143811E-01
  atom #   27
   Hellmann-Feynman              :  0.569909E+00 -0.145896E+01  0.138816E+01
   Ionic forces                  :  0.000000E+00  0.000000E+00  0.000000E+00
   Multipole                     :  0.668157E-01  0.138829E+00  0.109298E+00
   Pulay + GGA                   : -0.622918E+00  0.131399E+01 -0.150191E+01
   MBD@rsSCS                     :  0.290750E-01  0.152604E-02  0.623180E-02
   ----------------------------------------------------------------
   Total forces(  27)            :  0.428820E-01 -0.462148E-02  0.177566E-02
  atom #   28
   Hellmann-Feynman              : -0.205364E+01  0.758725E+00 -0.669834E+00
   Ionic forces                  :  0.000000E+00  0.000000E+00  0.000000E+00
   Multipole                     :  0.134000E+00 -0.645779E-01  0.643017E-01
   Pulay + GGA                   :  0.190684E+01 -0.690205E+00  0.607926E+00
   MBD@rsSCS                     :  0.999869E-02  0.114372E-02  0.571845E-02
   ----------------------------------------------------------------
   Total forces(  28)            : -0.280651E-02  0.508651E-02  0.811122E-02
  atom #   29
   Hellmann-Feynman              :  0.994016E-02  0.300765E-01  0.227990E-01
   Ionic forces                  :  0.000000E+00  0.000000E+00  0.000000E+00
   Multipole                     : -0.505511E-01  0.642508E-02 -0.963185E-02
   Pulay + GGA                   :  0.393668E-01 -0.342065E-01 -0.130741E-01
   MBD@rsSCS                     :  0.241180E-02  0.780616E-02  0.426083E-02
   ----------------------------------------------------------------
   Total forces(  29)            :  0.116765E-02  0.101013E-01  0.435392E-02
  atom #   30
   Hellmann-Feynman              :  0.482529E-01  0.137080E-01  0.247992E-01
   Ionic forces                  :  0.000000E+00  0.000000E+00  0.000000E+00
   Multipole                     : -0.309261E-02  0.321032E-01 -0.864624E-02
   Pulay + GGA                   : -0.456265E-01 -0.478751E-01 -0.196694E-01
   MBD@rsSCS                     :  0.604729E-02  0.139985E-03  0.301837E-02
   ----------------------------------------------------------------
   Total forces(  30)            :  0.558106E-02 -0.192387E-02 -0.498017E-03
  atom #   31
   Hellmann-Feynman              :  0.276369E-01 -0.165809E-01  0.453609E-01
   Ionic forces                  :  0.000000E+00  0.000000E+00  0.000000E+00
   Multipole                     : -0.267091E-01 -0.167351E-01  0.171770E-01
   Pulay + GGA                   : -0.213111E-02  0.302460E-01 -0.639288E-01
   MBD@rsSCS                     :  0.717287E-02 -0.745823E-03  0.357730E-02
   ----------------------------------------------------------------
   Total forces(  31)            :  0.596960E-02 -0.381580E-02  0.218640E-02
  atom #   32
   Hellmann-Feynman              :  0.655615E-01 -0.187198E-01  0.251000E-01
   Ionic forces                  :  0.000000E+00  0.000000E+00  0.000000E+00
   Multipole                     : -0.187966E-01 -0.121563E-01 -0.456803E-01
   Pulay + GGA                   : -0.476970E-01  0.328585E-01  0.224205E-01
   MBD@rsSCS                     :  0.671227E-02 -0.215138E-02  0.108937E-02
   ----------------------------------------------------------------
   Total forces(  32)            :  0.578022E-02 -0.168964E-03  0.292960E-02

  Removing unitary transformations (pure translations, rotations) from forces on atoms.
  Atomic forces before filtering:
  | Net force on center of mass :   0.147887E-03  0.499903E-05 -0.183425E-03 eV/A
  | Net torque on center of mass:   0.882218E-03 -0.506484E-04 -0.113347E-02 eV
  Atomic forces after filtering:
  | Net force on center of mass :  -0.355418E-16 -0.132846E-16  0.104535E-16 eV/A
  | Net torque on center of mass:  -0.433781E-16 -0.295026E-17 -0.435164E-16 eV

  Energy and forces in a compact form:
  | Total energy uncorrected      :         -0.202094149118410E+05 eV
  | Total energy corrected        :         -0.202094149118410E+05 eV  <-- do not rely on this value for anything but (periodic) metals
  | Electronic free energy        :         -0.202094149118410E+05 eV
  Total atomic forces (unitary forces cleaned) [eV/Ang]:
  |   1         -0.471608087909420E-02         -0.426668781742911E-02         -0.127866245445238E-02
  |   2         -0.164608572460933E-01          0.230497872916430E-01          0.114245838560532E-01
  |   3         -0.140178142399963E-01         -0.990340228716155E-02         -0.437068354866297E-02
  |   4         -0.801014868696836E-02          0.425762106824778E-02          0.688708925247769E-02
  |   5          0.334280517568737E-02          0.704933125967364E-02          0.344489294646919E-02
  |   6          0.237082164426739E-02          0.766785892162028E-02          0.228702095464672E-02
  |   7         -0.121958331953428E-02          0.258867397874589E-02         -0.142927883366362E-01
  |   8          0.585401732102432E-02          0.560985571817282E-02         -0.339519316579924E-03
  |   9         -0.441404137215701E-01          0.359195390042382E-02          0.107707278703831E-01
  |  10         -0.681164882649179E-02          0.140850706437286E-01          0.138523895739530E-01
  |  11          0.427615402152155E-02          0.240368529541056E-02         -0.202234135985774E-02
  |  12         -0.592783981914597E-02          0.765629274077619E-02         -0.335548499504373E-02
  |  13          0.101225860735446E-01         -0.253174440554956E-01          0.126104461731160E-01
  |  14          0.361370284122435E-02         -0.138939206111875E-01          0.167775915146596E-01
  |  15          0.277604428207211E-02         -0.975244954050668E-02          0.212302104524947E-02
  |  16          0.161345585541108E-01         -0.186846631807440E-01          0.415826298699402E-02
  |  17         -0.117509556108393E-01          0.123583136677021E-02         -0.159621284764608E-01
  |  18         -0.120764351207163E-02         -0.354913874492529E-02         -0.633912489588359E-02
  |  19          0.160255812000397E-01          0.253700816129540E-02         -0.152687159261501E-02
  |  20          0.129155881052041E-01         -0.137177682040122E-01          0.412850271703959E-02
  |  21         -0.224980870259747E-02          0.537934994933625E-02          0.378268805444554E-02
  |  22         -0.467099538997610E-03          0.397499135703831E-02         -0.478035144118682E-02
  |  23         -0.196755279653671E-02          0.882918126088472E-02         -0.185901443510205E-03
  |  24         -0.884862044041526E-02          0.144231050352673E-02         -0.171209329545129E-01
  |  25         -0.645858153088043E-02         -0.444764424407593E-02         -0.252228734449852E-01
  |  26         -0.172753419078010E-02         -0.230860143341881E-02         -0.143747796152599E-01
  |  27          0.428805106798181E-01         -0.463847774559804E-02          0.178740036867967E-02
  |  28         -0.281206590465552E-02          0.505408143352603E-02          0.812112581227612E-02
  |  29          0.117095381521434E-02          0.100851083519419E-01          0.437057258732993E-02
  |  30          0.558236956013177E-02         -0.196307182731841E-02         -0.479792785374933E-03
  |  31          0.595855485564009E-02         -0.385506092660998E-02          0.219160756417014E-02
  |  32          0.577000083716788E-02         -0.199662584278985E-03          0.293431338307919E-02

  ------------------------------------ 
  Start decomposition of the XC Energy 
  ------------------------------------ 
  Hartree-Fock part   :          0.000000000 Ha              0.000000000 eV
  ------------------------------------ 
  X Energy            :        -96.993887608 Ha          -2639.337969842 eV
  C Energy GGA        :         -3.868801204 Ha           -105.275437115 eV
  Total XC Energy     :       -100.862688812 Ha          -2744.613406957 eV
  LDA X and C from self-consistent density 
  X Energy LDA        :        -88.010330120 Ha          -2394.882932862 eV
  C Energy LDA        :         -7.532114229 Ha           -204.959256370 eV
  ------------------------------------ 
  End decomposition of the XC Energy 
  ------------------------------------ 
   
  ESP charge fitting starts.
  | Calculation :  00000001  of  00000001
  | Full density
  Computing multipole expansion for total density.
  Generating points for esp charges.
  Partitioning the integration grid into batches with parallel hashing+maxmin method.
  | Number of batches:     3922
  | Maximal batch size:     198
  | Minimal batch size:      55
  | Average batch size:     124.426
  | Standard deviation of batch sizes:      15.719

  Integration load balanced across    32 MPI tasks.
  Work distribution over tasks is as follows:
  Initializing partition tables, free-atom densities, potentials, etc. across the integration grid (initialize_grid_storage).
  | Original list of interatomic distances with          32 x         32 entries is created.
  | Net number of integration points:   487997
  | of which are non-zero points    :   487997
  Summing up potential from multipole expanded  density.
  Summing up the Hartree potential.
  Time summed over all CPUs for potential: real work        6.266 s, elapsed        6.636 s
  Fitting esp charges to potential.
  |
  | ESP charges fitted to the electrostatic potential :
  |
  | Atom         1: C, ESP charge:      0.99653696
  |
  | Atom         2: C, ESP charge:     -0.68126813
  |
  | Atom         3: O, ESP charge:      0.53138093
  |
  | Atom         4: H, ESP charge:     -0.26963180
  |
  | Atom         5: H, ESP charge:     -0.27810064
  |
  | Atom         6: H, ESP charge:     -0.28056777
  |
  | Atom         7: N, ESP charge:      0.46705805
  |
  | Atom         8: C, ESP charge:     -0.48932735
  |
  | Atom         9: C, ESP charge:     -0.41649582
  |
  | Atom        10: O, ESP charge:      0.47421678
  |
  | Atom        11: H, ESP charge:     -0.20927338
  |
  | Atom        12: H, ESP charge:      0.07546545
  |
  | Atom        13: C, ESP charge:      0.32051712
  |
  | Atom        14: H, ESP charge:     -0.06034951
  |
  | Atom        15: H, ESP charge:     -0.07606826
  |
  | Atom        16: H, ESP charge:     -0.10153501
  |
  | Atom        17: N, ESP charge:      0.54397060
  |
  | Atom        18: C, ESP charge:     -0.37792587
  |
  | Atom        19: C, ESP charge:     -0.40347284
  |
  | Atom        20: O, ESP charge:      0.50215579
  |
  | Atom        21: H, ESP charge:     -0.30449967
  |
  | Atom        22: H, ESP charge:      0.05266986
  |
  | Atom        23: C, ESP charge:      0.19198442
  |
  | Atom        24: H, ESP charge:     -0.06712273
  |
  | Atom        25: H, ESP charge:     -0.04542348
  |
  | Atom        26: H, ESP charge:     -0.04501535
  |
  | Atom        27: N, ESP charge:      0.28414067
  |
  | Atom        28: C, ESP charge:      0.42924084
  |
  | Atom        29: H, ESP charge:     -0.26519948
  |
  | Atom        30: H, ESP charge:     -0.16172129
  |
  | Atom        31: H, ESP charge:     -0.14954717
  |
  | Atom        32: H, ESP charge:     -0.18679190

  RRMS:       0.01394138

  Done.

------------------------------------------------------------------------------
  Final output of selected total energy values:

  The following output summarizes some interesting total energy values
  at the end of a run (AFTER all relaxation, molecular dynamics, etc.).

  | Total energy of the DFT / Hartree-Fock s.c.f. calculation      :         -20209.414911841 eV
  | Final zero-broadening corrected energy (caution - metals only) :         -20209.414911841 eV
  | For reference only, the value of 1 Hartree used in FHI-aims is :             27.211384500 eV

  Before relying on these values, please be sure to understand exactly which
  total energy value is referred to by a given number. Different objects may
  all carry the same name 'total energy'. Definitions:

  Total energy of the DFT / Hartree-Fock s.c.f. calculation:
  | Note that this energy does not include ANY quantities calculated after the
  | s.c.f. cycle, in particular not ANY RPA, MP2, etc. many-body perturbation terms.

  Final zero-broadening corrected energy:
  | For metallic systems only, a broadening of the occupation numbers at the Fermi
  | level can be extrapolated back to zero broadening by an electron-gas inspired
  | formula. For all systems that are not real metals, this value can be
  | meaningless and should be avoided.

------------------------------------------------------------------------------
  Methods described in the following list of references were used in this FHI-aims run.
  If you publish the results, please make sure to cite these reference if they apply.
  FHI-aims is an academic code, and for our developers (often, Ph.D. students
  and postdocs), scientific credit in the community is essential.
  Thank you for helping us!

  For any use of FHI-aims, please cite:

    Volker Blum, Ralf Gehrke, Felix Hanke, Paula Havu, Ville Havu,
    Xinguo Ren, Karsten Reuter, and Matthias Scheffler
    'Ab initio molecular simulations with numeric atom-centered orbitals'
    Computer Physics Communications 180, 2175-2196 (2009)
    http://dx.doi.org/10.1016/j.cpc.2009.06.022


  The scalable eigensolver library ELPA was used in your run.
  ELPA is essential especially for large systems on hundreds or thousands of CPUs.
  For ELPA, please cite:

    Andreas Marek, Volker Blum, Rainer Johanni, Ville Havu, Bruno Lang,
    Thomas Auckenthaler, Alexander Heinecke, Hans-Joachim Bungartz, and Hermann Lederer,
    'The ELPA Library - Scalable Parallel Eigenvalue Solutions
    for Electronic Structure Theory and Computational Science'
    The Journal of Physics: Condensed Matter 26, 213201 (2014).
    http://dx.doi.org/10.1088/0953-8984/26/21/213201


  For ELPA's efficient two-stage tridiagonalization used in your run, please cite:

    T. Auckenthaler, V. Blum, H.-J. Bungartz, T. Huckle, R. Johanni, L. Kraemer,
    B. Lang, H. Lederer, and P. R. Willems,
    'Parallel solution of partial symmetric eigenvalue problems'
    'from  electronic structure calculations'
    Parallel Computing 37, 783-794 (2011).
    http://dx.doi.org/10.1016/j.parco.2011.05.002


  For the real-space grid partitioning and parallelization used in this calculation, please cite:

    Ville Havu, Volker Blum, Paula Havu, and Matthias Scheffler,
    'Efficient O(N) integration for all-electron electronic structure calculation'
    'using numerically tabulated basis functions'
    Journal of Computational Physics 228, 8367-8379 (2009).
    http://dx.doi.org/10.1016/j.jcp.2009.08.008

  Of course, there are many other important community references, e.g., those cited in the
  above references. Our list is limited to references that describe implementations in the
  FHI-aims code. The reason is purely practical (length of this list) - please credit others as well.

------------------------------------------------------------
          Leaving FHI-aims.
          Date     :  20170309, Time     :  180957.126

          Computational steps:
          | Number of self-consistency cycles          :           14

          Detailed time accounting                     :  max(cpu_time)    wall_clock(cpu1)
          | Total time                                 :       31.666 s          31.821 s
          | Preparation time                           :        0.236 s           0.237 s
          | Grid partitioning                          :        0.312 s           0.309 s
          | Preloading free-atom quantities on grid    :        0.028 s           0.028 s
          | Free-atom superposition energy             :        0.040 s           0.037 s
          | Total time for integrations                :        9.949 s           9.927 s
          | Total time for solution of K.-S. equations :        0.528 s           0.497 s
          | Total time for density & force components  :        9.077 s           9.052 s
          | Total time for mixing                      :        0.124 s           0.105 s
          | Total time for Hartree multipole update    :        0.064 s           0.059 s
          | Total time for Hartree multipole sum       :        6.448 s           6.418 s
          | Total time for total energy evaluation     :        0.024 s           0.019 s

          Have a nice day.
------------------------------------------------------------
