  MPI-parallelism will be employed.
------------------------------------------------------------
          Invoking FHI-aims ...
          Version 150427
          Git rev.: 9dd23e0 BL: Update Version stamp
          Compiled on 2015/11/03 at 22:05:20 on host eos03.

          When using FHI-aims, please cite the following reference:

          Volker Blum, Ralf Gehrke, Felix Hanke, Paula Havu,
          Ville Havu, Xinguo Ren, Karsten Reuter, and Matthias Scheffler,
          'Ab Initio Molecular Simulations with Numeric Atom-Centered Orbitals: FHI-aims',
          Computer Physics Communications 180, 2175-2196 (2009)

          For any questions about FHI-aims, please visit the aimsclub website
          with its forums and wiki. Contributions to both the forums and the
          wiki are warmly encouraged - they are for you, and everyone is welcome there.

------------------------------------------------------------

  Date     :  20170309, Time     :  183955.339
  Time zero on CPU 1             :   0.300018000000000E+00  s.
  Internal wall clock time zero  :           258316795.339  s.

  Using       32 parallel tasks.
  Task        0 on host eos195 reporting.
  Task        1 on host eos195 reporting.
  Task        2 on host eos195 reporting.
  Task        3 on host eos195 reporting.
  Task        4 on host eos195 reporting.
  Task        5 on host eos195 reporting.
  Task        6 on host eos195 reporting.
  Task        7 on host eos195 reporting.
  Task        8 on host eos195 reporting.
  Task        9 on host eos195 reporting.
  Task       10 on host eos195 reporting.
  Task       11 on host eos195 reporting.
  Task       12 on host eos195 reporting.
  Task       13 on host eos195 reporting.
  Task       14 on host eos195 reporting.
  Task       15 on host eos195 reporting.
  Task       16 on host eos195 reporting.
  Task       17 on host eos195 reporting.
  Task       18 on host eos195 reporting.
  Task       19 on host eos195 reporting.
  Task       20 on host eos195 reporting.
  Task       21 on host eos195 reporting.
  Task       22 on host eos195 reporting.
  Task       23 on host eos195 reporting.
  Task       24 on host eos195 reporting.
  Task       25 on host eos195 reporting.
  Task       26 on host eos195 reporting.
  Task       27 on host eos195 reporting.
  Task       28 on host eos195 reporting.
  Task       29 on host eos195 reporting.
  Task       30 on host eos195 reporting.
  Task       31 on host eos195 reporting.

  Performing system and environment tests:
  | Environment variable OMP_NUM_THREADS correctly set to 1.
  | Stacksize not measured: no C compiler
  | Checking for scalapack...
  | Testing pdtran()...
  | All pdtran() tests passed.

  Obtaining array dimensions for all initial allocations:
  
  -----------------------------------------------------------------------
  Parsing control.in (first pass over file, find array dimensions only).
  The contents of control.in will be repeated verbatim below
  unless switched off by setting 'verbatim_writeout .false.' .
  in the first line of control.in .
  -----------------------------------------------------------------------
  
  #########################################################################################
  #
  # Input for System
  #
  #########################################################################################
  #
  #
  #  Physical model
  #
    xc                 pbe
    many_body_dispersion
    spin               none
    charge             0.
  #
  #  SCF convergence
  #
    occupation_type    gaussian 0.05
    mixer              pulay
      n_max_pulay        10
      charge_mix_param   0.5
    sc_accuracy_rho    1E-4
    sc_accuracy_eev    1E-2
    sc_accuracy_etot   1E-5
    sc_accuracy_forces 1E-4
    sc_iter_limit      1000
  #
  #  ESP charge
  #
    output esp
    esp equal_grid_n 80 80 80
  #
  #
  ################################################################################
  #
  #  FHI-aims code project
  # Volker Blum, Fritz Haber Institute Berlin, 2009
  #
  #  Suggested "tight" defaults for H atom (to be pasted into control.in file)
  #
  ################################################################################
    species        H
  #     global species definitions
      nucleus             1
      mass                1.00794
  #
      l_hartree           6
  #
      cut_pot             4.0  2.0  1.0
      basis_dep_cutoff    1e-4
  #
      radial_base         24 7.0
      radial_multiplier   2
      angular_grids       specified
        division   0.1930   50
        division   0.3175  110
        division   0.4293  194
        division   0.5066  302
        division   0.5626  434
  #      division   0.5922  590
  #      division   0.6227  974
  #      division   0.6868 1202
  #      outer_grid  770
        outer_grid  434
  ################################################################################
  #
  #  Definition of "minimal" basis
  #
  ################################################################################
  #     valence basis states
      valence      1  s   1.
  #     ion occupancy
      ion_occ      1  s   0.5
  ################################################################################
  #
  #  Suggested additional basis functions. For production calculations,
  #  uncomment them one after another (the most important basis functions are
  #  listed first).
  #
  #  Basis constructed for dimers: 0.5 A, 0.7 A, 1.0 A, 1.5 A, 2.5 A
  #
  ################################################################################
  #  "First tier" - improvements: -1014.90 meV to -62.69 meV
       hydro 2 s 2.1
       hydro 2 p 3.5
  #  "Second tier" - improvements: -12.89 meV to -1.83 meV
       hydro 1 s 0.85
       hydro 2 p 3.7
       hydro 2 s 1.2
       hydro 3 d 7
  #  "Third tier" - improvements: -0.25 meV to -0.12 meV
  #     hydro 4 f 11.2
  #     hydro 3 p 4.8
  #     hydro 4 d 9
  #     hydro 3 s 3.2
  ################################################################################
  #
  # For methods that use the localized form of the "resolution of identity" for
  # the two-electron Coulomb operator (RI_method LVL), particularly Hartree-Fock and
  # hybrid density functional calculations, the highest accuracy can be obtained by
  # uncommenting the line beginning with "for_aux"  below, thus adding an extra g radial
  # function to the construction of the product basis set for the expansion.
  # See Ref. New J. Phys. 17, 093020 (2015) for more information, particularly Figs. 1 and 6.
  #
  ################################################################################
  #
  # for_aux hydro 5 g 6.0
  ################################################################################
  #
  #  FHI-aims code project
  # Volker Blum, Fritz Haber Institute Berlin, 2009
  #
  #  Suggested "tight" defaults for C atom (to be pasted into control.in file)
  #
  ################################################################################
    species        C
  #     global species definitions
      nucleus             6
      mass                12.0107
  #
      l_hartree           6
  #
      cut_pot             4.0  2.0  1.0
      basis_dep_cutoff    1e-4
  #
      radial_base         34 7.0
      radial_multiplier   2
      angular_grids specified
        division   0.2187   50
        division   0.4416  110
        division   0.6335  194
        division   0.7727  302
        division   0.8772  434
  #      division   0.9334  590
  #      division   0.9924  770
  #      division   1.0230  974
  #      division   1.5020 1202
  #     outer_grid  974
        outer_grid  434
  ################################################################################
  #
  #  Definition of "minimal" basis
  #
  ################################################################################
  #     valence basis states
      valence      2  s   2.
      valence      2  p   2.
  #     ion occupancy
      ion_occ      2  s   1.
      ion_occ      2  p   1.
  ################################################################################
  #
  #  Suggested additional basis functions. For production calculations,
  #  uncomment them one after another (the most important basis functions are
  #  listed first).
  #
  #  Constructed for dimers: 1.0 A, 1.25 A, 1.5 A, 2.0 A, 3.0 A
  #
  ################################################################################
  #  "First tier" - improvements: -1214.57 meV to -155.61 meV
       hydro 2 p 1.7
       hydro 3 d 6
       hydro 2 s 4.9
  #  "Second tier" - improvements: -67.75 meV to -5.23 meV
       hydro 4 f 9.8
       hydro 3 p 5.2
       hydro 3 s 4.3
       hydro 5 g 14.4
       hydro 3 d 6.2
  #  "Third tier" - improvements: -2.43 meV to -0.60 meV
  #     hydro 2 p 5.6
  #     hydro 2 s 1.4
  #     hydro 3 d 4.9
  #     hydro 4 f 11.2
  #  "Fourth tier" - improvements: -0.39 meV to -0.18 meV
  #     hydro 2 p 2.1
  #     hydro 5 g 16.4
  #     hydro 4 d 13.2
  #     hydro 3 s 13.6
  #     hydro 4 f 17.6
  #  Further basis functions - improvements: -0.08 meV and below
  #     hydro 3 s 2
  #     hydro 3 p 6
  #     hydro 4 d 20
  ################################################################################
  #
  # For methods that use the localized form of the "resolution of identity" for
  # the two-electron Coulomb operator (RI_method LVL), particularly Hartree-Fock and
  # hybrid density functional calculations, the highest accuracy can be obtained by
  # uncommenting the line beginning with "for_aux"  below, thus adding an extra g radial
  # function to the construction of the product basis set for the expansion.
  # See Ref. New J. Phys. 17, 093020 (2015) for more information, particularly Figs. 1 and 6.
  #
  ################################################################################
  #
  # for_aux hydro 5 g 6.0
  ################################################################################
  #
  #  FHI-aims code project
  # Volker Blum, Fritz Haber Institute Berlin, 2009
  #
  #  Suggested "tight" defaults for N atom (to be pasted into control.in file)
  #
  ################################################################################
    species        N
  #     global species definitions
      nucleus             7
      mass                14.0067
  #
      l_hartree           6
  #
      cut_pot             4.0  2.0  1.0
      basis_dep_cutoff    1e-4
  #
      radial_base         35 7.0
      radial_multiplier   2
      angular_grids       specified
        division   0.1841   50
        division   0.3514  110
        division   0.5126  194
        division   0.6292  302
        division   0.6939  434
  #      division   0.7396  590
  #      division   0.7632  770
  #      division   0.8122  974
  #      division   1.1604 1202
  #      outer_grid  974
        outer_grid  434
  ################################################################################
  #
  #  Definition of "minimal" basis
  #
  ################################################################################
  #     valence basis states
      valence      2  s   2.
      valence      2  p   3.
  #     ion occupancy
      ion_occ      2  s   1.
      ion_occ      2  p   2.
  ################################################################################
  #
  #  Suggested additional basis functions. For production calculations,
  #  uncomment them one after another (the most important basis functions are
  #  listed first).
  #
  #  Constructed for dimers: 1.0 A, 1.1 A, 1.5 A, 2.0 A, 3.0 A
  #
  ################################################################################
  #  "First tier" - improvements: -1193.42 meV to -220.60 meV
       hydro 2 p 1.8
       hydro 3 d 6.8
       hydro 3 s 5.8
  #  "Second tier" - improvements: -80.21 meV to -6.86 meV
       hydro 4 f 10.8
       hydro 3 p 5.8
       hydro 1 s 0.8
       hydro 5 g 16
       hydro 3 d 4.9
  #  "Third tier" - improvements: -4.29 meV to -0.53 meV
  #     hydro 3 s 16
  #     ionic 2 p auto
  #     hydro 3 d 6.6
  #     hydro 4 f 11.6
  #  "Fourth tier" - improvements: -0.75 meV to -0.25 meV
  #     hydro 2 p 4.5
  #     hydro 2 s 2.4
  #     hydro 5 g 14.4
  #     hydro 4 d 14.4
  #     hydro 4 f 16.8
  # Further basis functions - -0.21 meV and below
  #     hydro 3 p 14.8
  #     hydro 3 s 4.4
  #     hydro 3 d 19.6
  #     hydro 5 g 12.8
  ################################################################################
  #
  # For methods that use the localized form of the "resolution of identity" for
  # the two-electron Coulomb operator (RI_method LVL), particularly Hartree-Fock and
  # hybrid density functional calculations, the highest accuracy can be obtained by
  # uncommenting the line beginning with "for_aux"  below, thus adding an extra g radial
  # function to the construction of the product basis set for the expansion.
  # See Ref. New J. Phys. 17, 093020 (2015) for more information, particularly Figs. 1 and 6.
  #
  ################################################################################
  #
  # for_aux hydro 5 g 6.0
  ################################################################################
  #
  #  FHI-aims code project
  # Volker Blum, Fritz Haber Institute Berlin, 2009
  #
  #  Suggested "tight" defaults for O atom (to be pasted into control.in file)
  #
  ################################################################################
    species        O
  #     global species definitions
      nucleus             8
      mass                15.9994
  #
      l_hartree           6
  #
      cut_pot             4.0  2.0  1.0
      basis_dep_cutoff    1e-4
  #
      radial_base         36 7.0
      radial_multiplier   2
       angular_grids specified
        division   0.1817   50
        division   0.3417  110
        division   0.4949  194
        division   0.6251  302
        division   0.8014  434
  #      division   0.8507  590
  #      division   0.8762  770
  #      division   0.9023  974
  #      division   1.2339 1202
  #      outer_grid 974
        outer_grid  434
  ################################################################################
  #
  #  Definition of "minimal" basis
  #
  ################################################################################
  #     valence basis states
      valence      2  s   2.
      valence      2  p   4.
  #     ion occupancy
      ion_occ      2  s   1.
      ion_occ      2  p   3.
  ################################################################################
  #
  #  Suggested additional basis functions. For production calculations,
  #  uncomment them one after another (the most important basis functions are
  #  listed first).
  #
  #  Constructed for dimers: 1.0 A, 1.208 A, 1.5 A, 2.0 A, 3.0 A
  #
  ################################################################################
  #  "First tier" - improvements: -699.05 meV to -159.38 meV
       hydro 2 p 1.8
       hydro 3 d 7.6
       hydro 3 s 6.4
  #  "Second tier" - improvements: -49.91 meV to -5.39 meV
       hydro 4 f 11.6
       hydro 3 p 6.2
       hydro 3 d 5.6
       hydro 5 g 17.6
       hydro 1 s 0.75
  #  "Third tier" - improvements: -2.83 meV to -0.50 meV
  #     ionic 2 p auto
  #     hydro 4 f 10.8
  #     hydro 4 d 4.7
  #     hydro 2 s 6.8
  #  "Fourth tier" - improvements: -0.40 meV to -0.12 meV
  #     hydro 3 p 5
  #     hydro 3 s 3.3
  #     hydro 5 g 15.6
  #     hydro 4 f 17.6
  #     hydro 4 d 14
  # Further basis functions - -0.08 meV and below
  #     hydro 3 s 2.1
  #     hydro 4 d 11.6
  #     hydro 3 p 16
  #     hydro 2 s 17.2
  ################################################################################
  #
  # For methods that use the localized form of the "resolution of identity" for
  # the two-electron Coulomb operator (RI_method LVL), particularly Hartree-Fock and
  # hybrid density functional calculations, the highest accuracy can be obtained by
  # uncommenting the line beginning with "for_aux"  below, thus adding an extra g radial
  # function to the construction of the product basis set for the expansion.
  # See Ref. New J. Phys. 17, 093020 (2015) for more information, particularly Figs. 1 and 6.
  #
  ################################################################################
  #
  # for_aux hydro 5 g 6.0
  
  -----------------------------------------------------------------------
  Completed first pass over input file control.in .
  -----------------------------------------------------------------------
  
  
  -----------------------------------------------------------------------
  Parsing geometry.in (first pass over file, find array dimensions only).
  The contents of geometry.in will be repeated verbatim below
  unless switched off by setting 'verbatim_writeout .false.' .
  in the first line of geometry.in .
  -----------------------------------------------------------------------
  
  #
  # This is the geometry file that corresponds to the current relaxation step.
  # If you do not want this file to be written, set the "write_restart_geometry" flag to .false.
  #
  atom      -1.25235884     -1.04957693      2.37697891 C
  atom      -1.82941322      0.31676396      2.66873438 C
  atom      -1.54504928      0.94297384      3.69228331 O
  atom      -0.32373748     -1.14499295      2.94696999 H
  atom      -1.06018440     -1.23206131      1.31392126 H
  atom      -1.94633900     -1.82919148      2.72425211 H
  atom      -2.73764583      0.85945481      1.78649209 N
  atom      -3.21270429      0.39807028      0.47542346 C
  atom      -3.60866046     -1.10271118      0.44804067 C
  atom      -3.09080707     -1.87209165     -0.35633881 O
  atom      -2.99775735      1.80547416      2.05248124 H
  atom      -4.14875359      0.95593604      0.30311950 H
  atom      -2.24384234      0.73018393     -0.65946016 C
  atom      -1.30166867      0.18136948     -0.54760800 H
  atom      -2.02693989      1.80612593     -0.65561656 H
  atom      -2.67339339      0.45476120     -1.62962327 H
  atom      -4.58494439     -1.53088796      1.30424862 N
  atom      -5.22462758     -0.84055972      2.41295976 C
  atom      -4.70890598     -1.46454336      3.73130419 C
  atom      -4.44969695     -2.66812474      3.77730205 O
  atom      -4.67099134     -2.54664484      1.33237844 H
  atom      -4.95103588      0.21605543      2.36046311 H
  atom      -6.75235509     -0.98178509      2.34358096 C
  atom      -7.23345251     -0.45889338      3.18127530 H
  atom      -7.04108668     -2.03992866      2.39665990 H
  atom      -7.12997819     -0.56300776      1.40244511 H
  atom      -4.60592163     -0.66209583      4.82360132 N
  atom      -4.71210151      0.78840965      4.90170332 C
  atom      -4.22741096     -1.14545451      5.63397949 H
  atom      -4.96467104      1.06472643      5.93219282 H
  atom      -5.52366538      1.15688894      4.26341155 H
  atom      -3.76766478      1.28409126      4.62719892 H
  
  -----------------------------------------------------------------------
  Completed first pass over input file geometry.in .
  -----------------------------------------------------------------------
  

  Basic array size parameters:
  | Number of species                 :        4
  | Number of atoms                   :       32
  | Max. basis fn. angular momentum   :        4
  | Max. atomic/ionic basis occupied n:        2
  | Max. number of basis fn. types    :        2
  | Max. radial fns per species/type  :        8
  | Max. logarithmic grid size        :     1301
  | Max. radial integration grid size :       73
  | Max. angular integration grid size:      434
  | Max. angular grid division number :        8
  | Radial grid for Hartree potential :     1301
  | Number of spin channels           :        1

------------------------------------------------------------
          Reading file control.in.
------------------------------------------------------------
  XC: Using PBE gradient-corrected functionals.
  Self-consistent screening and van der Waals energy (TS, TS+SCS,MBD) module
  Spin treatment: No spin polarisation.
  Charge =   0.000000E+00: Neutral system requested explicitly.
  Occupation type: Gaussian broadening, width =   0.500000E-01 eV.
  Using pulay charge density mixing.
  Pulay mixing - number of memorized iterations:   10
  Charge density mixing - mixing parameter:     0.5000
  Convergence accuracy of self-consistent charge density:  0.1000E-03
  Convergence accuracy of sum of eigenvalues:  0.1000E-01
  Convergence accuracy of total energy:  0.1000E-04
  Convergence accuracy of forces:  0.1000E-03
  Maximum number of s.-c. iterations  :  1000
  Fitting ESP-charges to Potential. 
  | Esp charge output options: 
  | ESP Grid method: 3, cubic grid
  | Number of points in x, ,y, z:  0080 0080 0080
  |
 
  Reading configuration options for species H                   .
  | Found nuclear charge :   1.0000
  | Found atomic mass :    1.00794000000000      amu
  | Found l_max for Hartree potential  :   6
  | Found cutoff potl. onset [A], width [A], scale factor :    4.00000    2.00000    1.00000
  | Threshold for basis-dependent cutoff potential is   0.100000E-03
  | Found data for basic radial integration grid :    24 points, outermost radius =    7.000 A
  | Found multiplier for basic radial grid :   2
  | Found angular grid specification: user-specified.
  | Specified grid contains     6 separate shells.
  | Check grid settings after all constraints further below.
  | Found free-atom valence shell :  1 s   1.000
  | No ionic wave fns used. Skipping ion_occ.
  | Found hydrogenic basis function :  2 s   2.100
  | Found hydrogenic basis function :  2 p   3.500
  | Found hydrogenic basis function :  1 s   0.850
  | Found hydrogenic basis function :  2 p   3.700
  | Found hydrogenic basis function :  2 s   1.200
  | Found hydrogenic basis function :  3 d   7.000
  Species H                   : Missing cutoff potential type.
  Defaulting to exp(1/x)/(1-x)^2 type cutoff potential.
  Species H : No 'logarithmic' tag. Using default grid for free atom:
  | Default logarithmic grid data [bohr] : 0.1000E-03 0.1000E+03 0.1012E+01
  Species H : On-site basis accuracy parameter (for Gram-Schmidt orthonormalisation) not specified.
  Using default value basis_acc =  0.1000000E-03.
  Species H                   : Using default innermost maximum threshold i_radial=  2 for radial functions.
  Species H                   : Default cutoff onset for free atom density etc. : 0.40000000E+01 AA.
  Species H                   : Basic radial grid will be enhanced according to radial_multiplier =   2, to contain    49 grid points.
 
  Reading configuration options for species C                   .
  | Found nuclear charge :   6.0000
  | Found atomic mass :    12.0107000000000      amu
  | Found l_max for Hartree potential  :   6
  | Found cutoff potl. onset [A], width [A], scale factor :    4.00000    2.00000    1.00000
  | Threshold for basis-dependent cutoff potential is   0.100000E-03
  | Found data for basic radial integration grid :    34 points, outermost radius =    7.000 A
  | Found multiplier for basic radial grid :   2
  | Found angular grid specification: user-specified.
  | Specified grid contains     6 separate shells.
  | Check grid settings after all constraints further below.
  | Found free-atom valence shell :  2 s   2.000
  | Found free-atom valence shell :  2 p   2.000
  | No ionic wave fns used. Skipping ion_occ.
  | No ionic wave fns used. Skipping ion_occ.
  | Found hydrogenic basis function :  2 p   1.700
  | Found hydrogenic basis function :  3 d   6.000
  | Found hydrogenic basis function :  2 s   4.900
  | Found hydrogenic basis function :  4 f   9.800
  | Found hydrogenic basis function :  3 p   5.200
  | Found hydrogenic basis function :  3 s   4.300
  | Found hydrogenic basis function :  5 g  14.400
  | Found hydrogenic basis function :  3 d   6.200
  Species C                   : Missing cutoff potential type.
  Defaulting to exp(1/x)/(1-x)^2 type cutoff potential.
  Species C : No 'logarithmic' tag. Using default grid for free atom:
  | Default logarithmic grid data [bohr] : 0.1000E-03 0.1000E+03 0.1012E+01
  Species C : On-site basis accuracy parameter (for Gram-Schmidt orthonormalisation) not specified.
  Using default value basis_acc =  0.1000000E-03.
  Species C                   : Using default innermost maximum threshold i_radial=  2 for radial functions.
  Species C                   : Default cutoff onset for free atom density etc. : 0.40000000E+01 AA.
  Species C                   : Basic radial grid will be enhanced according to radial_multiplier =   2, to contain    69 grid points.
 
  Reading configuration options for species N                   .
  | Found nuclear charge :   7.0000
  | Found atomic mass :    14.0067000000000      amu
  | Found l_max for Hartree potential  :   6
  | Found cutoff potl. onset [A], width [A], scale factor :    4.00000    2.00000    1.00000
  | Threshold for basis-dependent cutoff potential is   0.100000E-03
  | Found data for basic radial integration grid :    35 points, outermost radius =    7.000 A
  | Found multiplier for basic radial grid :   2
  | Found angular grid specification: user-specified.
  | Specified grid contains     6 separate shells.
  | Check grid settings after all constraints further below.
  | Found free-atom valence shell :  2 s   2.000
  | Found free-atom valence shell :  2 p   3.000
  | No ionic wave fns used. Skipping ion_occ.
  | No ionic wave fns used. Skipping ion_occ.
  | Found hydrogenic basis function :  2 p   1.800
  | Found hydrogenic basis function :  3 d   6.800
  | Found hydrogenic basis function :  3 s   5.800
  | Found hydrogenic basis function :  4 f  10.800
  | Found hydrogenic basis function :  3 p   5.800
  | Found hydrogenic basis function :  1 s   0.800
  | Found hydrogenic basis function :  5 g  16.000
  | Found hydrogenic basis function :  3 d   4.900
  Species N                   : Missing cutoff potential type.
  Defaulting to exp(1/x)/(1-x)^2 type cutoff potential.
  Species N : No 'logarithmic' tag. Using default grid for free atom:
  | Default logarithmic grid data [bohr] : 0.1000E-03 0.1000E+03 0.1012E+01
  Species N : On-site basis accuracy parameter (for Gram-Schmidt orthonormalisation) not specified.
  Using default value basis_acc =  0.1000000E-03.
  Species N                   : Using default innermost maximum threshold i_radial=  2 for radial functions.
  Species N                   : Default cutoff onset for free atom density etc. : 0.40000000E+01 AA.
  Species N                   : Basic radial grid will be enhanced according to radial_multiplier =   2, to contain    71 grid points.
 
  Reading configuration options for species O                   .
  | Found nuclear charge :   8.0000
  | Found atomic mass :    15.9994000000000      amu
  | Found l_max for Hartree potential  :   6
  | Found cutoff potl. onset [A], width [A], scale factor :    4.00000    2.00000    1.00000
  | Threshold for basis-dependent cutoff potential is   0.100000E-03
  | Found data for basic radial integration grid :    36 points, outermost radius =    7.000 A
  | Found multiplier for basic radial grid :   2
  | Found angular grid specification: user-specified.
  | Specified grid contains     6 separate shells.
  | Check grid settings after all constraints further below.
  | Found free-atom valence shell :  2 s   2.000
  | Found free-atom valence shell :  2 p   4.000
  | No ionic wave fns used. Skipping ion_occ.
  | No ionic wave fns used. Skipping ion_occ.
  | Found hydrogenic basis function :  2 p   1.800
  | Found hydrogenic basis function :  3 d   7.600
  | Found hydrogenic basis function :  3 s   6.400
  | Found hydrogenic basis function :  4 f  11.600
  | Found hydrogenic basis function :  3 p   6.200
  | Found hydrogenic basis function :  3 d   5.600
  | Found hydrogenic basis function :  5 g  17.600
  | Found hydrogenic basis function :  1 s   0.750
  Species O                   : Missing cutoff potential type.
  Defaulting to exp(1/x)/(1-x)^2 type cutoff potential.
  Species O : No 'logarithmic' tag. Using default grid for free atom:
  | Default logarithmic grid data [bohr] : 0.1000E-03 0.1000E+03 0.1012E+01
  Species O : On-site basis accuracy parameter (for Gram-Schmidt orthonormalisation) not specified.
  Using default value basis_acc =  0.1000000E-03.
  Species O                   : Using default innermost maximum threshold i_radial=  2 for radial functions.
  Species O                   : Default cutoff onset for free atom density etc. : 0.40000000E+01 AA.
  Species O                   : Basic radial grid will be enhanced according to radial_multiplier =   2, to contain    73 grid points.
 
  Finished reading input file 'control.in'. Consistency checks are next.
 
  Target number of points in a grid batch is not set. Defaulting to  100
  Method for grid partitioning is not set. Defaulting to parallel hash+maxmin partitioning.
  Batch size limit is not set. Defaulting to    200
  By default, will store active basis functions for each batch.
  If in need of memory, prune_basis_once .false. can be used to disable this option.
  communication_type for Hartree potential was not specified.
  Defaulting to calc_hartree .
  Pulay mixer: Number of initial linear mixing iterations not set.
  Defaulting to    0 iterations.
  Work space size for distributed Hartree potential not set.
  Defaulting to   0.200000E+03 MB.
  Algorithm-dependent basis array size parameters:
  | n_max_pulay                         :       10
  Geometry relaxation not requested: no relaxation will be performed.
  Handling of forces: Unphysical translation and rotation will be removed from forces.
  No accuracy limit for integral partition fn. given. Defaulting to  0.1000E-14.
  No threshold value for u(r) in integrations given. Defaulting to  0.1000E-05.
  No accuracy for occupation numbers given. Defaulting to  0.1000E-07.
  No threshold value for occupation numbers given. Defaulting to  0.0000E+00.
  No accuracy for fermi level given. Defaulting to  0.1000E-19.
  Maximum # of iterations to find E_F not set. Defaulting to  200.
  Preferred method for the eigenvalue solver ('KS_method') not specified in 'control.in'.
  Calling blacs routine to test compilation state
  Since scalapack support is enabled, defaulting to 'elpa'.
  Preferred method for the MBD eigenvalue solver ('mbd_eigensolver') not specified in 'control.in'.
  Calling blacs routine to test compilation state
  Since scalapack support is enabled, defaulting to 'scaLAPACK'.
  Will not use alltoall communication since running on < 1024 CPUs.
  Threshold for basis singularities not set.
  Default threshold for basis singularities:  0.1000E-04
  partition_type (choice of integration weights) for integrals was not specified.
  | Using a version of the partition function of Stratmann and coworkers ('stratmann_smoother').
  | At each grid point, the set of atoms used to build the partition table is smoothly restricted to
  | only those atoms whose free-atom density would be non-zero at that grid point.
  Partitioning for Hartree potential was not defined. Using partition_type for integrals.
  | Adjusted default value of keyword multip_moments_threshold to:       0.10000000E-11
  | This value may affect high angular momentum components of the Hartree potential in periodic systems.
  No q(lm)/r^(l+1) cutoff set for long-range Hartree potential.
  | Using default value of  0.100000E-09 .
  | Verify using the multipole_threshold keyword.
  Defaulting to new monopole extrapolation.
  Density update method: automatic selection selected.
------------------------------------------------------------


------------------------------------------------------------
          Reading geometry description geometry.in.
------------------------------------------------------------
 * Warning! You did not set the 'relativistic' flag in input file 'control.in'.
 * Since you are not attempting to treat any elements beyond Ca(Z=20), FHI-aims
 * will default to 'relativistic none'.
 * You must ensure that this is really what you want!!
 * For example, DO NOT compute total-energy differences between results from
 * different settings of the 'relativistic' flag.
  Input structure read successfully.
  The structure contains       32 atoms,  and a total of        116.000 electrons.

  Input geometry:
  | No unit cell requested.
  | Atomic structure:
  |       Atom                x [A]            y [A]            z [A]
  |    1: Species C             -1.252359        -1.049577         2.376979
  |    2: Species C             -1.829413         0.316764         2.668734
  |    3: Species O             -1.545049         0.942974         3.692283
  |    4: Species H             -0.323737        -1.144993         2.946970
  |    5: Species H             -1.060184        -1.232061         1.313921
  |    6: Species H             -1.946339        -1.829191         2.724252
  |    7: Species N             -2.737646         0.859455         1.786492
  |    8: Species C             -3.212704         0.398070         0.475423
  |    9: Species C             -3.608660        -1.102711         0.448041
  |   10: Species O             -3.090807        -1.872092        -0.356339
  |   11: Species H             -2.997757         1.805474         2.052481
  |   12: Species H             -4.148754         0.955936         0.303119
  |   13: Species C             -2.243842         0.730184        -0.659460
  |   14: Species H             -1.301669         0.181369        -0.547608
  |   15: Species H             -2.026940         1.806126        -0.655617
  |   16: Species H             -2.673393         0.454761        -1.629623
  |   17: Species N             -4.584944        -1.530888         1.304249
  |   18: Species C             -5.224628        -0.840560         2.412960
  |   19: Species C             -4.708906        -1.464543         3.731304
  |   20: Species O             -4.449697        -2.668125         3.777302
  |   21: Species H             -4.670991        -2.546645         1.332378
  |   22: Species H             -4.951036         0.216055         2.360463
  |   23: Species C             -6.752355        -0.981785         2.343581
  |   24: Species H             -7.233453        -0.458893         3.181275
  |   25: Species H             -7.041087        -2.039929         2.396660
  |   26: Species H             -7.129978        -0.563008         1.402445
  |   27: Species N             -4.605922        -0.662096         4.823601
  |   28: Species C             -4.712102         0.788410         4.901703
  |   29: Species H             -4.227411        -1.145455         5.633979
  |   30: Species H             -4.964671         1.064726         5.932193
  |   31: Species H             -5.523665         1.156889         4.263412
  |   32: Species H             -3.767665         1.284091         4.627199
  |

  | The smallest distance between any two atoms is         1.01654358 AA.
  |
  | The first atom of this pair is atom number                      7 .
  | The second atom of this pair is atom number                    11 .

  Number of empty states per atom not set in control.in - providing a guess from actual geometry.
  | Total number of empty states used during s.c.f. cycle:       71
  If you use a very high smearing, use empty_states (per atom!) in control.in to increase this value.

  Structure-dependent array size parameters: 
  | Maximum number of distinct radial functions  :       40
  | Maximum number of basis functions            :      840
  | Number of Kohn-Sham states (occupied + empty):      129
------------------------------------------------------------

------------------------------------------------------------
          Preparing all fixed parts of the calculation.
------------------------------------------------------------
  Determining machine precision:
    2.225073858507201E-308
  Setting up grids for atomic and cluster calculations.

  Creating wave function, potential, and density for free atoms.

  Species: H

  List of occupied orbitals and eigenvalues:
    n    l              occ      energy [Ha]    energy [eV]
    1    0           1.0000        -0.238382        -6.4867


  Species: C

  List of occupied orbitals and eigenvalues:
    n    l              occ      energy [Ha]    energy [eV]
    1    0           2.0000       -10.041232      -273.2358
    2    0           2.0000        -0.504327       -13.7234
    2    1           2.0000        -0.193750        -5.2722


  Species: N

  List of occupied orbitals and eigenvalues:
    n    l              occ      energy [Ha]    energy [eV]
    1    0           2.0000       -14.129007      -384.4699
    2    0           2.0000        -0.681802       -18.5528
    2    1           3.0000        -0.260543        -7.0897


  Species: O

  List of occupied orbitals and eigenvalues:
    n    l              occ      energy [Ha]    energy [eV]
    1    0           2.0000       -18.898576      -514.2564
    2    0           2.0000        -0.878795       -23.9132
    2    1           4.0000        -0.332075        -9.0362

  Creating fixed part of basis set: Ionic, confined, hydrogenic.
 
  H                    hydrogenic:
 
  List of hydrogenic basis orbitals: 
    n    l      effective z      eigenvalue [eV]  inner max. [A]     outer max. [A]     outer radius [A]   
    2    0         2.100000       -14.9965           0.193243           1.317208           5.373006
    2    1         3.500000       -41.6672           0.602369           0.602369           4.056063
    1    0         0.850000        -9.8292           0.624871           0.624871           5.373006
    2    1         3.700000       -46.5653           0.573622           0.573622           3.910002
    2    0         1.200000        -4.5995           0.334980           2.228188           5.505995
    3    2         7.000000       -74.0753           0.680699           0.680699           3.769201
 
 
  C                    hydrogenic:
 
  List of hydrogenic basis orbitals: 
    n    l      effective z      eigenvalue [eV]  inner max. [A]     outer max. [A]     outer radius [A]   
    2    1         1.700000        -9.8152           1.245706           1.245706           5.401630
    3    2         6.000000       -54.4226           0.792453           0.792453           4.178599
    2    0         4.900000       -81.6681           0.082559           0.562749           3.353238
    4    3         9.800000       -81.6681           0.863254           0.863254           4.028125
    3    1         5.200000       -40.8774           0.305389           1.215618           4.898362
    3    0         4.300000       -27.9508           0.091041           1.610311           5.401630
    5    4        14.400000      -112.8510           0.917666           0.917666           3.883070
    3    2         6.200000       -58.1113           0.763917           0.763917           4.077671
 
 
  N                    hydrogenic:
 
  List of hydrogenic basis orbitals: 
    n    l      effective z      eigenvalue [eV]  inner max. [A]     outer max. [A]     outer radius [A]   
    2    1         1.800000       -11.0118           1.177451           1.177451           5.427479
    3    2         6.800000       -69.9029           0.704619           0.704619           3.854246
    3    0         5.800000       -50.8549           0.067388           1.191934           4.629968
    4    3        10.800000       -99.1854           0.786571           0.786571           3.761152
    3    1         5.800000       -50.8549           0.274880           1.094176           4.518138
    1    0         0.800000        -8.7059           0.662839           0.662839           5.361532
    5    4        16.000000      -139.3222           0.825990           0.825990           3.625711
    3    2         4.900000       -36.2967           0.968267           0.968267           4.862000
 
 
  O                    hydrogenic:
 
  List of hydrogenic basis orbitals: 
    n    l      effective z      eigenvalue [eV]  inner max. [A]     outer max. [A]     outer radius [A]   
    2    1         1.800000       -11.0118           1.178562           1.178562           5.432602
    3    2         7.600000       -87.3182           0.624125           0.624125           3.541477
    3    0         6.400000       -61.9209           0.061167           1.081902           4.306578
    4    3        11.600000      -114.4238           0.731631           0.731631           3.585037
    3    1         6.200000       -58.1113           0.255680           1.030270           4.306578
    3    2         5.600000       -47.4081           0.847233           0.847233           4.413171
    5    4        17.600000      -168.5799           0.749740           0.749740           3.372465
    1    0         0.750000        -7.6499           0.705284           0.705284           5.366593
 

  Adding cutoff potential to free-atom effective potential.
  Creating atomic-like basis functions for current effective potential.

  Species H                   :

  List of atomic basis orbitals and eigenvalues:
    n    l      energy [Ha]    energy [eV]    outer radius [A]
    1    0        -0.238382        -6.4867       5.373006


  Species C                   :

  List of atomic basis orbitals and eigenvalues:
    n    l      energy [Ha]    energy [eV]    outer radius [A]
    1    0       -10.041232      -273.2358       1.934409
    2    0        -0.504327       -13.7234       5.271162
    2    1        -0.193750        -5.2722       5.401630


  Species N                   :

  List of atomic basis orbitals and eigenvalues:
    n    l      energy [Ha]    energy [eV]    outer radius [A]
    1    0       -14.129007      -384.4699       1.637919
    2    0        -0.681802       -18.5528       5.168461
    2    1        -0.260543        -7.0897       5.361532


  Species O                   :

  List of atomic basis orbitals and eigenvalues:
    n    l      energy [Ha]    energy [eV]    outer radius [A]
    1    0       -18.898576      -514.2564       1.415765
    2    0        -0.878795       -23.9132       5.048385
    2    1        -0.332075        -9.0362       5.301386

  Assembling full basis from fixed parts.
  | Species H :   atomic orbital   1 s accepted.
  | Species H :    hydro orbital   2 s accepted.
  | Species H :    hydro orbital   1 s accepted.
  | Species H :    hydro orbital   2 s accepted.
  | Species H :    hydro orbital   2 p accepted.
  | Species H :    hydro orbital   2 p accepted.
  | Species H :    hydro orbital   3 d accepted.
  | Species C :   atomic orbital   1 s accepted.
  | Species C :    hydro orbital   2 s accepted.
  | Species C :   atomic orbital   2 s accepted.
  | Species C :    hydro orbital   3 s accepted.
  | Species C :    hydro orbital   3 p accepted.
  | Species C :   atomic orbital   2 p accepted.
  | Species C :    hydro orbital   2 p accepted.
  | Species C :    hydro orbital   3 d accepted.
  | Species C :    hydro orbital   3 d accepted.
  | Species C :    hydro orbital   4 f accepted.
  | Species C :    hydro orbital   5 g accepted.
  | Species N :   atomic orbital   1 s accepted.
  | Species N :    hydro orbital   3 s accepted.
  | Species N :   atomic orbital   2 s accepted.
  | Species N :    hydro orbital   1 s accepted.
  | Species N :    hydro orbital   3 p accepted.
  | Species N :   atomic orbital   2 p accepted.
  | Species N :    hydro orbital   2 p accepted.
  | Species N :    hydro orbital   3 d accepted.
  | Species N :    hydro orbital   3 d accepted.
  | Species N :    hydro orbital   4 f accepted.
  | Species N :    hydro orbital   5 g accepted.
  | Species O :   atomic orbital   1 s accepted.
  | Species O :    hydro orbital   3 s accepted.
  | Species O :   atomic orbital   2 s accepted.
  | Species O :    hydro orbital   1 s accepted.
  | Species O :    hydro orbital   3 p accepted.
  | Species O :   atomic orbital   2 p accepted.
  | Species O :    hydro orbital   2 p accepted.
  | Species O :    hydro orbital   3 d accepted.
  | Species O :    hydro orbital   3 d accepted.
  | Species O :    hydro orbital   4 f accepted.
  | Species O :    hydro orbital   5 g accepted.
 
  Basis size parameters after reduction:
  | Total number of radial functions:       40
  | Total number of basis functions :      840
 
  Testing on-site integration grid accuracy.
  |  Species  Function  <phi|h_atom|phi> (log., in eV)  <phi|h_atom|phi> (rad., in eV)
           1        1                 -6.4869821809                 -6.4870742227
           1        2                 13.5044133542                 13.5041049177
           1        3                 32.7854418792                 32.7779770519
           1        4                 33.7995553101                 33.7152624900 ***
           1        5                 28.8558651799                 28.8558652046
           1        6                 59.6361831893                 59.6362535845
           1        7                 60.2733718049                 60.2733715484
           2        8               -273.2358277112               -273.2358261765
           2        9                -10.7624923123                -10.7625144012
           2       10                 17.4634079027                 17.4634252127
           2       11                 53.0363661832                 53.0366180446
           2       12                 15.0981351967                 15.0981317714
           2       13                  3.8522181899                  3.8522770949
           2       14                 12.1181835661                 12.1206868578
           2       15                 29.4320778347                 29.4320780959
           2       16                 54.8753777694                 54.8752901936
           2       17                 59.3533975461                 59.3533974833
           2       18                 93.4537491195                 93.4537492066
           3       19               -384.4698526889               -384.4698499465
           3       20                 12.5691022037                 12.5690910168
           3       21                -15.7489097511                -15.7489165588
           3       22                 27.0978334940                 27.0985589490
           3       23                 18.5949116966                 18.5949125562
           3       24                  1.2212828291                  1.2212855301
           3       25                 13.4428926797                 13.4434051125
           3       26                 35.9380614500                 35.9380613666
           3       27                 39.9231532098                 39.9231654735
           3       28                 72.9957335806                 72.9957336833
           3       29                116.4231321147                116.4231321431
           4       30               -514.2564144315               -514.2564099626
           4       31                 15.1726678541                 15.1726530877
           4       32                -21.5447785304                -21.5447874973
           4       33                 14.4944558459                 14.4944698284
           4       34                 20.8882174564                 20.8882178906
           4       35                 -2.4850315908                 -2.4850322289
           4       36                 13.8600193195                 13.8599826966
           4       37                 45.8243383616                 45.8243383675
           4       38                 52.1840606465                 52.1840622440
           4       39                 85.4074185510                 85.4074185819
           4       40                142.0983717302                142.0983717339
 * Note: Onsite integrals marked "***" above are less accurate than
 * onsite_accuracy_threshold =    0.03000 eV. Usually, this is harmless.
 * When in doubt, tighten the "radial" and/or "radial_multiplier" flags to check.

  Preparing densities etc. for the partition functions (integrals / Hartree potential).

  Preparations completed.
  max(cpu_time)          :      0.236 s.
  Wall clock time (cpu1) :      0.234 s.
------------------------------------------------------------

------------------------------------------------------------
          Begin self-consistency loop: Initialization.

          Date     :  20170309, Time     :  183956.392
------------------------------------------------------------

  Initializing index lists of integration centers etc. from given atomic structure:
  | Number of centers in hartree potential         :        32
  | Number of centers in hartree multipole         :        32
  | Number of centers in electron density summation:        32
  | Number of centers in basis integrals           :        32
  | Number of centers in integrals                 :        32
  | Number of centers in hamiltonian               :        32
  Using modified Scalapack Eigenvalue solver (ELPA)
  * Using 32 tasks for Scalapack Eigenvalue solver.
  Detailed listing of tasks and assigned k-points:
  (for non-periodic systems, the "k-point" denotes an internal label only)
   Task     0 k-point     1 on eos195
   Task     1 k-point     1 on eos195
   Task     2 k-point     1 on eos195
   Task     3 k-point     1 on eos195
   Task     4 k-point     1 on eos195
   Task     5 k-point     1 on eos195
   Task     6 k-point     1 on eos195
   Task     7 k-point     1 on eos195
   Task     8 k-point     1 on eos195
   Task     9 k-point     1 on eos195
   Task    10 k-point     1 on eos195
   Task    11 k-point     1 on eos195
   Task    12 k-point     1 on eos195
   Task    13 k-point     1 on eos195
   Task    14 k-point     1 on eos195
   Task    15 k-point     1 on eos195
   Task    16 k-point     1 on eos195
   Task    17 k-point     1 on eos195
   Task    18 k-point     1 on eos195
   Task    19 k-point     1 on eos195
   Task    20 k-point     1 on eos195
   Task    21 k-point     1 on eos195
   Task    22 k-point     1 on eos195
   Task    23 k-point     1 on eos195
   Task    24 k-point     1 on eos195
   Task    25 k-point     1 on eos195
   Task    26 k-point     1 on eos195
   Task    27 k-point     1 on eos195
   Task    28 k-point     1 on eos195
   Task    29 k-point     1 on eos195
   Task    30 k-point     1 on eos195
   Task    31 k-point     1 on eos195
  Tasks:    32 split into      8 X      4 BLACS grid
  Calculating blocksize based on n_basis =          840 max_nprow =            8 max_npcol =            4
  Scalapack blocksize set to:           16
  Required Scalapack workspace - INTEGER:            1 REAL:             1
  Partitioning the integration grid into batches with parallel hashing+maxmin method.
  | Number of batches:     4922
  | Maximal batch size:     200
  | Minimal batch size:      40
  | Average batch size:     107.218
  | Standard deviation of batch sizes:      33.164

  Integration load balanced across    32 MPI tasks.
  Work distribution over tasks is as follows:
  Task     0 has      16536 integration points.
  Task     1 has      16470 integration points.
  Task     2 has      16571 integration points.
  Task     3 has      16476 integration points.
  Task     4 has      16431 integration points.
  Task     5 has      16438 integration points.
  Task     6 has      16436 integration points.
  Task     7 has      16464 integration points.
  Task     8 has      16441 integration points.
  Task     9 has      16440 integration points.
  Task    10 has      16450 integration points.
  Task    11 has      16522 integration points.
  Task    12 has      16537 integration points.
  Task    13 has      16523 integration points.
  Task    14 has      16431 integration points.
  Task    15 has      16574 integration points.
  Task    16 has      16462 integration points.
  Task    17 has      16524 integration points.
  Task    18 has      16579 integration points.
  Task    19 has      16529 integration points.
  Task    20 has      16492 integration points.
  Task    21 has      16444 integration points.
  Task    22 has      16444 integration points.
  Task    23 has      16568 integration points.
  Task    24 has      16439 integration points.
  Task    25 has      16540 integration points.
  Task    26 has      16436 integration points.
  Task    27 has      16469 integration points.
  Task    28 has      16471 integration points.
  Task    29 has      16552 integration points.
  Task    30 has      16464 integration points.
  Task    31 has      16575 integration points.
  Initializing partition tables, free-atom densities, potentials, etc. across the integration grid (initialize_grid_storage).
  | initialize_grid_storage: Actual outermost partition radius vs. multipole_radius_free
  | (-- VB: in principle, multipole_radius_free should be larger, hence this output)
  | Species        1: Confinement radius =              6.000000000000000 AA, multipole_radius_free =              6.071692442739658 AA.
  | Species        1: outer_partition_radius set to              6.071692442739658 AA .
  | Species        2: Confinement radius =              6.000000000000000 AA, multipole_radius_free =              6.029870734432609 AA.
  | Species        2: outer_partition_radius set to              6.029870734432609 AA .
  | Species        3: Confinement radius =              6.000000000000000 AA, multipole_radius_free =              6.058726835495003 AA.
  | Species        3: outer_partition_radius set to              6.058726835495003 AA .
  | Species        4: Confinement radius =              6.000000000000000 AA, multipole_radius_free =              6.064445521808699 AA.
  | Species        4: outer_partition_radius set to              6.064445521808699 AA .
  | Original list of interatomic distances with          32 x         32 entries is created.
  | Net number of integration points:   527728
  | of which are non-zero points    :   410128
  Obtaining max. number of non-zero basis functions in each batch (get_n_compute_maxes).
  | Maximal number of non-zero basis functions:      812 in task     0
  | Maximal number of non-zero basis functions:      826 in task     1
  | Maximal number of non-zero basis functions:      814 in task     2
  | Maximal number of non-zero basis functions:      822 in task     3
  | Maximal number of non-zero basis functions:      828 in task     4
  | Maximal number of non-zero basis functions:      826 in task     5
  | Maximal number of non-zero basis functions:      808 in task     6
  | Maximal number of non-zero basis functions:      822 in task     7
  | Maximal number of non-zero basis functions:      824 in task     8
  | Maximal number of non-zero basis functions:      827 in task     9
  | Maximal number of non-zero basis functions:      821 in task    10
  | Maximal number of non-zero basis functions:      820 in task    11
  | Maximal number of non-zero basis functions:      822 in task    12
  | Maximal number of non-zero basis functions:      818 in task    13
  | Maximal number of non-zero basis functions:      814 in task    14
  | Maximal number of non-zero basis functions:      825 in task    15
  | Maximal number of non-zero basis functions:      786 in task    16
  | Maximal number of non-zero basis functions:      805 in task    17
  | Maximal number of non-zero basis functions:      817 in task    18
  | Maximal number of non-zero basis functions:      824 in task    19
  | Maximal number of non-zero basis functions:      819 in task    20
  | Maximal number of non-zero basis functions:      825 in task    21
  | Maximal number of non-zero basis functions:      822 in task    22
  | Maximal number of non-zero basis functions:      816 in task    23
  | Maximal number of non-zero basis functions:      824 in task    24
  | Maximal number of non-zero basis functions:      824 in task    25
  | Maximal number of non-zero basis functions:      823 in task    26
  | Maximal number of non-zero basis functions:      826 in task    27
  | Maximal number of non-zero basis functions:      823 in task    28
  | Maximal number of non-zero basis functions:      830 in task    29
  | Maximal number of non-zero basis functions:      804 in task    30
  | Maximal number of non-zero basis functions:      832 in task    31
  Selecting the method for density update.
  Loop over occupied states selected for charge density update.
  Integrating Hamiltonian matrix: batch-based integration.
  Time summed over all CPUs for integration: real work       24.744 s, elapsed       26.047 s
  Integrating overlap matrix.
  Time summed over all CPUs for integration: real work       15.194 s, elapsed       16.027 s
  Deallocating overlap matrix.

  Updating Kohn-Sham eigenvalues, eigenvectors, occupation numbers, and Fermi level.
  Solving generalized eigenproblem
  Solving real symmetric generalised eigenvalue problem by standard ScaLAPACK.
  Transforming overlap matrix with ScaLAPACK and checking for singularities.
  : Overlap matrix is nonsingular, using Cholesky decomposition
  | Lowest eigenvalue:  0.937744E-04
  Factoring overlap matrix with Cholesky decomposition
  Using Cholesky factor for transformation
  Using 1-stage real ELPA solver
  Determining occupation numbers for Kohn-Sham eigenstates.
  | Chemical potential (Fermi level) in eV                 : -.98345429E+01
  | Error in electron count due to remaining E_F inaccuracy: 0.00000000E+00
  | Maximum occupation number of highest empty state:  0.00E+00

  Writing Kohn-Sham eigenvalues.

  State    Occupation    Eigenvalue [Ha]    Eigenvalue [eV]
      1       2.00000         -18.974734         -516.32878
      2       2.00000         -18.973402         -516.29254
      3       2.00000         -18.973232         -516.28790
      4       2.00000         -14.255397         -387.90908
      5       2.00000         -14.254226         -387.87723
      6       2.00000         -14.251756         -387.81002
      7       2.00000         -10.171695         -276.78592
      8       2.00000         -10.171405         -276.77803
      9       2.00000         -10.170343         -276.74912
     10       2.00000         -10.166404         -276.64192
     11       2.00000         -10.149429         -276.18002
     12       2.00000         -10.147019         -276.11444
     13       2.00000         -10.135300         -275.79554
     14       2.00000         -10.134461         -275.77272
     15       2.00000         -10.133746         -275.75326
     16       2.00000          -1.134623          -30.87465
     17       2.00000          -1.129932          -30.74701
     18       2.00000          -1.129266          -30.72890
     19       2.00000          -1.017946          -27.69973
     20       2.00000          -1.012107          -27.54084
     21       2.00000          -1.004103          -27.32303
     22       2.00000          -0.880791          -23.96754
     23       2.00000          -0.875787          -23.83138
     24       2.00000          -0.849175          -23.10723
     25       2.00000          -0.816887          -22.22862
     26       2.00000          -0.775785          -21.11019
     27       2.00000          -0.765823          -20.83911
     28       2.00000          -0.708110          -19.26864
     29       2.00000          -0.690899          -18.80031
     30       2.00000          -0.664387          -18.07889
     31       2.00000          -0.627896          -17.08591
     32       2.00000          -0.625034          -17.00804
     33       2.00000          -0.614486          -16.72101
     34       2.00000          -0.604660          -16.45364
     35       2.00000          -0.591751          -16.10235
     36       2.00000          -0.580829          -15.80517
     37       2.00000          -0.569120          -15.48654
     38       2.00000          -0.562361          -15.30262
     39       2.00000          -0.558669          -15.20216
     40       2.00000          -0.551232          -14.99978
     41       2.00000          -0.550525          -14.98056
     42       2.00000          -0.545770          -14.85116
     43       2.00000          -0.535406          -14.56914
     44       2.00000          -0.528049          -14.36894
     45       2.00000          -0.522489          -14.21765
     46       2.00000          -0.514080          -13.98884
     47       2.00000          -0.510651          -13.89552
     48       2.00000          -0.503821          -13.70967
     49       2.00000          -0.492895          -13.41236
     50       2.00000          -0.489011          -13.30667
     51       2.00000          -0.478755          -13.02759
     52       2.00000          -0.476398          -12.96345
     53       2.00000          -0.407550          -11.09001
     54       2.00000          -0.404927          -11.01862
     55       2.00000          -0.401241          -10.91833
     56       2.00000          -0.387254          -10.53772
     57       2.00000          -0.385053          -10.47781
     58       2.00000          -0.380751          -10.36076
     59       0.00000          -0.169169           -4.60333
     60       0.00000          -0.163919           -4.46046
     61       0.00000          -0.156267           -4.25225
     62       0.00000          -0.080987           -2.20377
     63       0.00000          -0.064908           -1.76625
     64       0.00000          -0.060390           -1.64328
     65       0.00000          -0.054251           -1.47625
     66       0.00000          -0.040761           -1.10915
     67       0.00000          -0.038982           -1.06076
     68       0.00000          -0.030940           -0.84191
     69       0.00000          -0.026568           -0.72295
     70       0.00000          -0.023732           -0.64577
     71       0.00000          -0.022091           -0.60112
     72       0.00000          -0.015001           -0.40820
     73       0.00000          -0.012523           -0.34078
     74       0.00000          -0.009253           -0.25180
     75       0.00000          -0.001809           -0.04923
     76       0.00000          -0.000632           -0.01719
     77       0.00000           0.004975            0.13537
     78       0.00000           0.006503            0.17696
     79       0.00000           0.015731            0.42807
     80       0.00000           0.016218            0.44133
     81       0.00000           0.018815            0.51199
     82       0.00000           0.024258            0.66010
     83       0.00000           0.036331            0.98863
     84       0.00000           0.037372            1.01696
     85       0.00000           0.046461            1.26426
     86       0.00000           0.050986            1.38739
     87       0.00000           0.054852            1.49260
     88       0.00000           0.064380            1.75187
     89       0.00000           0.072935            1.98468
     90       0.00000           0.073893            2.01074
     91       0.00000           0.075702            2.05995
     92       0.00000           0.078781            2.14375
     93       0.00000           0.083424            2.27008
     94       0.00000           0.089850            2.44495
     95       0.00000           0.094771            2.57886
     96       0.00000           0.101142            2.75222
     97       0.00000           0.106402            2.89534
     98       0.00000           0.110396            3.00402
     99       0.00000           0.116271            3.16389
    100       0.00000           0.124598            3.39049
    101       0.00000           0.128827            3.50555
    102       0.00000           0.130785            3.55884
    103       0.00000           0.141109            3.83978
    104       0.00000           0.143537            3.90583
    105       0.00000           0.150578            4.09743
    106       0.00000           0.154412            4.20178
    107       0.00000           0.156351            4.25452
    108       0.00000           0.162122            4.41156
    109       0.00000           0.166075            4.51913
    110       0.00000           0.172863            4.70383
    111       0.00000           0.184626            5.02394
    112       0.00000           0.188373            5.12589
    113       0.00000           0.190042            5.17130
    114       0.00000           0.198518            5.40196
    115       0.00000           0.204547            5.56600
    116       0.00000           0.211073            5.74358
    117       0.00000           0.214259            5.83028
    118       0.00000           0.215933            5.87584
    119       0.00000           0.217992            5.93186
    120       0.00000           0.224092            6.09785
    121       0.00000           0.228369            6.21425
    122       0.00000           0.234958            6.39354
    123       0.00000           0.237302            6.45732
    124       0.00000           0.243074            6.61438
    125       0.00000           0.251703            6.84917
    126       0.00000           0.252231            6.86356
    127       0.00000           0.262105            7.13225
    128       0.00000           0.266264            7.24542
    129       0.00000           0.278861            7.58819

  Highest occupied state (VBM) at    -10.36075549 eV
  | Occupation number:      2.00000000

  Lowest unoccupied state (CBM) at    -4.60332606 eV
  | Occupation number:      0.00000000

  Overall HOMO-LUMO gap:      5.75742943 eV.
  Calculating total energy contributions from superposition of free atom densities.

  Total energy components:
  | Sum of eigenvalues            :        -437.83767251 Ha      -11914.16925513 eV
  | XC energy correction          :         -98.82730515 Ha       -2689.22779947 eV
  | XC potential correction       :         127.03268283 Ha        3456.73517643 eV
  | Free-atom electrostatic energy:        -333.64294281 Ha       -9078.88640265 eV
  | Hartree energy correction     :           0.00000000 Ha           0.00000000 eV
  | MBD@rsSCS energy              :           0.00000000 Ha           0.00000000 eV
  | Entropy correction            :          -0.00000000 Ha          -0.00000000 eV
  | ---------------------------
  | Total energy                  :        -743.27523764 Ha      -20225.54828081 eV
  | Total energy, T -> 0          :        -743.27523764 Ha      -20225.54828081 eV  <-- do not rely on this value for anything but (periodic) metals
  | Electronic free energy        :        -743.27523764 Ha      -20225.54828081 eV

  Derived energy quantities:
  | Kinetic energy                :         735.17500680 Ha       20005.12978492 eV
  | Electrostatic energy          :       -1379.62293930 Ha      -37541.45026627 eV
  | Energy correction for multipole
  | error in Hartree potential    :           0.00000000 Ha           0.00000000 eV
  | Sum of eigenvalues per atom                           :        -372.31778922 eV
  | Total energy (T->0) per atom                          :        -632.04838378 eV  <-- do not rely on this value for anything but (periodic) metals
  | Electronic free energy per atom                       :        -632.04838378 eV
  Initialize hartree_potential_storage
  Max. number of atoms included in rho_multipole:           32

  End scf initialization - timings             :  max(cpu_time)    wall_clock(cpu1)
  | Time for scf. initialization               :        2.068 s           2.067 s
  | Boundary condition initialization          :        0.000 s           0.000 s
  | Integration                                :        1.340 s           1.336 s
  | Solution of K.-S. eqns.                    :        0.076 s           0.076 s
  | Grid partitioning                          :        0.276 s           0.270 s
  | Preloading free-atom quantities on grid    :        0.028 s           0.027 s
  | Free-atom superposition energy             :        0.044 s           0.042 s
  | Total energy evaluation                    :        0.000 s           0.001 s
------------------------------------------------------------

------------------------------------------------------------
          Begin self-consistency iteration #    1

  Date     :  20170309, Time     :  183958.459
------------------------------------------------------------
  Evaluating new KS density.
  Integration grid: deviation in total charge (<rho> - N_e) =   5.684342E-14
  Pulay mixing of updated and previous charge densities.

  Evaluating partitioned Hartree potential by multipole expansion.
  | Analytical far-field extrapolation by fixed multipoles:
  | Hartree multipole sum: apparent total charge =  -0.602758E-05
  Summing up the Hartree potential.
  Time summed over all CPUs for potential: real work        9.677 s, elapsed       10.004 s
  | RMS charge density error from multipole expansion :   0.108310E-01

  Integrating Hamiltonian matrix: batch-based integration.
  Time summed over all CPUs for integration: real work       24.719 s, elapsed       26.026 s

  Updating Kohn-Sham eigenvalues, eigenvectors, occupation numbers, and Fermi level.
  Solving generalized eigenproblem
  Solving real symmetric generalised eigenvalue problem by standard ScaLAPACK.
  Using Cholesky factor for transformation
  Using 2-stage real ELPA solver
  K-Point:    1, Trafo times: 1-stage=     0.022 s, 2-stage=     0.019 s ==> Using 2-stage solver
  Determining occupation numbers for Kohn-Sham eigenstates.
  | Chemical potential (Fermi level) in eV                 : -.37450346E+01
  | Error in electron count due to remaining E_F inaccuracy: 0.00000000E+00
  | Maximum occupation number of highest empty state:  0.00E+00

  Writing Kohn-Sham eigenvalues.

  State    Occupation    Eigenvalue [Ha]    Eigenvalue [eV]
      1       2.00000         -18.619125         -506.65217
      2       2.00000         -18.618953         -506.64748
      3       2.00000         -18.616464         -506.57975
      4       2.00000         -14.000100         -380.96210
      5       2.00000         -13.989985         -380.68686
      6       2.00000         -13.989115         -380.66320
      7       2.00000         -10.062787         -273.82238
      8       2.00000         -10.055070         -273.61238
      9       2.00000         -10.054869         -273.60692
     10       2.00000          -9.975228         -271.43978
     11       2.00000          -9.969731         -271.29019
     12       2.00000          -9.898191         -269.34347
     13       2.00000          -9.844464         -267.88151
     14       2.00000          -9.839934         -267.75824
     15       2.00000          -9.829282         -267.46837
     16       2.00000          -0.970377          -26.40529
     17       2.00000          -0.961629          -26.16726
     18       2.00000          -0.957878          -26.06518
     19       2.00000          -0.872647          -23.74592
     20       2.00000          -0.863187          -23.48852
     21       2.00000          -0.860702          -23.42089
     22       2.00000          -0.736555          -20.04268
     23       2.00000          -0.726805          -19.77737
     24       2.00000          -0.693251          -18.86432
     25       2.00000          -0.676905          -18.41951
     26       2.00000          -0.634871          -17.27571
     27       2.00000          -0.630847          -17.16622
     28       2.00000          -0.581968          -15.83614
     29       2.00000          -0.565300          -15.38260
     30       2.00000          -0.541136          -14.72507
     31       2.00000          -0.499241          -13.58503
     32       2.00000          -0.489529          -13.32076
     33       2.00000          -0.480748          -13.08181
     34       2.00000          -0.462615          -12.58839
     35       2.00000          -0.450028          -12.24587
     36       2.00000          -0.446621          -12.15319
     37       2.00000          -0.430598          -11.71718
     38       2.00000          -0.425152          -11.56897
     39       2.00000          -0.415048          -11.29403
     40       2.00000          -0.400945          -10.91028
     41       2.00000          -0.397380          -10.81327
     42       2.00000          -0.387218          -10.53673
     43       2.00000          -0.384251          -10.45600
     44       2.00000          -0.379801          -10.33491
     45       2.00000          -0.375756          -10.22483
     46       2.00000          -0.373903          -10.17441
     47       2.00000          -0.366245           -9.96603
     48       2.00000          -0.357327           -9.72337
     49       2.00000          -0.352016           -9.57883
     50       2.00000          -0.347170           -9.44698
     51       2.00000          -0.340277           -9.25942
     52       2.00000          -0.331993           -9.03398
     53       2.00000          -0.239806           -6.52545
     54       2.00000          -0.236882           -6.44588
     55       2.00000          -0.230527           -6.27295
     56       2.00000          -0.216758           -5.89829
     57       2.00000          -0.214019           -5.82376
     58       2.00000          -0.212052           -5.77022
     59       0.00000          -0.062808           -1.70909
     60       0.00000          -0.054382           -1.47981
     61       0.00000          -0.042730           -1.16273
     62       0.00000          -0.036299           -0.98776
     63       0.00000          -0.020866           -0.56778
     64       0.00000          -0.011891           -0.32357
     65       0.00000          -0.009666           -0.26303
     66       0.00000           0.003377            0.09190
     67       0.00000           0.009252            0.25176
     68       0.00000           0.019055            0.51851
     69       0.00000           0.021673            0.58975
     70       0.00000           0.031404            0.85454
     71       0.00000           0.041036            1.11663
     72       0.00000           0.045427            1.23613
     73       0.00000           0.049127            1.33682
     74       0.00000           0.051406            1.39883
     75       0.00000           0.055403            1.50758
     76       0.00000           0.064546            1.75639
     77       0.00000           0.068375            1.86059
     78       0.00000           0.074719            2.03321
     79       0.00000           0.077474            2.10816
     80       0.00000           0.086658            2.35809
     81       0.00000           0.092412            2.51467
     82       0.00000           0.096671            2.63055
     83       0.00000           0.098588            2.68271
     84       0.00000           0.106050            2.88576
     85       0.00000           0.111994            3.04750
     86       0.00000           0.118125            3.21434
     87       0.00000           0.122774            3.34086
     88       0.00000           0.126433            3.44043
     89       0.00000           0.130023            3.53811
     90       0.00000           0.137882            3.75197
     91       0.00000           0.139497            3.79591
     92       0.00000           0.145454            3.95800
     93       0.00000           0.152636            4.15344
     94       0.00000           0.156439            4.25692
     95       0.00000           0.161235            4.38743
     96       0.00000           0.167984            4.57108
     97       0.00000           0.175135            4.76567
     98       0.00000           0.177973            4.84290
     99       0.00000           0.183417            4.99102
    100       0.00000           0.186308            5.06969
    101       0.00000           0.187934            5.11394
    102       0.00000           0.193057            5.25334
    103       0.00000           0.198412            5.39906
    104       0.00000           0.202087            5.49906
    105       0.00000           0.211194            5.74689
    106       0.00000           0.213382            5.80641
    107       0.00000           0.217001            5.90490
    108       0.00000           0.219589            5.97532
    109       0.00000           0.225641            6.14000
    110       0.00000           0.232086            6.31537
    111       0.00000           0.243310            6.62079
    112       0.00000           0.247386            6.73173
    113       0.00000           0.255488            6.95217
    114       0.00000           0.258416            7.03186
    115       0.00000           0.265693            7.22987
    116       0.00000           0.271035            7.37525
    117       0.00000           0.276095            7.51293
    118       0.00000           0.280750            7.63961
    119       0.00000           0.285413            7.76648
    120       0.00000           0.288439            7.84883
    121       0.00000           0.292961            7.97187
    122       0.00000           0.296338            8.06378
    123       0.00000           0.309096            8.41094
    124       0.00000           0.314180            8.54926
    125       0.00000           0.322181            8.76698
    126       0.00000           0.328196            8.93068
    127       0.00000           0.329550            8.96751
    128       0.00000           0.335596            9.13202
    129       0.00000           0.347275            9.44983

  Highest occupied state (VBM) at     -5.77021602 eV
  | Occupation number:      2.00000000

  Lowest unoccupied state (CBM) at    -1.70908663 eV
  | Occupation number:      0.00000000

  Overall HOMO-LUMO gap:      4.06112940 eV.

  Total energy components:
  | Sum of eigenvalues            :        -417.76252022 Ha      -11367.89656752 eV
  | XC energy correction          :        -100.75033157 Ha       -2741.55601075 eV
  | XC potential correction       :         129.52563540 Ha        3524.57186734 eV
  | Free-atom electrostatic energy:        -333.64294281 Ha       -9078.88640265 eV
  | Hartree energy correction     :         -20.07926420 Ha        -546.38457875 eV
  | MBD@rsSCS energy              :           0.00000000 Ha           0.00000000 eV
  | Entropy correction            :           0.00000000 Ha           0.00000000 eV
  | ---------------------------
  | Total energy                  :        -742.70942342 Ha      -20210.15169233 eV
  | Total energy, T -> 0          :        -742.70942342 Ha      -20210.15169233 eV  <-- do not rely on this value for anything but (periodic) metals
  | Electronic free energy        :        -742.70942342 Ha      -20210.15169233 eV

  Derived energy quantities:
  | Kinetic energy                :         744.01266993 Ha       20245.61483434 eV
  | Electrostatic energy          :       -1385.97176178 Ha      -37714.21051592 eV
  | Energy correction for multipole
  | error in Hartree potential    :          -0.04115083 Ha          -1.11977116 eV
  | Sum of eigenvalues per atom                           :        -355.24676774 eV
  | Total energy (T->0) per atom                          :        -631.56724039 eV  <-- do not rely on this value for anything but (periodic) metals
  | Electronic free energy per atom                       :        -631.56724039 eV

  Self-consistency convergence accuracy:
  | Change of charge density      :  0.9030E+00
  | Change of sum of eigenvalues  :  0.5463E+03 eV
  | Change of total energy        :  0.1540E+02 eV

  End self-consistency iteration #     1       :  max(cpu_time)    wall_clock(cpu1)
  | Time for this iteration                    :        1.720 s           1.717 s
[...]
   Multipole                     : -0.120563E+00  0.593003E+00 -0.274025E-01
   Pulay + GGA                   : -0.287012E+01  0.127873E+02 -0.526683E+00
   MBD@rsSCS                     :  0.367659E-02  0.184391E-01 -0.149293E-01
   ----------------------------------------------------------------
   Total forces(  20)            : -0.481910E-02  0.591750E-02 -0.134169E-01
  atom #   21
   Hellmann-Feynman              :  0.344557E-01  0.405667E-01 -0.483751E-02
   Ionic forces                  :  0.000000E+00  0.000000E+00  0.000000E+00
   Multipole                     : -0.307158E-01  0.118422E-01  0.118100E-01
   Pulay + GGA                   : -0.184937E-01 -0.589538E-01 -0.331119E-02
   MBD@rsSCS                     : -0.407805E-03  0.607666E-02  0.661458E-02
   ----------------------------------------------------------------
   Total forces(  21)            : -0.151616E-01 -0.468285E-03  0.102759E-01
  atom #   22
   Hellmann-Feynman              : -0.223929E-02 -0.531527E-01 -0.140302E-02
   Ionic forces                  :  0.000000E+00  0.000000E+00  0.000000E+00
   Multipole                     : -0.119114E-01  0.310257E-02  0.840550E-02
   Pulay + GGA                   :  0.127872E-01  0.572616E-01 -0.382824E-02
   MBD@rsSCS                     :  0.166912E-01  0.195593E-01  0.115258E-02
   ----------------------------------------------------------------
   Total forces(  22)            :  0.153278E-01  0.267709E-01  0.432681E-02
  atom #   23
   Hellmann-Feynman              : -0.940949E+00 -0.250938E+00 -0.208869E+00
   Ionic forces                  :  0.000000E+00  0.000000E+00  0.000000E+00
   Multipole                     :  0.284656E+00  0.135433E+00  0.962318E-02
   Pulay + GGA                   :  0.650745E+00  0.979506E-01  0.202191E+00
   MBD@rsSCS                     :  0.213749E-01  0.296429E-02  0.276667E-02
   ----------------------------------------------------------------
   Total forces(  23)            :  0.158270E-01 -0.145897E-01  0.571183E-02
  atom #   24
   Hellmann-Feynman              :  0.341521E-01 -0.228682E-01 -0.199338E-01
   Ionic forces                  :  0.000000E+00  0.000000E+00  0.000000E+00
   Multipole                     : -0.139805E-01 -0.148328E-01 -0.243299E-01
   Pulay + GGA                   : -0.206145E-01  0.397369E-01  0.438949E-01
   MBD@rsSCS                     :  0.139115E-01  0.398387E-02  0.744266E-02
   ----------------------------------------------------------------
   Total forces(  24)            :  0.134686E-01  0.601970E-02  0.707382E-02
  atom #   25
   Hellmann-Feynman              :  0.475640E-01  0.300170E-01  0.863624E-02
   Ionic forces                  :  0.000000E+00  0.000000E+00  0.000000E+00
   Multipole                     : -0.156335E-01  0.236824E-01 -0.612009E-02
   Pulay + GGA                   : -0.229414E-01 -0.561072E-01 -0.452304E-02
   MBD@rsSCS                     :  0.126362E-01 -0.110238E-02  0.101839E-02
   ----------------------------------------------------------------
   Total forces(  25)            :  0.216253E-01 -0.351015E-02 -0.988499E-03
  atom #   26
   Hellmann-Feynman              :  0.421183E-01 -0.172601E-01  0.231933E-01
   Ionic forces                  :  0.000000E+00  0.000000E+00  0.000000E+00
   Multipole                     : -0.204873E-01 -0.158386E-01  0.242843E-01
   Pulay + GGA                   : -0.256157E-01  0.333890E-01 -0.480397E-01
   MBD@rsSCS                     :  0.120993E-01  0.465534E-03 -0.153567E-02
   ----------------------------------------------------------------
   Total forces(  26)            :  0.811454E-02  0.755776E-03 -0.209786E-02
  atom #   27
   Hellmann-Feynman              : -0.119037E+01 -0.155817E+01  0.230538E+00
   Ionic forces                  :  0.000000E+00  0.000000E+00  0.000000E+00
   Multipole                     : -0.679166E-02 -0.157210E+00 -0.914251E-01
   Pulay + GGA                   :  0.117997E+01  0.171480E+01 -0.120150E+00
   MBD@rsSCS                     :  0.478587E-02  0.247236E-02 -0.330155E-01
   ----------------------------------------------------------------
   Total forces(  27)            : -0.124010E-01  0.189303E-02 -0.140525E-01
  atom #   28
   Hellmann-Feynman              :  0.167803E+00  0.234705E+01  0.247105E+00
   Ionic forces                  :  0.000000E+00  0.000000E+00  0.000000E+00
   Multipole                     : -0.141637E-01 -0.175594E+00 -0.338717E-02
   Pulay + GGA                   : -0.164569E+00 -0.216650E+01 -0.223697E+00
   MBD@rsSCS                     :  0.934220E-02 -0.104215E-01 -0.237056E-01
   ----------------------------------------------------------------
   Total forces(  28)            : -0.158702E-02 -0.547018E-02 -0.368557E-02
  atom #   29
   Hellmann-Feynman              : -0.708848E-02 -0.122764E-01 -0.627543E-01
   Ionic forces                  :  0.000000E+00  0.000000E+00  0.000000E+00
   Multipole                     : -0.121649E-01  0.383317E-01  0.102135E-01
   Pulay + GGA                   :  0.196912E-01 -0.226731E-01  0.625029E-01
   MBD@rsSCS                     :  0.314223E-04  0.456231E-02 -0.573005E-02
   ----------------------------------------------------------------
   Total forces(  29)            :  0.469232E-03  0.794454E-02  0.423197E-02
  atom #   30
   Hellmann-Feynman              :  0.146863E-02 -0.477126E-01 -0.245438E-01
   Ionic forces                  :  0.000000E+00  0.000000E+00  0.000000E+00
   Multipole                     :  0.161099E-01  0.299990E-01 -0.294801E-01
   Pulay + GGA                   : -0.176105E-01  0.184923E-01  0.609487E-01
   MBD@rsSCS                     :  0.953676E-03 -0.525945E-02 -0.368157E-02
   ----------------------------------------------------------------
   Total forces(  30)            :  0.921770E-03 -0.448078E-02  0.324327E-02
  atom #   31
   Hellmann-Feynman              :  0.699077E-02 -0.387205E-01  0.303382E-01
   Ionic forces                  :  0.000000E+00  0.000000E+00  0.000000E+00
   Multipole                     :  0.310744E-01  0.963565E-02  0.108013E-01
   Pulay + GGA                   : -0.437394E-01  0.201787E-01 -0.433534E-01
   MBD@rsSCS                     : -0.981856E-03 -0.112781E-01 -0.146180E-01
   ----------------------------------------------------------------
   Total forces(  31)            : -0.665604E-02 -0.201843E-01 -0.168319E-01
  atom #   32
   Hellmann-Feynman              :  0.209554E-01 -0.571580E-01  0.191656E-01
   Ionic forces                  :  0.000000E+00  0.000000E+00  0.000000E+00
   Multipole                     : -0.325076E-01  0.231765E-02  0.915999E-03
   Pulay + GGA                   :  0.166069E-01  0.500569E-01 -0.225851E-01
   MBD@rsSCS                     :  0.473102E-02 -0.918938E-02 -0.156121E-01
   ----------------------------------------------------------------
   Total forces(  32)            :  0.978572E-02 -0.139728E-01 -0.181156E-01

  Removing unitary transformations (pure translations, rotations) from forces on atoms.
  Atomic forces before filtering:
  | Net force on center of mass :  -0.586762E-03  0.618482E-03  0.312212E-03 eV/A
  | Net torque on center of mass:   0.386157E-02  0.749806E-04  0.210628E-02 eV
  Atomic forces after filtering:
  | Net force on center of mass :   0.167256E-16  0.111504E-16  0.557519E-17 eV/A
  | Net torque on center of mass:   0.590053E-17 -0.572334E-17 -0.147513E-16 eV

  Energy and forces in a compact form:
  | Total energy uncorrected      :         -0.202088965457057E+05 eV
  | Total energy corrected        :         -0.202088965457057E+05 eV  <-- do not rely on this value for anything but (periodic) metals
  | Electronic free energy        :         -0.202088965457057E+05 eV
  Total atomic forces (unitary forces cleaned) [eV/Ang]:
  |   1         -0.652600208501608E-02          0.113902880335386E-01         -0.195367623538501E-01
  |   2         -0.195829371225552E-01          0.275358590597333E-02         -0.121183030227960E-01
  |   3          0.293658246965414E-02         -0.540996045886039E-02          0.384455251540786E-03
  |   4          0.302891748372261E-02          0.341909250989296E-02          0.450658107038287E-02
  |   5         -0.247210598435978E-01          0.171640548473284E-01         -0.227112007607220E-01
  |   6         -0.261992536413602E-01          0.283493038342608E-02          0.157513772651944E-02
  |   7          0.308894259981931E-02         -0.420733439083111E-01         -0.169160770388305E-01
  |   8          0.994763399145022E-02         -0.160611624953053E-01          0.242100258875759E-01
  |   9          0.365135223578795E-01          0.733677322322614E-02          0.231150456237313E-01
  |  10          0.162367219443899E-01          0.210327099881094E-01         -0.388667753985949E-02
  |  11         -0.572606315384340E-02          0.657361544348072E-02         -0.253974113730095E-02
  |  12         -0.385660524070649E-02         -0.655012490975900E-02          0.482796286835965E-02
  |  13          0.247609724477778E-02         -0.856544027996715E-02          0.142962639553927E-01
  |  14         -0.122226892356261E-01         -0.148425733617668E-01          0.171474185160339E-01
  |  15         -0.784228870339638E-02          0.165703797692234E-02          0.862442459221364E-02
  |  16         -0.100757279003200E-01         -0.106822233316504E-01          0.121160337784573E-01
  |  17         -0.402177035283979E-02          0.189304277936459E-01          0.423686157275218E-02
  |  18          0.900916937959047E-02          0.167025107811079E-01          0.498962283670830E-02
  |  19         -0.756921908843906E-02          0.745021199673159E-02         -0.788965941202109E-02
  |  20         -0.482314607076010E-02          0.593719390554141E-02         -0.133772164796337E-01
  |  21         -0.151609490694296E-01         -0.499147137066624E-03          0.103125824618031E-01
  |  22          0.153504877669322E-01          0.267644338779945E-01          0.430383479745612E-02
  |  23          0.158394470675372E-01         -0.145811042749211E-01          0.571186811042283E-02
  |  24          0.134843159807993E-01          0.605039209686231E-02          0.706192476548847E-02
  |  25          0.216286660917084E-01         -0.349793757871759E-02         -0.966197205414462E-03
  |  26          0.813201575974809E-02          0.747426124240131E-03         -0.210737038161534E-02
  |  27         -0.123894478641744E-01          0.193649636659169E-02         -0.140560740967725E-01
  |  28         -0.156321900653504E-02         -0.542413303338461E-02         -0.372046557414666E-02
  |  29          0.475422973824908E-03          0.800215472591448E-02          0.423927823254334E-02
  |  30          0.946400251847622E-03         -0.441046426780141E-02          0.320206665430436E-02
  |  31         -0.662813358534886E-02         -0.201450329180247E-01         -0.168759157542784E-01
  |  32          0.981416860026692E-02         -0.139406880249917E-01         -0.181597279444449E-01

  ------------------------------------ 
  Start decomposition of the XC Energy 
  ------------------------------------ 
  Hartree-Fock part   :          0.000000000 Ha              0.000000000 eV
  ------------------------------------ 
  X Energy            :        -96.983205179 Ha          -2639.047286167 eV
  C Energy GGA        :         -3.871546723 Ha           -105.350146478 eV
  Total XC Energy     :       -100.854751902 Ha          -2744.397432646 eV
  LDA X and C from self-consistent density 
  X Energy LDA        :        -88.004848286 Ha          -2394.733764561 eV
  C Energy LDA        :         -7.532768380 Ha           -204.977056738 eV
  ------------------------------------ 
  End decomposition of the XC Energy 
  ------------------------------------ 
   
  ESP charge fitting starts.
  | Calculation :  00000001  of  00000001
  | Full density
  Computing multipole expansion for total density.
  Generating points for esp charges.
  Partitioning the integration grid into batches with parallel hashing+maxmin method.
  | Number of batches:     3927
  | Maximal batch size:     196
  | Minimal batch size:      54
  | Average batch size:     124.070
  | Standard deviation of batch sizes:      16.828

  Integration load balanced across    32 MPI tasks.
  Work distribution over tasks is as follows:
  Initializing partition tables, free-atom densities, potentials, etc. across the integration grid (initialize_grid_storage).
  | Original list of interatomic distances with          32 x         32 entries is created.
  | Net number of integration points:   487221
  | of which are non-zero points    :   487221
  Summing up potential from multipole expanded  density.
  Summing up the Hartree potential.
  Time summed over all CPUs for potential: real work        6.426 s, elapsed        6.688 s
  Fitting esp charges to potential.
  |
  | ESP charges fitted to the electrostatic potential :
  |
  | Atom         1: C, ESP charge:      0.23195674
  |
  | Atom         2: C, ESP charge:     -0.45465321
  |
  | Atom         3: O, ESP charge:      0.50199390
  |
  | Atom         4: H, ESP charge:     -0.09925624
  |
  | Atom         5: H, ESP charge:     -0.07402773
  |
  | Atom         6: H, ESP charge:     -0.10496828
  |
  | Atom         7: N, ESP charge:      0.55180195
  |
  | Atom         8: C, ESP charge:     -0.56300260
  |
  | Atom         9: C, ESP charge:     -0.44608584
  |
  | Atom        10: O, ESP charge:      0.50675231
  |
  | Atom        11: H, ESP charge:     -0.28586606
  |
  | Atom        12: H, ESP charge:      0.09084917
  |
  | Atom        13: C, ESP charge:      0.43423944
  |
  | Atom        14: H, ESP charge:     -0.12035946
  |
  | Atom        15: H, ESP charge:     -0.09456772
  |
  | Atom        16: H, ESP charge:     -0.10592331
  |
  | Atom        17: N, ESP charge:      0.73926383
  |
  | Atom        18: C, ESP charge:     -0.70349594
  |
  | Atom        19: C, ESP charge:     -0.16027547
  |
  | Atom        20: O, ESP charge:      0.45626002
  |
  | Atom        21: H, ESP charge:     -0.35678268
  |
  | Atom        22: H, ESP charge:     -0.04098251
  |
  | Atom        23: C, ESP charge:      0.48157506
  |
  | Atom        24: H, ESP charge:     -0.11904009
  |
  | Atom        25: H, ESP charge:     -0.14308366
  |
  | Atom        26: H, ESP charge:     -0.09357793
  |
  | Atom        27: N, ESP charge:      0.50941859
  |
  | Atom        28: C, ESP charge:     -0.24531705
  |
  | Atom        29: H, ESP charge:     -0.35945896
  |
  | Atom        30: H, ESP charge:     -0.03832271
  |
  | Atom        31: H, ESP charge:      0.07322989
  |
  | Atom        32: H, ESP charge:      0.03170654

  RRMS:       0.00285962

  Done.

------------------------------------------------------------------------------
  Final output of selected total energy values:

  The following output summarizes some interesting total energy values
  at the end of a run (AFTER all relaxation, molecular dynamics, etc.).

  | Total energy of the DFT / Hartree-Fock s.c.f. calculation      :         -20208.896545706 eV
  | Final zero-broadening corrected energy (caution - metals only) :         -20208.896545706 eV
  | For reference only, the value of 1 Hartree used in FHI-aims is :             27.211384500 eV

  Before relying on these values, please be sure to understand exactly which
  total energy value is referred to by a given number. Different objects may
  all carry the same name 'total energy'. Definitions:

  Total energy of the DFT / Hartree-Fock s.c.f. calculation:
  | Note that this energy does not include ANY quantities calculated after the
  | s.c.f. cycle, in particular not ANY RPA, MP2, etc. many-body perturbation terms.

  Final zero-broadening corrected energy:
  | For metallic systems only, a broadening of the occupation numbers at the Fermi
  | level can be extrapolated back to zero broadening by an electron-gas inspired
  | formula. For all systems that are not real metals, this value can be
  | meaningless and should be avoided.

------------------------------------------------------------------------------
  Methods described in the following list of references were used in this FHI-aims run.
  If you publish the results, please make sure to cite these reference if they apply.
  FHI-aims is an academic code, and for our developers (often, Ph.D. students
  and postdocs), scientific credit in the community is essential.
  Thank you for helping us!

  For any use of FHI-aims, please cite:

    Volker Blum, Ralf Gehrke, Felix Hanke, Paula Havu, Ville Havu,
    Xinguo Ren, Karsten Reuter, and Matthias Scheffler
    'Ab initio molecular simulations with numeric atom-centered orbitals'
    Computer Physics Communications 180, 2175-2196 (2009)
    http://dx.doi.org/10.1016/j.cpc.2009.06.022


  The scalable eigensolver library ELPA was used in your run.
  ELPA is essential especially for large systems on hundreds or thousands of CPUs.
  For ELPA, please cite:

    Andreas Marek, Volker Blum, Rainer Johanni, Ville Havu, Bruno Lang,
    Thomas Auckenthaler, Alexander Heinecke, Hans-Joachim Bungartz, and Hermann Lederer,
    'The ELPA Library - Scalable Parallel Eigenvalue Solutions
    for Electronic Structure Theory and Computational Science'
    The Journal of Physics: Condensed Matter 26, 213201 (2014).
    http://dx.doi.org/10.1088/0953-8984/26/21/213201


  For ELPA's efficient two-stage tridiagonalization used in your run, please cite:

    T. Auckenthaler, V. Blum, H.-J. Bungartz, T. Huckle, R. Johanni, L. Kraemer,
    B. Lang, H. Lederer, and P. R. Willems,
    'Parallel solution of partial symmetric eigenvalue problems'
    'from  electronic structure calculations'
    Parallel Computing 37, 783-794 (2011).
    http://dx.doi.org/10.1016/j.parco.2011.05.002


  For the real-space grid partitioning and parallelization used in this calculation, please cite:

    Ville Havu, Volker Blum, Paula Havu, and Matthias Scheffler,
    'Efficient O(N) integration for all-electron electronic structure calculation'
    'using numerically tabulated basis functions'
    Journal of Computational Physics 228, 8367-8379 (2009).
    http://dx.doi.org/10.1016/j.jcp.2009.08.008

  Of course, there are many other important community references, e.g., those cited in the
  above references. Our list is limited to references that describe implementations in the
  FHI-aims code. The reason is purely practical (length of this list) - please credit others as well.

------------------------------------------------------------
          Leaving FHI-aims.
          Date     :  20170309, Time     :  184031.683

          Computational steps:
          | Number of self-consistency cycles          :           14

          Detailed time accounting                     :  max(cpu_time)    wall_clock(cpu1)
          | Total time                                 :       36.118 s          36.344 s
          | Preparation time                           :        0.236 s           0.234 s
          | Grid partitioning                          :        0.276 s           0.270 s
          | Preloading free-atom quantities on grid    :        0.028 s           0.027 s
          | Free-atom superposition energy             :        0.044 s           0.042 s
          | Total time for integrations                :       12.905 s          12.886 s
          | Total time for solution of K.-S. equations :        0.528 s           0.500 s
          | Total time for density & force components  :       10.685 s          10.665 s
          | Total time for mixing                      :        0.124 s           0.105 s
          | Total time for Hartree multipole update    :        0.068 s           0.060 s
          | Total time for Hartree multipole sum       :        6.316 s           6.310 s
          | Total time for total energy evaluation     :        0.028 s           0.025 s

          Have a nice day.
------------------------------------------------------------
