  MPI-parallelism will be employed.
------------------------------------------------------------
          Invoking FHI-aims ...
          Version 150427
          Git rev.: 9dd23e0 BL: Update Version stamp
          Compiled on 2015/11/03 at 22:05:20 on host eos03.

          When using FHI-aims, please cite the following reference:

          Volker Blum, Ralf Gehrke, Felix Hanke, Paula Havu,
          Ville Havu, Xinguo Ren, Karsten Reuter, and Matthias Scheffler,
          'Ab Initio Molecular Simulations with Numeric Atom-Centered Orbitals: FHI-aims',
          Computer Physics Communications 180, 2175-2196 (2009)

          For any questions about FHI-aims, please visit the aimsclub website
          with its forums and wiki. Contributions to both the forums and the
          wiki are warmly encouraged - they are for you, and everyone is welcome there.

------------------------------------------------------------

  Date     :  20170309, Time     :  160611.521
  Time zero on CPU 1             :   0.340021000000000E+00  s.
  Internal wall clock time zero  :           258307571.521  s.

  Using       32 parallel tasks.
  Task        0 on host eos119 reporting.
  Task        1 on host eos119 reporting.
  Task        2 on host eos119 reporting.
  Task        3 on host eos119 reporting.
  Task        4 on host eos119 reporting.
  Task        5 on host eos119 reporting.
  Task        6 on host eos119 reporting.
  Task        7 on host eos119 reporting.
  Task        8 on host eos119 reporting.
  Task        9 on host eos119 reporting.
  Task       10 on host eos119 reporting.
  Task       11 on host eos119 reporting.
  Task       12 on host eos119 reporting.
  Task       13 on host eos119 reporting.
  Task       14 on host eos119 reporting.
  Task       15 on host eos119 reporting.
  Task       16 on host eos119 reporting.
  Task       17 on host eos119 reporting.
  Task       18 on host eos119 reporting.
  Task       19 on host eos119 reporting.
  Task       20 on host eos119 reporting.
  Task       21 on host eos119 reporting.
  Task       22 on host eos119 reporting.
  Task       23 on host eos119 reporting.
  Task       24 on host eos119 reporting.
  Task       25 on host eos119 reporting.
  Task       26 on host eos119 reporting.
  Task       27 on host eos119 reporting.
  Task       28 on host eos119 reporting.
  Task       29 on host eos119 reporting.
  Task       30 on host eos119 reporting.
  Task       31 on host eos119 reporting.

  Performing system and environment tests:
  | Environment variable OMP_NUM_THREADS correctly set to 1.
  | Stacksize not measured: no C compiler
  | Checking for scalapack...
  | Testing pdtran()...
  | All pdtran() tests passed.

  Obtaining array dimensions for all initial allocations:
  
  -----------------------------------------------------------------------
  Parsing control.in (first pass over file, find array dimensions only).
  The contents of control.in will be repeated verbatim below
  unless switched off by setting 'verbatim_writeout .false.' .
  in the first line of control.in .
  -----------------------------------------------------------------------
  
  #########################################################################################
  #
  # Input for System
  #
  #########################################################################################
  #
  #
  #  Physical model
  #
    xc                 pbe
    many_body_dispersion
    spin               none
    charge             0.
  #
  #  SCF convergence
  #
    occupation_type    gaussian 0.05
    mixer              pulay
      n_max_pulay        10
      charge_mix_param   0.5
    sc_accuracy_rho    1E-4
    sc_accuracy_eev    1E-2
    sc_accuracy_etot   1E-5
    sc_accuracy_forces 1E-4
    sc_iter_limit      1000
  #
  #  ESP charge
  #
    output esp
    esp equal_grid_n 80 80 80
  #
  #
  ################################################################################
  #
  #  FHI-aims code project
  # Volker Blum, Fritz Haber Institute Berlin, 2009
  #
  #  Suggested "tight" defaults for H atom (to be pasted into control.in file)
  #
  ################################################################################
    species        H
  #     global species definitions
      nucleus             1
      mass                1.00794
  #
      l_hartree           6
  #
      cut_pot             4.0  2.0  1.0
      basis_dep_cutoff    1e-4
  #
      radial_base         24 7.0
      radial_multiplier   2
      angular_grids       specified
        division   0.1930   50
        division   0.3175  110
        division   0.4293  194
        division   0.5066  302
        division   0.5626  434
  #      division   0.5922  590
  #      division   0.6227  974
  #      division   0.6868 1202
  #      outer_grid  770
        outer_grid  434
  ################################################################################
  #
  #  Definition of "minimal" basis
  #
  ################################################################################
  #     valence basis states
      valence      1  s   1.
  #     ion occupancy
      ion_occ      1  s   0.5
  ################################################################################
  #
  #  Suggested additional basis functions. For production calculations,
  #  uncomment them one after another (the most important basis functions are
  #  listed first).
  #
  #  Basis constructed for dimers: 0.5 A, 0.7 A, 1.0 A, 1.5 A, 2.5 A
  #
  ################################################################################
  #  "First tier" - improvements: -1014.90 meV to -62.69 meV
       hydro 2 s 2.1
       hydro 2 p 3.5
  #  "Second tier" - improvements: -12.89 meV to -1.83 meV
       hydro 1 s 0.85
       hydro 2 p 3.7
       hydro 2 s 1.2
       hydro 3 d 7
  #  "Third tier" - improvements: -0.25 meV to -0.12 meV
  #     hydro 4 f 11.2
  #     hydro 3 p 4.8
  #     hydro 4 d 9
  #     hydro 3 s 3.2
  ################################################################################
  #
  # For methods that use the localized form of the "resolution of identity" for
  # the two-electron Coulomb operator (RI_method LVL), particularly Hartree-Fock and
  # hybrid density functional calculations, the highest accuracy can be obtained by
  # uncommenting the line beginning with "for_aux"  below, thus adding an extra g radial
  # function to the construction of the product basis set for the expansion.
  # See Ref. New J. Phys. 17, 093020 (2015) for more information, particularly Figs. 1 and 6.
  #
  ################################################################################
  #
  # for_aux hydro 5 g 6.0
  ################################################################################
  #
  #  FHI-aims code project
  # Volker Blum, Fritz Haber Institute Berlin, 2009
  #
  #  Suggested "tight" defaults for C atom (to be pasted into control.in file)
  #
  ################################################################################
    species        C
  #     global species definitions
      nucleus             6
      mass                12.0107
  #
      l_hartree           6
  #
      cut_pot             4.0  2.0  1.0
      basis_dep_cutoff    1e-4
  #
      radial_base         34 7.0
      radial_multiplier   2
      angular_grids specified
        division   0.2187   50
        division   0.4416  110
        division   0.6335  194
        division   0.7727  302
        division   0.8772  434
  #      division   0.9334  590
  #      division   0.9924  770
  #      division   1.0230  974
  #      division   1.5020 1202
  #     outer_grid  974
        outer_grid  434
  ################################################################################
  #
  #  Definition of "minimal" basis
  #
  ################################################################################
  #     valence basis states
      valence      2  s   2.
      valence      2  p   2.
  #     ion occupancy
      ion_occ      2  s   1.
      ion_occ      2  p   1.
  ################################################################################
  #
  #  Suggested additional basis functions. For production calculations,
  #  uncomment them one after another (the most important basis functions are
  #  listed first).
  #
  #  Constructed for dimers: 1.0 A, 1.25 A, 1.5 A, 2.0 A, 3.0 A
  #
  ################################################################################
  #  "First tier" - improvements: -1214.57 meV to -155.61 meV
       hydro 2 p 1.7
       hydro 3 d 6
       hydro 2 s 4.9
  #  "Second tier" - improvements: -67.75 meV to -5.23 meV
       hydro 4 f 9.8
       hydro 3 p 5.2
       hydro 3 s 4.3
       hydro 5 g 14.4
       hydro 3 d 6.2
  #  "Third tier" - improvements: -2.43 meV to -0.60 meV
  #     hydro 2 p 5.6
  #     hydro 2 s 1.4
  #     hydro 3 d 4.9
  #     hydro 4 f 11.2
  #  "Fourth tier" - improvements: -0.39 meV to -0.18 meV
  #     hydro 2 p 2.1
  #     hydro 5 g 16.4
  #     hydro 4 d 13.2
  #     hydro 3 s 13.6
  #     hydro 4 f 17.6
  #  Further basis functions - improvements: -0.08 meV and below
  #     hydro 3 s 2
  #     hydro 3 p 6
  #     hydro 4 d 20
  ################################################################################
  #
  # For methods that use the localized form of the "resolution of identity" for
  # the two-electron Coulomb operator (RI_method LVL), particularly Hartree-Fock and
  # hybrid density functional calculations, the highest accuracy can be obtained by
  # uncommenting the line beginning with "for_aux"  below, thus adding an extra g radial
  # function to the construction of the product basis set for the expansion.
  # See Ref. New J. Phys. 17, 093020 (2015) for more information, particularly Figs. 1 and 6.
  #
  ################################################################################
  #
  # for_aux hydro 5 g 6.0
  ################################################################################
  #
  #  FHI-aims code project
  # Volker Blum, Fritz Haber Institute Berlin, 2009
  #
  #  Suggested "tight" defaults for N atom (to be pasted into control.in file)
  #
  ################################################################################
    species        N
  #     global species definitions
      nucleus             7
      mass                14.0067
  #
      l_hartree           6
  #
      cut_pot             4.0  2.0  1.0
      basis_dep_cutoff    1e-4
  #
      radial_base         35 7.0
      radial_multiplier   2
      angular_grids       specified
        division   0.1841   50
        division   0.3514  110
        division   0.5126  194
        division   0.6292  302
        division   0.6939  434
  #      division   0.7396  590
  #      division   0.7632  770
  #      division   0.8122  974
  #      division   1.1604 1202
  #      outer_grid  974
        outer_grid  434
  ################################################################################
  #
  #  Definition of "minimal" basis
  #
  ################################################################################
  #     valence basis states
      valence      2  s   2.
      valence      2  p   3.
  #     ion occupancy
      ion_occ      2  s   1.
      ion_occ      2  p   2.
  ################################################################################
  #
  #  Suggested additional basis functions. For production calculations,
  #  uncomment them one after another (the most important basis functions are
  #  listed first).
  #
  #  Constructed for dimers: 1.0 A, 1.1 A, 1.5 A, 2.0 A, 3.0 A
  #
  ################################################################################
  #  "First tier" - improvements: -1193.42 meV to -220.60 meV
       hydro 2 p 1.8
       hydro 3 d 6.8
       hydro 3 s 5.8
  #  "Second tier" - improvements: -80.21 meV to -6.86 meV
       hydro 4 f 10.8
       hydro 3 p 5.8
       hydro 1 s 0.8
       hydro 5 g 16
       hydro 3 d 4.9
  #  "Third tier" - improvements: -4.29 meV to -0.53 meV
  #     hydro 3 s 16
  #     ionic 2 p auto
  #     hydro 3 d 6.6
  #     hydro 4 f 11.6
  #  "Fourth tier" - improvements: -0.75 meV to -0.25 meV
  #     hydro 2 p 4.5
  #     hydro 2 s 2.4
  #     hydro 5 g 14.4
  #     hydro 4 d 14.4
  #     hydro 4 f 16.8
  # Further basis functions - -0.21 meV and below
  #     hydro 3 p 14.8
  #     hydro 3 s 4.4
  #     hydro 3 d 19.6
  #     hydro 5 g 12.8
  ################################################################################
  #
  # For methods that use the localized form of the "resolution of identity" for
  # the two-electron Coulomb operator (RI_method LVL), particularly Hartree-Fock and
  # hybrid density functional calculations, the highest accuracy can be obtained by
  # uncommenting the line beginning with "for_aux"  below, thus adding an extra g radial
  # function to the construction of the product basis set for the expansion.
  # See Ref. New J. Phys. 17, 093020 (2015) for more information, particularly Figs. 1 and 6.
  #
  ################################################################################
  #
  # for_aux hydro 5 g 6.0
  ################################################################################
  #
  #  FHI-aims code project
  # Volker Blum, Fritz Haber Institute Berlin, 2009
  #
  #  Suggested "tight" defaults for O atom (to be pasted into control.in file)
  #
  ################################################################################
    species        O
  #     global species definitions
      nucleus             8
      mass                15.9994
  #
      l_hartree           6
  #
      cut_pot             4.0  2.0  1.0
      basis_dep_cutoff    1e-4
  #
      radial_base         36 7.0
      radial_multiplier   2
       angular_grids specified
        division   0.1817   50
        division   0.3417  110
        division   0.4949  194
        division   0.6251  302
        division   0.8014  434
  #      division   0.8507  590
  #      division   0.8762  770
  #      division   0.9023  974
  #      division   1.2339 1202
  #      outer_grid 974
        outer_grid  434
  ################################################################################
  #
  #  Definition of "minimal" basis
  #
  ################################################################################
  #     valence basis states
      valence      2  s   2.
      valence      2  p   4.
  #     ion occupancy
      ion_occ      2  s   1.
      ion_occ      2  p   3.
  ################################################################################
  #
  #  Suggested additional basis functions. For production calculations,
  #  uncomment them one after another (the most important basis functions are
  #  listed first).
  #
  #  Constructed for dimers: 1.0 A, 1.208 A, 1.5 A, 2.0 A, 3.0 A
  #
  ################################################################################
  #  "First tier" - improvements: -699.05 meV to -159.38 meV
       hydro 2 p 1.8
       hydro 3 d 7.6
       hydro 3 s 6.4
  #  "Second tier" - improvements: -49.91 meV to -5.39 meV
       hydro 4 f 11.6
       hydro 3 p 6.2
       hydro 3 d 5.6
       hydro 5 g 17.6
       hydro 1 s 0.75
  #  "Third tier" - improvements: -2.83 meV to -0.50 meV
  #     ionic 2 p auto
  #     hydro 4 f 10.8
  #     hydro 4 d 4.7
  #     hydro 2 s 6.8
  #  "Fourth tier" - improvements: -0.40 meV to -0.12 meV
  #     hydro 3 p 5
  #     hydro 3 s 3.3
  #     hydro 5 g 15.6
  #     hydro 4 f 17.6
  #     hydro 4 d 14
  # Further basis functions - -0.08 meV and below
  #     hydro 3 s 2.1
  #     hydro 4 d 11.6
  #     hydro 3 p 16
  #     hydro 2 s 17.2
  ################################################################################
  #
  # For methods that use the localized form of the "resolution of identity" for
  # the two-electron Coulomb operator (RI_method LVL), particularly Hartree-Fock and
  # hybrid density functional calculations, the highest accuracy can be obtained by
  # uncommenting the line beginning with "for_aux"  below, thus adding an extra g radial
  # function to the construction of the product basis set for the expansion.
  # See Ref. New J. Phys. 17, 093020 (2015) for more information, particularly Figs. 1 and 6.
  #
  ################################################################################
  #
  # for_aux hydro 5 g 6.0
  
  -----------------------------------------------------------------------
  Completed first pass over input file control.in .
  -----------------------------------------------------------------------
  
  
  -----------------------------------------------------------------------
  Parsing geometry.in (first pass over file, find array dimensions only).
  The contents of geometry.in will be repeated verbatim below
  unless switched off by setting 'verbatim_writeout .false.' .
  in the first line of geometry.in .
  -----------------------------------------------------------------------
  
  #
  # This is the geometry file that corresponds to the current relaxation step.
  # If you do not want this file to be written, set the "write_restart_geometry" flag to .false.
  #
  atom      -0.21136843      0.04533430     -0.09719348 C
  atom      -0.09148237     -0.38017866      1.35551237 C
  atom       0.88706982     -0.99589178      1.78010817 O
  atom      -0.15319151     -0.84836022     -0.73111708 H
  atom       0.64575503      0.68188829     -0.35008466 H
  atom      -1.13834589      0.58673757     -0.32304103 H
  atom      -1.13788947     -0.02646432      2.15569366 N
  atom      -1.22131608     -0.42233499      3.54648034 C
  atom      -2.71453890     -0.46187931      3.90750066 C
  atom      -3.56251005      0.12589124      3.22738475 O
  atom      -1.98612855      0.39412456      1.78130891 H
  atom      -0.78393891     -1.42891417      3.64185069 H
  atom      -0.45330607      0.53866783      4.47333091 C
  atom      -0.49723748      0.20706219      5.51939692 H
  atom      -0.87490624      1.55043136      4.40858536 H
  atom       0.59842112      0.57067361      4.16573286 H
  atom      -3.02003041     -1.15758842      5.02762657 N
  atom      -4.35509246     -1.18067788      5.59267875 C
  atom      -4.18048819     -1.41525830      7.10159389 C
  atom      -3.14015472     -1.90973831      7.54233674 O
  atom      -2.30473532     -1.58470636      5.61597334 H
  atom      -4.81664608     -0.20198499      5.39270919 H
  atom      -5.22556767     -2.28324069      4.96127502 C
  atom      -6.24469383     -2.28134890      5.36867645 H
  atom      -4.77898005     -3.26883344      5.14499175 H
  atom      -5.28854408     -2.11750310      3.87948652 H
  atom      -5.21445986     -1.08756568      7.92372277 N
  atom      -6.50355610     -0.50953478      7.58543202 C
  atom      -5.04741661     -1.34073880      8.89334000 H
  atom      -6.84575755      0.11836622      8.41672851 H
  atom      -7.27059448     -1.27513425      7.39058179 H
  atom      -6.42228456      0.13066117      6.70015629 H
  
  -----------------------------------------------------------------------
  Completed first pass over input file geometry.in .
  -----------------------------------------------------------------------
  

  Basic array size parameters:
  | Number of species                 :        4
  | Number of atoms                   :       32
  | Max. basis fn. angular momentum   :        4
  | Max. atomic/ionic basis occupied n:        2
  | Max. number of basis fn. types    :        2
  | Max. radial fns per species/type  :        8
  | Max. logarithmic grid size        :     1301
  | Max. radial integration grid size :       73
  | Max. angular integration grid size:      434
  | Max. angular grid division number :        8
  | Radial grid for Hartree potential :     1301
  | Number of spin channels           :        1

------------------------------------------------------------
          Reading file control.in.
------------------------------------------------------------
  XC: Using PBE gradient-corrected functionals.
  Self-consistent screening and van der Waals energy (TS, TS+SCS,MBD) module
  Spin treatment: No spin polarisation.
  Charge =   0.000000E+00: Neutral system requested explicitly.
  Occupation type: Gaussian broadening, width =   0.500000E-01 eV.
  Using pulay charge density mixing.
  Pulay mixing - number of memorized iterations:   10
  Charge density mixing - mixing parameter:     0.5000
  Convergence accuracy of self-consistent charge density:  0.1000E-03
  Convergence accuracy of sum of eigenvalues:  0.1000E-01
  Convergence accuracy of total energy:  0.1000E-04
  Convergence accuracy of forces:  0.1000E-03
  Maximum number of s.-c. iterations  :  1000
  Fitting ESP-charges to Potential. 
  | Esp charge output options: 
  | ESP Grid method: 3, cubic grid
  | Number of points in x, ,y, z:  0080 0080 0080
  |
 
  Reading configuration options for species H                   .
  | Found nuclear charge :   1.0000
  | Found atomic mass :    1.00794000000000      amu
  | Found l_max for Hartree potential  :   6
  | Found cutoff potl. onset [A], width [A], scale factor :    4.00000    2.00000    1.00000
  | Threshold for basis-dependent cutoff potential is   0.100000E-03
  | Found data for basic radial integration grid :    24 points, outermost radius =    7.000 A
  | Found multiplier for basic radial grid :   2
  | Found angular grid specification: user-specified.
  | Specified grid contains     6 separate shells.
  | Check grid settings after all constraints further below.
  | Found free-atom valence shell :  1 s   1.000
  | No ionic wave fns used. Skipping ion_occ.
  | Found hydrogenic basis function :  2 s   2.100
  | Found hydrogenic basis function :  2 p   3.500
  | Found hydrogenic basis function :  1 s   0.850
  | Found hydrogenic basis function :  2 p   3.700
  | Found hydrogenic basis function :  2 s   1.200
  | Found hydrogenic basis function :  3 d   7.000
  Species H                   : Missing cutoff potential type.
  Defaulting to exp(1/x)/(1-x)^2 type cutoff potential.
  Species H : No 'logarithmic' tag. Using default grid for free atom:
  | Default logarithmic grid data [bohr] : 0.1000E-03 0.1000E+03 0.1012E+01
  Species H : On-site basis accuracy parameter (for Gram-Schmidt orthonormalisation) not specified.
  Using default value basis_acc =  0.1000000E-03.
  Species H                   : Using default innermost maximum threshold i_radial=  2 for radial functions.
  Species H                   : Default cutoff onset for free atom density etc. : 0.40000000E+01 AA.
  Species H                   : Basic radial grid will be enhanced according to radial_multiplier =   2, to contain    49 grid points.
 
  Reading configuration options for species C                   .
  | Found nuclear charge :   6.0000
  | Found atomic mass :    12.0107000000000      amu
  | Found l_max for Hartree potential  :   6
  | Found cutoff potl. onset [A], width [A], scale factor :    4.00000    2.00000    1.00000
  | Threshold for basis-dependent cutoff potential is   0.100000E-03
  | Found data for basic radial integration grid :    34 points, outermost radius =    7.000 A
  | Found multiplier for basic radial grid :   2
  | Found angular grid specification: user-specified.
  | Specified grid contains     6 separate shells.
  | Check grid settings after all constraints further below.
  | Found free-atom valence shell :  2 s   2.000
  | Found free-atom valence shell :  2 p   2.000
  | No ionic wave fns used. Skipping ion_occ.
  | No ionic wave fns used. Skipping ion_occ.
  | Found hydrogenic basis function :  2 p   1.700
  | Found hydrogenic basis function :  3 d   6.000
  | Found hydrogenic basis function :  2 s   4.900
  | Found hydrogenic basis function :  4 f   9.800
  | Found hydrogenic basis function :  3 p   5.200
  | Found hydrogenic basis function :  3 s   4.300
  | Found hydrogenic basis function :  5 g  14.400
  | Found hydrogenic basis function :  3 d   6.200
  Species C                   : Missing cutoff potential type.
  Defaulting to exp(1/x)/(1-x)^2 type cutoff potential.
  Species C : No 'logarithmic' tag. Using default grid for free atom:
  | Default logarithmic grid data [bohr] : 0.1000E-03 0.1000E+03 0.1012E+01
  Species C : On-site basis accuracy parameter (for Gram-Schmidt orthonormalisation) not specified.
  Using default value basis_acc =  0.1000000E-03.
  Species C                   : Using default innermost maximum threshold i_radial=  2 for radial functions.
  Species C                   : Default cutoff onset for free atom density etc. : 0.40000000E+01 AA.
  Species C                   : Basic radial grid will be enhanced according to radial_multiplier =   2, to contain    69 grid points.
 
  Reading configuration options for species N                   .
  | Found nuclear charge :   7.0000
  | Found atomic mass :    14.0067000000000      amu
  | Found l_max for Hartree potential  :   6
  | Found cutoff potl. onset [A], width [A], scale factor :    4.00000    2.00000    1.00000
  | Threshold for basis-dependent cutoff potential is   0.100000E-03
  | Found data for basic radial integration grid :    35 points, outermost radius =    7.000 A
  | Found multiplier for basic radial grid :   2
  | Found angular grid specification: user-specified.
  | Specified grid contains     6 separate shells.
  | Check grid settings after all constraints further below.
  | Found free-atom valence shell :  2 s   2.000
  | Found free-atom valence shell :  2 p   3.000
  | No ionic wave fns used. Skipping ion_occ.
  | No ionic wave fns used. Skipping ion_occ.
  | Found hydrogenic basis function :  2 p   1.800
  | Found hydrogenic basis function :  3 d   6.800
  | Found hydrogenic basis function :  3 s   5.800
  | Found hydrogenic basis function :  4 f  10.800
  | Found hydrogenic basis function :  3 p   5.800
  | Found hydrogenic basis function :  1 s   0.800
  | Found hydrogenic basis function :  5 g  16.000
  | Found hydrogenic basis function :  3 d   4.900
  Species N                   : Missing cutoff potential type.
  Defaulting to exp(1/x)/(1-x)^2 type cutoff potential.
  Species N : No 'logarithmic' tag. Using default grid for free atom:
  | Default logarithmic grid data [bohr] : 0.1000E-03 0.1000E+03 0.1012E+01
  Species N : On-site basis accuracy parameter (for Gram-Schmidt orthonormalisation) not specified.
  Using default value basis_acc =  0.1000000E-03.
  Species N                   : Using default innermost maximum threshold i_radial=  2 for radial functions.
  Species N                   : Default cutoff onset for free atom density etc. : 0.40000000E+01 AA.
  Species N                   : Basic radial grid will be enhanced according to radial_multiplier =   2, to contain    71 grid points.
 
  Reading configuration options for species O                   .
  | Found nuclear charge :   8.0000
  | Found atomic mass :    15.9994000000000      amu
  | Found l_max for Hartree potential  :   6
  | Found cutoff potl. onset [A], width [A], scale factor :    4.00000    2.00000    1.00000
  | Threshold for basis-dependent cutoff potential is   0.100000E-03
  | Found data for basic radial integration grid :    36 points, outermost radius =    7.000 A
  | Found multiplier for basic radial grid :   2
  | Found angular grid specification: user-specified.
  | Specified grid contains     6 separate shells.
  | Check grid settings after all constraints further below.
  | Found free-atom valence shell :  2 s   2.000
  | Found free-atom valence shell :  2 p   4.000
  | No ionic wave fns used. Skipping ion_occ.
  | No ionic wave fns used. Skipping ion_occ.
  | Found hydrogenic basis function :  2 p   1.800
  | Found hydrogenic basis function :  3 d   7.600
  | Found hydrogenic basis function :  3 s   6.400
  | Found hydrogenic basis function :  4 f  11.600
  | Found hydrogenic basis function :  3 p   6.200
  | Found hydrogenic basis function :  3 d   5.600
  | Found hydrogenic basis function :  5 g  17.600
  | Found hydrogenic basis function :  1 s   0.750
  Species O                   : Missing cutoff potential type.
  Defaulting to exp(1/x)/(1-x)^2 type cutoff potential.
  Species O : No 'logarithmic' tag. Using default grid for free atom:
  | Default logarithmic grid data [bohr] : 0.1000E-03 0.1000E+03 0.1012E+01
  Species O : On-site basis accuracy parameter (for Gram-Schmidt orthonormalisation) not specified.
  Using default value basis_acc =  0.1000000E-03.
  Species O                   : Using default innermost maximum threshold i_radial=  2 for radial functions.
  Species O                   : Default cutoff onset for free atom density etc. : 0.40000000E+01 AA.
  Species O                   : Basic radial grid will be enhanced according to radial_multiplier =   2, to contain    73 grid points.
 
  Finished reading input file 'control.in'. Consistency checks are next.
 
  Target number of points in a grid batch is not set. Defaulting to  100
  Method for grid partitioning is not set. Defaulting to parallel hash+maxmin partitioning.
  Batch size limit is not set. Defaulting to    200
  By default, will store active basis functions for each batch.
  If in need of memory, prune_basis_once .false. can be used to disable this option.
  communication_type for Hartree potential was not specified.
  Defaulting to calc_hartree .
  Pulay mixer: Number of initial linear mixing iterations not set.
  Defaulting to    0 iterations.
  Work space size for distributed Hartree potential not set.
  Defaulting to   0.200000E+03 MB.
  Algorithm-dependent basis array size parameters:
  | n_max_pulay                         :       10
  Geometry relaxation not requested: no relaxation will be performed.
  Handling of forces: Unphysical translation and rotation will be removed from forces.
  No accuracy limit for integral partition fn. given. Defaulting to  0.1000E-14.
  No threshold value for u(r) in integrations given. Defaulting to  0.1000E-05.
  No accuracy for occupation numbers given. Defaulting to  0.1000E-07.
  No threshold value for occupation numbers given. Defaulting to  0.0000E+00.
  No accuracy for fermi level given. Defaulting to  0.1000E-19.
  Maximum # of iterations to find E_F not set. Defaulting to  200.
  Preferred method for the eigenvalue solver ('KS_method') not specified in 'control.in'.
  Calling blacs routine to test compilation state
  Since scalapack support is enabled, defaulting to 'elpa'.
  Preferred method for the MBD eigenvalue solver ('mbd_eigensolver') not specified in 'control.in'.
  Calling blacs routine to test compilation state
  Since scalapack support is enabled, defaulting to 'scaLAPACK'.
  Will not use alltoall communication since running on < 1024 CPUs.
  Threshold for basis singularities not set.
  Default threshold for basis singularities:  0.1000E-04
  partition_type (choice of integration weights) for integrals was not specified.
  | Using a version of the partition function of Stratmann and coworkers ('stratmann_smoother').
  | At each grid point, the set of atoms used to build the partition table is smoothly restricted to
  | only those atoms whose free-atom density would be non-zero at that grid point.
  Partitioning for Hartree potential was not defined. Using partition_type for integrals.
  | Adjusted default value of keyword multip_moments_threshold to:       0.10000000E-11
  | This value may affect high angular momentum components of the Hartree potential in periodic systems.
  No q(lm)/r^(l+1) cutoff set for long-range Hartree potential.
  | Using default value of  0.100000E-09 .
  | Verify using the multipole_threshold keyword.
  Defaulting to new monopole extrapolation.
  Density update method: automatic selection selected.
------------------------------------------------------------


------------------------------------------------------------
          Reading geometry description geometry.in.
------------------------------------------------------------
 * Warning! You did not set the 'relativistic' flag in input file 'control.in'.
 * Since you are not attempting to treat any elements beyond Ca(Z=20), FHI-aims
 * will default to 'relativistic none'.
 * You must ensure that this is really what you want!!
 * For example, DO NOT compute total-energy differences between results from
 * different settings of the 'relativistic' flag.
  Input structure read successfully.
  The structure contains       32 atoms,  and a total of        116.000 electrons.

  Input geometry:
  | No unit cell requested.
  | Atomic structure:
  |       Atom                x [A]            y [A]            z [A]
  |    1: Species C             -0.211368         0.045334        -0.097193
  |    2: Species C             -0.091482        -0.380179         1.355512
  |    3: Species O              0.887070        -0.995892         1.780108
  |    4: Species H             -0.153192        -0.848360        -0.731117
  |    5: Species H              0.645755         0.681888        -0.350085
  |    6: Species H             -1.138346         0.586738        -0.323041
  |    7: Species N             -1.137889        -0.026464         2.155694
  |    8: Species C             -1.221316        -0.422335         3.546480
  |    9: Species C             -2.714539        -0.461879         3.907501
  |   10: Species O             -3.562510         0.125891         3.227385
  |   11: Species H             -1.986129         0.394125         1.781309
  |   12: Species H             -0.783939        -1.428914         3.641851
  |   13: Species C             -0.453306         0.538668         4.473331
  |   14: Species H             -0.497237         0.207062         5.519397
  |   15: Species H             -0.874906         1.550431         4.408585
  |   16: Species H              0.598421         0.570674         4.165733
  |   17: Species N             -3.020030        -1.157588         5.027627
  |   18: Species C             -4.355092        -1.180678         5.592679
  |   19: Species C             -4.180488        -1.415258         7.101594
  |   20: Species O             -3.140155        -1.909738         7.542337
  |   21: Species H             -2.304735        -1.584706         5.615973
  |   22: Species H             -4.816646        -0.201985         5.392709
  |   23: Species C             -5.225568        -2.283241         4.961275
  |   24: Species H             -6.244694        -2.281349         5.368676
  |   25: Species H             -4.778980        -3.268833         5.144992
  |   26: Species H             -5.288544        -2.117503         3.879487
  |   27: Species N             -5.214460        -1.087566         7.923723
  |   28: Species C             -6.503556        -0.509535         7.585432
  |   29: Species H             -5.047417        -1.340739         8.893340
  |   30: Species H             -6.845758         0.118366         8.416729
  |   31: Species H             -7.270594        -1.275134         7.390582
  |   32: Species H             -6.422285         0.130661         6.700156
  |

  | The smallest distance between any two atoms is         1.01595160 AA.
  |
  | The first atom of this pair is atom number                     27 .
  | The second atom of this pair is atom number                    29 .

  Number of empty states per atom not set in control.in - providing a guess from actual geometry.
  | Total number of empty states used during s.c.f. cycle:       71
  If you use a very high smearing, use empty_states (per atom!) in control.in to increase this value.

  Structure-dependent array size parameters: 
  | Maximum number of distinct radial functions  :       40
  | Maximum number of basis functions            :      840
  | Number of Kohn-Sham states (occupied + empty):      129
------------------------------------------------------------

------------------------------------------------------------
          Preparing all fixed parts of the calculation.
------------------------------------------------------------
  Determining machine precision:
    2.225073858507201E-308
  Setting up grids for atomic and cluster calculations.

  Creating wave function, potential, and density for free atoms.

  Species: H

  List of occupied orbitals and eigenvalues:
    n    l              occ      energy [Ha]    energy [eV]
    1    0           1.0000        -0.238382        -6.4867


  Species: C

  List of occupied orbitals and eigenvalues:
    n    l              occ      energy [Ha]    energy [eV]
    1    0           2.0000       -10.041232      -273.2358
    2    0           2.0000        -0.504327       -13.7234
    2    1           2.0000        -0.193750        -5.2722


  Species: N

  List of occupied orbitals and eigenvalues:
    n    l              occ      energy [Ha]    energy [eV]
    1    0           2.0000       -14.129007      -384.4699
    2    0           2.0000        -0.681802       -18.5528
    2    1           3.0000        -0.260543        -7.0897


  Species: O

  List of occupied orbitals and eigenvalues:
    n    l              occ      energy [Ha]    energy [eV]
    1    0           2.0000       -18.898576      -514.2564
    2    0           2.0000        -0.878795       -23.9132
    2    1           4.0000        -0.332075        -9.0362

  Creating fixed part of basis set: Ionic, confined, hydrogenic.
 
  H                    hydrogenic:
 
  List of hydrogenic basis orbitals: 
    n    l      effective z      eigenvalue [eV]  inner max. [A]     outer max. [A]     outer radius [A]   
    2    0         2.100000       -14.9965           0.193243           1.317208           5.373006
    2    1         3.500000       -41.6672           0.602369           0.602369           4.056063
    1    0         0.850000        -9.8292           0.624871           0.624871           5.373006
    2    1         3.700000       -46.5653           0.573622           0.573622           3.910002
    2    0         1.200000        -4.5995           0.334980           2.228188           5.505995
    3    2         7.000000       -74.0753           0.680699           0.680699           3.769201
 
 
  C                    hydrogenic:
 
  List of hydrogenic basis orbitals: 
    n    l      effective z      eigenvalue [eV]  inner max. [A]     outer max. [A]     outer radius [A]   
    2    1         1.700000        -9.8152           1.245706           1.245706           5.401630
    3    2         6.000000       -54.4226           0.792453           0.792453           4.178599
    2    0         4.900000       -81.6681           0.082559           0.562749           3.353238
    4    3         9.800000       -81.6681           0.863254           0.863254           4.028125
    3    1         5.200000       -40.8774           0.305389           1.215618           4.898362
    3    0         4.300000       -27.9508           0.091041           1.610311           5.401630
    5    4        14.400000      -112.8510           0.917666           0.917666           3.883070
    3    2         6.200000       -58.1113           0.763917           0.763917           4.077671
 
 
  N                    hydrogenic:
 
  List of hydrogenic basis orbitals: 
    n    l      effective z      eigenvalue [eV]  inner max. [A]     outer max. [A]     outer radius [A]   
    2    1         1.800000       -11.0118           1.177451           1.177451           5.427479
    3    2         6.800000       -69.9029           0.704619           0.704619           3.854246
    3    0         5.800000       -50.8549           0.067388           1.191934           4.629968
    4    3        10.800000       -99.1854           0.786571           0.786571           3.761152
    3    1         5.800000       -50.8549           0.274880           1.094176           4.518138
    1    0         0.800000        -8.7059           0.662839           0.662839           5.361532
    5    4        16.000000      -139.3222           0.825990           0.825990           3.625711
    3    2         4.900000       -36.2967           0.968267           0.968267           4.862000
 
 
  O                    hydrogenic:
 
  List of hydrogenic basis orbitals: 
    n    l      effective z      eigenvalue [eV]  inner max. [A]     outer max. [A]     outer radius [A]   
    2    1         1.800000       -11.0118           1.178562           1.178562           5.432602
    3    2         7.600000       -87.3182           0.624125           0.624125           3.541477
    3    0         6.400000       -61.9209           0.061167           1.081902           4.306578
    4    3        11.600000      -114.4238           0.731631           0.731631           3.585037
    3    1         6.200000       -58.1113           0.255680           1.030270           4.306578
    3    2         5.600000       -47.4081           0.847233           0.847233           4.413171
    5    4        17.600000      -168.5799           0.749740           0.749740           3.372465
    1    0         0.750000        -7.6499           0.705284           0.705284           5.366593
 

  Adding cutoff potential to free-atom effective potential.
  Creating atomic-like basis functions for current effective potential.

  Species H                   :

  List of atomic basis orbitals and eigenvalues:
    n    l      energy [Ha]    energy [eV]    outer radius [A]
    1    0        -0.238382        -6.4867       5.373006


  Species C                   :

  List of atomic basis orbitals and eigenvalues:
    n    l      energy [Ha]    energy [eV]    outer radius [A]
    1    0       -10.041232      -273.2358       1.934409
    2    0        -0.504327       -13.7234       5.271162
    2    1        -0.193750        -5.2722       5.401630


  Species N                   :

  List of atomic basis orbitals and eigenvalues:
    n    l      energy [Ha]    energy [eV]    outer radius [A]
    1    0       -14.129007      -384.4699       1.637919
    2    0        -0.681802       -18.5528       5.168461
    2    1        -0.260543        -7.0897       5.361532


  Species O                   :

  List of atomic basis orbitals and eigenvalues:
    n    l      energy [Ha]    energy [eV]    outer radius [A]
    1    0       -18.898576      -514.2564       1.415765
    2    0        -0.878795       -23.9132       5.048385
    2    1        -0.332075        -9.0362       5.301386

  Assembling full basis from fixed parts.
  | Species H :   atomic orbital   1 s accepted.
  | Species H :    hydro orbital   2 s accepted.
  | Species H :    hydro orbital   1 s accepted.
  | Species H :    hydro orbital   2 s accepted.
  | Species H :    hydro orbital   2 p accepted.
  | Species H :    hydro orbital   2 p accepted.
  | Species H :    hydro orbital   3 d accepted.
  | Species C :   atomic orbital   1 s accepted.
  | Species C :    hydro orbital   2 s accepted.
  | Species C :   atomic orbital   2 s accepted.
  | Species C :    hydro orbital   3 s accepted.
  | Species C :    hydro orbital   3 p accepted.
  | Species C :   atomic orbital   2 p accepted.
  | Species C :    hydro orbital   2 p accepted.
  | Species C :    hydro orbital   3 d accepted.
  | Species C :    hydro orbital   3 d accepted.
  | Species C :    hydro orbital   4 f accepted.
  | Species C :    hydro orbital   5 g accepted.
  | Species N :   atomic orbital   1 s accepted.
  | Species N :    hydro orbital   3 s accepted.
  | Species N :   atomic orbital   2 s accepted.
  | Species N :    hydro orbital   1 s accepted.
  | Species N :    hydro orbital   3 p accepted.
  | Species N :   atomic orbital   2 p accepted.
  | Species N :    hydro orbital   2 p accepted.
  | Species N :    hydro orbital   3 d accepted.
  | Species N :    hydro orbital   3 d accepted.
  | Species N :    hydro orbital   4 f accepted.
  | Species N :    hydro orbital   5 g accepted.
  | Species O :   atomic orbital   1 s accepted.
  | Species O :    hydro orbital   3 s accepted.
  | Species O :   atomic orbital   2 s accepted.
  | Species O :    hydro orbital   1 s accepted.
  | Species O :    hydro orbital   3 p accepted.
  | Species O :   atomic orbital   2 p accepted.
  | Species O :    hydro orbital   2 p accepted.
  | Species O :    hydro orbital   3 d accepted.
  | Species O :    hydro orbital   3 d accepted.
  | Species O :    hydro orbital   4 f accepted.
  | Species O :    hydro orbital   5 g accepted.
 
  Basis size parameters after reduction:
  | Total number of radial functions:       40
  | Total number of basis functions :      840
 
  Testing on-site integration grid accuracy.
  |  Species  Function  <phi|h_atom|phi> (log., in eV)  <phi|h_atom|phi> (rad., in eV)
           1        1                 -6.4869821809                 -6.4870742227
           1        2                 13.5044133542                 13.5041049177
           1        3                 32.7854418792                 32.7779770519
           1        4                 33.7995553101                 33.7152624900 ***
           1        5                 28.8558651799                 28.8558652046
           1        6                 59.6361831893                 59.6362535845
           1        7                 60.2733718049                 60.2733715484
           2        8               -273.2358277112               -273.2358261765
           2        9                -10.7624923123                -10.7625144012
           2       10                 17.4634079027                 17.4634252127
           2       11                 53.0363661832                 53.0366180446
           2       12                 15.0981351967                 15.0981317714
           2       13                  3.8522181899                  3.8522770949
           2       14                 12.1181835661                 12.1206868578
           2       15                 29.4320778347                 29.4320780959
           2       16                 54.8753777694                 54.8752901936
           2       17                 59.3533975461                 59.3533974833
           2       18                 93.4537491195                 93.4537492066
           3       19               -384.4698526889               -384.4698499465
           3       20                 12.5691022037                 12.5690910168
           3       21                -15.7489097511                -15.7489165588
           3       22                 27.0978334940                 27.0985589490
           3       23                 18.5949116966                 18.5949125562
           3       24                  1.2212828291                  1.2212855301
           3       25                 13.4428926797                 13.4434051125
           3       26                 35.9380614500                 35.9380613666
           3       27                 39.9231532098                 39.9231654735
           3       28                 72.9957335806                 72.9957336833
           3       29                116.4231321147                116.4231321431
           4       30               -514.2564144315               -514.2564099626
           4       31                 15.1726678541                 15.1726530877
           4       32                -21.5447785304                -21.5447874973
           4       33                 14.4944558459                 14.4944698284
           4       34                 20.8882174564                 20.8882178906
           4       35                 -2.4850315908                 -2.4850322289
           4       36                 13.8600193195                 13.8599826966
           4       37                 45.8243383616                 45.8243383675
           4       38                 52.1840606465                 52.1840622440
           4       39                 85.4074185510                 85.4074185819
           4       40                142.0983717302                142.0983717339
 * Note: Onsite integrals marked "***" above are less accurate than
 * onsite_accuracy_threshold =    0.03000 eV. Usually, this is harmless.
 * When in doubt, tighten the "radial" and/or "radial_multiplier" flags to check.

  Preparing densities etc. for the partition functions (integrals / Hartree potential).

  Preparations completed.
  max(cpu_time)          :      0.236 s.
  Wall clock time (cpu1) :      0.234 s.
------------------------------------------------------------

------------------------------------------------------------
          Begin self-consistency loop: Initialization.

          Date     :  20170309, Time     :  160612.551
------------------------------------------------------------

  Initializing index lists of integration centers etc. from given atomic structure:
  | Number of centers in hartree potential         :        32
  | Number of centers in hartree multipole         :        32
  | Number of centers in electron density summation:        32
  | Number of centers in basis integrals           :        32
  | Number of centers in integrals                 :        32
  | Number of centers in hamiltonian               :        32
  Using modified Scalapack Eigenvalue solver (ELPA)
  * Using 32 tasks for Scalapack Eigenvalue solver.
  Detailed listing of tasks and assigned k-points:
  (for non-periodic systems, the "k-point" denotes an internal label only)
   Task     0 k-point     1 on eos119
   Task     1 k-point     1 on eos119
   Task     2 k-point     1 on eos119
   Task     3 k-point     1 on eos119
   Task     4 k-point     1 on eos119
   Task     5 k-point     1 on eos119
   Task     6 k-point     1 on eos119
   Task     7 k-point     1 on eos119
   Task     8 k-point     1 on eos119
   Task     9 k-point     1 on eos119
   Task    10 k-point     1 on eos119
   Task    11 k-point     1 on eos119
   Task    12 k-point     1 on eos119
   Task    13 k-point     1 on eos119
   Task    14 k-point     1 on eos119
   Task    15 k-point     1 on eos119
   Task    16 k-point     1 on eos119
   Task    17 k-point     1 on eos119
   Task    18 k-point     1 on eos119
   Task    19 k-point     1 on eos119
   Task    20 k-point     1 on eos119
   Task    21 k-point     1 on eos119
   Task    22 k-point     1 on eos119
   Task    23 k-point     1 on eos119
   Task    24 k-point     1 on eos119
   Task    25 k-point     1 on eos119
   Task    26 k-point     1 on eos119
   Task    27 k-point     1 on eos119
   Task    28 k-point     1 on eos119
   Task    29 k-point     1 on eos119
   Task    30 k-point     1 on eos119
   Task    31 k-point     1 on eos119
  Tasks:    32 split into      8 X      4 BLACS grid
  Calculating blocksize based on n_basis =          840 max_nprow =            8 max_npcol =            4
  Scalapack blocksize set to:           16
  Required Scalapack workspace - INTEGER:            1 REAL:             1
  Partitioning the integration grid into batches with parallel hashing+maxmin method.
  | Number of batches:     5025
  | Maximal batch size:     199
  | Minimal batch size:       1
  | Average batch size:     105.020
  | Standard deviation of batch sizes:      28.625

  Integration load balanced across    32 MPI tasks.
  Work distribution over tasks is as follows:
  Task     0 has      16501 integration points.
  Task     1 has      16506 integration points.
  Task     2 has      16487 integration points.
  Task     3 has      16510 integration points.
  Task     4 has      16412 integration points.
  Task     5 has      16516 integration points.
  Task     6 has      16515 integration points.
  Task     7 has      16520 integration points.
  Task     8 has      16423 integration points.
  Task     9 has      16482 integration points.
  Task    10 has      16441 integration points.
  Task    11 has      16512 integration points.
  Task    12 has      16520 integration points.
  Task    13 has      16524 integration points.
  Task    14 has      16514 integration points.
  Task    15 has      16510 integration points.
  Task    16 has      16501 integration points.
  Task    17 has      16502 integration points.
  Task    18 has      16411 integration points.
  Task    19 has      16520 integration points.
  Task    20 has      16512 integration points.
  Task    21 has      16509 integration points.
  Task    22 has      16451 integration points.
  Task    23 has      16495 integration points.
  Task    24 has      16478 integration points.
  Task    25 has      16492 integration points.
  Task    26 has      16450 integration points.
  Task    27 has      16498 integration points.
  Task    28 has      16504 integration points.
  Task    29 has      16515 integration points.
  Task    30 has      16501 integration points.
  Task    31 has      16496 integration points.
  Initializing partition tables, free-atom densities, potentials, etc. across the integration grid (initialize_grid_storage).
  | initialize_grid_storage: Actual outermost partition radius vs. multipole_radius_free
  | (-- VB: in principle, multipole_radius_free should be larger, hence this output)
  | Species        1: Confinement radius =              6.000000000000000 AA, multipole_radius_free =              6.071692442739658 AA.
  | Species        1: outer_partition_radius set to              6.071692442739658 AA .
  | Species        2: Confinement radius =              6.000000000000000 AA, multipole_radius_free =              6.029870734432609 AA.
  | Species        2: outer_partition_radius set to              6.029870734432609 AA .
  | Species        3: Confinement radius =              6.000000000000000 AA, multipole_radius_free =              6.058726835495003 AA.
  | Species        3: outer_partition_radius set to              6.058726835495003 AA .
  | Species        4: Confinement radius =              6.000000000000000 AA, multipole_radius_free =              6.064445521808699 AA.
  | Species        4: outer_partition_radius set to              6.064445521808699 AA .
  | Original list of interatomic distances with          32 x         32 entries is created.
  | Net number of integration points:   527728
  | of which are non-zero points    :   418093
  Obtaining max. number of non-zero basis functions in each batch (get_n_compute_maxes).
  | Maximal number of non-zero basis functions:      654 in task     0
  | Maximal number of non-zero basis functions:      657 in task     1
  | Maximal number of non-zero basis functions:      658 in task     2
  | Maximal number of non-zero basis functions:      659 in task     3
  | Maximal number of non-zero basis functions:      655 in task     4
  | Maximal number of non-zero basis functions:      659 in task     5
  | Maximal number of non-zero basis functions:      672 in task     6
  | Maximal number of non-zero basis functions:      657 in task     7
  | Maximal number of non-zero basis functions:      658 in task     8
  | Maximal number of non-zero basis functions:      654 in task     9
  | Maximal number of non-zero basis functions:      651 in task    10
  | Maximal number of non-zero basis functions:      666 in task    11
  | Maximal number of non-zero basis functions:      661 in task    12
  | Maximal number of non-zero basis functions:      656 in task    13
  | Maximal number of non-zero basis functions:      661 in task    14
  | Maximal number of non-zero basis functions:      660 in task    15
  | Maximal number of non-zero basis functions:      670 in task    16
  | Maximal number of non-zero basis functions:      652 in task    17
  | Maximal number of non-zero basis functions:      661 in task    18
  | Maximal number of non-zero basis functions:      657 in task    19
  | Maximal number of non-zero basis functions:      675 in task    20
  | Maximal number of non-zero basis functions:      664 in task    21
  | Maximal number of non-zero basis functions:      649 in task    22
  | Maximal number of non-zero basis functions:      662 in task    23
  | Maximal number of non-zero basis functions:      659 in task    24
  | Maximal number of non-zero basis functions:      655 in task    25
  | Maximal number of non-zero basis functions:      657 in task    26
  | Maximal number of non-zero basis functions:      668 in task    27
  | Maximal number of non-zero basis functions:      666 in task    28
  | Maximal number of non-zero basis functions:      666 in task    29
  | Maximal number of non-zero basis functions:      661 in task    30
  | Maximal number of non-zero basis functions:      661 in task    31
  Selecting the method for density update.
  Loop over occupied states selected for charge density update.
  Integrating Hamiltonian matrix: batch-based integration.
  Time summed over all CPUs for integration: real work       18.356 s, elapsed       19.469 s
  Integrating overlap matrix.
  Time summed over all CPUs for integration: real work       10.758 s, elapsed       11.090 s
  Deallocating overlap matrix.

  Updating Kohn-Sham eigenvalues, eigenvectors, occupation numbers, and Fermi level.
  Solving generalized eigenproblem
  Solving real symmetric generalised eigenvalue problem by standard ScaLAPACK.
  Transforming overlap matrix with ScaLAPACK and checking for singularities.
  : Overlap matrix is nonsingular, using Cholesky decomposition
  | Lowest eigenvalue:  0.879970E-04
  Factoring overlap matrix with Cholesky decomposition
  Using Cholesky factor for transformation
  Using 1-stage real ELPA solver
  Determining occupation numbers for Kohn-Sham eigenstates.
  | Chemical potential (Fermi level) in eV                 : -.90941665E+01
  | Error in electron count due to remaining E_F inaccuracy: 0.00000000E+00
  | Maximum occupation number of highest empty state:  0.00E+00

  Writing Kohn-Sham eigenvalues.

  State    Occupation    Eigenvalue [Ha]    Eigenvalue [eV]
      1       2.00000         -18.973657         -516.29948
      2       2.00000         -18.973303         -516.28983
      3       2.00000         -18.973054         -516.28306
      4       2.00000         -14.257436         -387.96458
      5       2.00000         -14.256031         -387.92635
      6       2.00000         -14.255669         -387.91650
      7       2.00000         -10.170743         -276.75999
      8       2.00000         -10.170218         -276.74570
      9       2.00000         -10.170032         -276.74065
     10       2.00000         -10.166795         -276.65256
     11       2.00000         -10.149434         -276.18016
     12       2.00000         -10.149326         -276.17721
     13       2.00000         -10.136324         -275.82342
     14       2.00000         -10.135540         -275.80208
     15       2.00000         -10.134980         -275.78683
     16       2.00000          -1.134384          -30.86817
     17       2.00000          -1.130680          -30.76737
     18       2.00000          -1.126524          -30.65427
     19       2.00000          -1.018677          -27.71961
     20       2.00000          -1.016309          -27.65519
     21       2.00000          -1.012501          -27.55156
     22       2.00000          -0.892100          -24.27527
     23       2.00000          -0.871129          -23.70462
     24       2.00000          -0.840816          -22.87975
     25       2.00000          -0.817332          -22.24075
     26       2.00000          -0.784461          -21.34628
     27       2.00000          -0.758015          -20.62665
     28       2.00000          -0.706470          -19.22402
     29       2.00000          -0.687206          -18.69984
     30       2.00000          -0.684373          -18.62275
     31       2.00000          -0.644163          -17.52855
     32       2.00000          -0.618673          -16.83496
     33       2.00000          -0.603715          -16.42793
     34       2.00000          -0.601489          -16.36736
     35       2.00000          -0.587374          -15.98326
     36       2.00000          -0.580568          -15.79806
     37       2.00000          -0.577353          -15.71059
     38       2.00000          -0.569862          -15.50675
     39       2.00000          -0.557103          -15.15954
     40       2.00000          -0.555540          -15.11701
     41       2.00000          -0.550011          -14.96655
     42       2.00000          -0.545837          -14.85299
     43       2.00000          -0.535529          -14.57248
     44       2.00000          -0.530187          -14.42712
     45       2.00000          -0.523075          -14.23361
     46       2.00000          -0.514426          -13.99823
     47       2.00000          -0.508349          -13.83287
     48       2.00000          -0.501805          -13.65481
     49       2.00000          -0.493343          -13.42453
     50       2.00000          -0.489733          -13.32631
     51       2.00000          -0.478795          -13.02868
     52       2.00000          -0.470937          -12.81483
     53       2.00000          -0.406820          -11.07014
     54       2.00000          -0.403488          -10.97947
     55       2.00000          -0.399743          -10.87756
     56       2.00000          -0.394694          -10.74016
     57       2.00000          -0.387482          -10.54391
     58       2.00000          -0.382268          -10.40203
     59       0.00000          -0.167091           -4.54678
     60       0.00000          -0.158539           -4.31406
     61       0.00000          -0.150765           -4.10253
     62       0.00000          -0.076061           -2.06972
     63       0.00000          -0.065305           -1.77703
     64       0.00000          -0.060680           -1.65118
     65       0.00000          -0.055871           -1.52032
     66       0.00000          -0.043974           -1.19658
     67       0.00000          -0.041779           -1.13686
     68       0.00000          -0.037489           -1.02012
     69       0.00000          -0.029409           -0.80026
     70       0.00000          -0.024982           -0.67981
     71       0.00000          -0.022169           -0.60325
     72       0.00000          -0.015221           -0.41417
     73       0.00000          -0.008449           -0.22990
     74       0.00000          -0.004896           -0.13324
     75       0.00000          -0.000823           -0.02241
     76       0.00000           0.000876            0.02385
     77       0.00000           0.002649            0.07208
     78       0.00000           0.006641            0.18070
     79       0.00000           0.007788            0.21192
     80       0.00000           0.018790            0.51129
     81       0.00000           0.020110            0.54722
     82       0.00000           0.025132            0.68388
     83       0.00000           0.037459            1.01931
     84       0.00000           0.038045            1.03524
     85       0.00000           0.041026            1.11636
     86       0.00000           0.048314            1.31468
     87       0.00000           0.053524            1.45648
     88       0.00000           0.060061            1.63436
     89       0.00000           0.061887            1.68403
     90       0.00000           0.065181            1.77366
     91       0.00000           0.071458            1.94446
     92       0.00000           0.077859            2.11866
     93       0.00000           0.078899            2.14694
     94       0.00000           0.087881            2.39137
     95       0.00000           0.092907            2.52813
     96       0.00000           0.101013            2.74869
     97       0.00000           0.106608            2.90094
     98       0.00000           0.111832            3.04311
     99       0.00000           0.113849            3.09799
    100       0.00000           0.122153            3.32396
    101       0.00000           0.131160            3.56904
    102       0.00000           0.134274            3.65377
    103       0.00000           0.135895            3.69789
    104       0.00000           0.140218            3.81553
    105       0.00000           0.144483            3.93159
    106       0.00000           0.152091            4.13861
    107       0.00000           0.156499            4.25855
    108       0.00000           0.157812            4.29428
    109       0.00000           0.164039            4.46374
    110       0.00000           0.166442            4.52911
    111       0.00000           0.170883            4.64995
    112       0.00000           0.176574            4.80482
    113       0.00000           0.188336            5.12487
    114       0.00000           0.188509            5.12960
    115       0.00000           0.193687            5.27048
    116       0.00000           0.199962            5.44125
    117       0.00000           0.203181            5.52883
    118       0.00000           0.207308            5.64113
    119       0.00000           0.210485            5.72760
    120       0.00000           0.213800            5.81779
    121       0.00000           0.218509            5.94594
    122       0.00000           0.220217            5.99242
    123       0.00000           0.228213            6.20998
    124       0.00000           0.231160            6.29018
    125       0.00000           0.236129            6.42540
    126       0.00000           0.244962            6.66575
    127       0.00000           0.250863            6.82632
    128       0.00000           0.251893            6.85435
    129       0.00000           0.262186            7.13443

  Highest occupied state (VBM) at    -10.40203272 eV
  | Occupation number:      2.00000000

  Lowest unoccupied state (CBM) at    -4.54677898 eV
  | Occupation number:      0.00000000

  Overall HOMO-LUMO gap:      5.85525375 eV.
  Calculating total energy contributions from superposition of free atom densities.

  Total energy components:
  | Sum of eigenvalues            :        -437.93176266 Ha      -11916.72957864 eV
  | XC energy correction          :         -98.82225412 Ha       -2689.09035388 eV
  | XC potential correction       :         127.02323872 Ha        3456.47818937 eV
  | Free-atom electrostatic energy:        -333.56787938 Ha       -9076.84382257 eV
  | Hartree energy correction     :           0.00000000 Ha           0.00000000 eV
  | MBD@rsSCS energy              :           0.00000000 Ha           0.00000000 eV
  | Entropy correction            :          -0.00000000 Ha          -0.00000000 eV
  | ---------------------------
  | Total energy                  :        -743.29865743 Ha      -20226.18556573 eV
  | Total energy, T -> 0          :        -743.29865743 Ha      -20226.18556573 eV  <-- do not rely on this value for anything but (periodic) metals
  | Electronic free energy        :        -743.29865743 Ha      -20226.18556573 eV

  Derived energy quantities:
  | Kinetic energy                :         735.16789538 Ha       20004.93627334 eV
  | Electrostatic energy          :       -1379.64429870 Ha      -37542.03148518 eV
  | Energy correction for multipole
  | error in Hartree potential    :           0.00000000 Ha           0.00000000 eV
  | Sum of eigenvalues per atom                           :        -372.39779933 eV
  | Total energy (T->0) per atom                          :        -632.06829893 eV  <-- do not rely on this value for anything but (periodic) metals
  | Electronic free energy per atom                       :        -632.06829893 eV
  Initialize hartree_potential_storage
  Max. number of atoms included in rho_multipole:           32

  End scf initialization - timings             :  max(cpu_time)    wall_clock(cpu1)
  | Time for scf. initialization               :        1.700 s           1.697 s
  | Boundary condition initialization          :        0.004 s           0.000 s
  | Integration                                :        0.976 s           0.975 s
  | Solution of K.-S. eqns.                    :        0.076 s           0.074 s
  | Grid partitioning                          :        0.360 s           0.345 s
  | Preloading free-atom quantities on grid    :        0.028 s           0.027 s
  | Free-atom superposition energy             :        0.036 s           0.036 s
  | Total energy evaluation                    :        0.004 s           0.000 s
------------------------------------------------------------

------------------------------------------------------------
          Begin self-consistency iteration #    1

  Date     :  20170309, Time     :  160614.249
------------------------------------------------------------
  Evaluating new KS density.
  Integration grid: deviation in total charge (<rho> - N_e) =   4.263256E-14
  Pulay mixing of updated and previous charge densities.

  Evaluating partitioned Hartree potential by multipole expansion.
  | Analytical far-field extrapolation by fixed multipoles:
  | Hartree multipole sum: apparent total charge =   0.447030E-04
  Summing up the Hartree potential.
  Time summed over all CPUs for potential: real work        9.358 s, elapsed        9.551 s
  | RMS charge density error from multipole expansion :   0.108052E-01

  Integrating Hamiltonian matrix: batch-based integration.
  Time summed over all CPUs for integration: real work       18.093 s, elapsed       18.644 s

  Updating Kohn-Sham eigenvalues, eigenvectors, occupation numbers, and Fermi level.
  Solving generalized eigenproblem
  Solving real symmetric generalised eigenvalue problem by standard ScaLAPACK.
  Using Cholesky factor for transformation
  Using 2-stage real ELPA solver
  K-Point:    1, Trafo times: 1-stage=     0.021 s, 2-stage=     0.019 s ==> Using 2-stage solver
  Determining occupation numbers for Kohn-Sham eigenstates.
  | Chemical potential (Fermi level) in eV                 : -.48009028E+01
  | Error in electron count due to remaining E_F inaccuracy: 0.00000000E+00
  | Maximum occupation number of highest empty state:  0.00E+00

  Writing Kohn-Sham eigenvalues.

  State    Occupation    Eigenvalue [Ha]    Eigenvalue [eV]
      1       2.00000         -18.633169         -507.03432
      2       2.00000         -18.630577         -506.96379
      3       2.00000         -18.597537         -506.06472
      4       2.00000         -13.995827         -380.84584
      5       2.00000         -13.987256         -380.61261
      6       2.00000         -13.971653         -380.18802
      7       2.00000         -10.062071         -273.80288
      8       2.00000         -10.058019         -273.69263
      9       2.00000         -10.036908         -273.11817
     10       2.00000          -9.960513         -271.03936
     11       2.00000          -9.950615         -270.77002
     12       2.00000          -9.904686         -269.52022
     13       2.00000          -9.838995         -267.73267
     14       2.00000          -9.835020         -267.62452
     15       2.00000          -9.826109         -267.38202
     16       2.00000          -0.975843          -26.55403
     17       2.00000          -0.965749          -26.27937
     18       2.00000          -0.941147          -25.60991
     19       2.00000          -0.870964          -23.70014
     20       2.00000          -0.865674          -23.55619
     21       2.00000          -0.850059          -23.13127
     22       2.00000          -0.744781          -20.26653
     23       2.00000          -0.714684          -19.44755
     24       2.00000          -0.683239          -18.59188
     25       2.00000          -0.675368          -18.37770
     26       2.00000          -0.634952          -17.27792
     27       2.00000          -0.614142          -16.71165
     28       2.00000          -0.576287          -15.68156
     29       2.00000          -0.555592          -15.11843
     30       2.00000          -0.544918          -14.82797
     31       2.00000          -0.506961          -13.79510
     32       2.00000          -0.476473          -12.96550
     33       2.00000          -0.468846          -12.75794
     34       2.00000          -0.453384          -12.33721
     35       2.00000          -0.450705          -12.26429
     36       2.00000          -0.443202          -12.06014
     37       2.00000          -0.427310          -11.62771
     38       2.00000          -0.423863          -11.53391
     39       2.00000          -0.419113          -11.40466
     40       2.00000          -0.403714          -10.98563
     41       2.00000          -0.400246          -10.89126
     42       2.00000          -0.388221          -10.56403
     43       2.00000          -0.387305          -10.53911
     44       2.00000          -0.376201          -10.23695
     45       2.00000          -0.372184          -10.12765
     46       2.00000          -0.360652           -9.81383
     47       2.00000          -0.356594           -9.70340
     48       2.00000          -0.353986           -9.63244
     49       2.00000          -0.350064           -9.52573
     50       2.00000          -0.341150           -9.28315
     51       2.00000          -0.335549           -9.13075
     52       2.00000          -0.315789           -8.59304
     53       2.00000          -0.243499           -6.62594
     54       2.00000          -0.236109           -6.42484
     55       2.00000          -0.233251           -6.34709
     56       2.00000          -0.221883           -6.03774
     57       2.00000          -0.216920           -5.90269
     58       2.00000          -0.195025           -5.30691
     59       0.00000          -0.053097           -1.44484
     60       0.00000          -0.045528           -1.23888
     61       0.00000          -0.032268           -0.87805
     62       0.00000          -0.028155           -0.76613
     63       0.00000          -0.016871           -0.45907
     64       0.00000          -0.013314           -0.36229
     65       0.00000          -0.005658           -0.15397
     66       0.00000          -0.000799           -0.02174
     67       0.00000           0.010898            0.29654
     68       0.00000           0.014851            0.40412
     69       0.00000           0.023160            0.63023
     70       0.00000           0.027949            0.76052
     71       0.00000           0.038827            1.05655
     72       0.00000           0.042159            1.14721
     73       0.00000           0.045466            1.23720
     74       0.00000           0.052540            1.42970
     75       0.00000           0.058220            1.58424
     76       0.00000           0.059196            1.61081
     77       0.00000           0.060088            1.63507
     78       0.00000           0.075091            2.04334
     79       0.00000           0.075784            2.06220
     80       0.00000           0.082714            2.25076
     81       0.00000           0.085994            2.34003
     82       0.00000           0.093515            2.54466
     83       0.00000           0.098573            2.68230
     84       0.00000           0.106067            2.88622
     85       0.00000           0.110462            3.00583
     86       0.00000           0.118074            3.21297
     87       0.00000           0.121240            3.29912
     88       0.00000           0.125869            3.42507
     89       0.00000           0.129936            3.53573
     90       0.00000           0.134883            3.67036
     91       0.00000           0.139378            3.79266
     92       0.00000           0.144621            3.93533
     93       0.00000           0.150577            4.09740
     94       0.00000           0.159993            4.35363
     95       0.00000           0.165809            4.51190
     96       0.00000           0.167835            4.56701
     97       0.00000           0.172844            4.70334
     98       0.00000           0.178270            4.85096
     99       0.00000           0.179459            4.88334
    100       0.00000           0.186900            5.08580
    101       0.00000           0.194503            5.29270
    102       0.00000           0.197162            5.36504
    103       0.00000           0.204369            5.56115
    104       0.00000           0.207638            5.65012
    105       0.00000           0.210947            5.74016
    106       0.00000           0.216036            5.87863
    107       0.00000           0.223347            6.07758
    108       0.00000           0.224740            6.11549
    109       0.00000           0.229599            6.24769
    110       0.00000           0.231533            6.30034
    111       0.00000           0.236746            6.44219
    112       0.00000           0.239561            6.51879
    113       0.00000           0.244412            6.65080
    114       0.00000           0.251202            6.83556
    115       0.00000           0.253053            6.88591
    116       0.00000           0.259947            7.07352
    117       0.00000           0.262882            7.15338
    118       0.00000           0.268516            7.30670
    119       0.00000           0.269464            7.33249
    120       0.00000           0.272102            7.40428
    121       0.00000           0.277211            7.54329
    122       0.00000           0.294431            8.01186
    123       0.00000           0.295695            8.04627
    124       0.00000           0.302273            8.22528
    125       0.00000           0.311211            8.46849
    126       0.00000           0.318748            8.67356
    127       0.00000           0.327999            8.92532
    128       0.00000           0.329262            8.95968
    129       0.00000           0.344138            9.36446

  Highest occupied state (VBM) at     -5.30690950 eV
  | Occupation number:      2.00000000

  Lowest unoccupied state (CBM) at    -1.44483636 eV
  | Occupation number:      0.00000000

  Overall HOMO-LUMO gap:      3.86207314 eV.

  Total energy components:
  | Sum of eigenvalues            :        -417.32110674 Ha      -11355.88509552 eV
  | XC energy correction          :        -100.76277449 Ha       -2741.89459991 eV
  | XC potential correction       :         129.54072206 Ha        3524.98239648 eV
  | Free-atom electrostatic energy:        -333.56787938 Ha       -9076.84382257 eV
  | Hartree energy correction     :         -20.61622472 Ha        -560.99601786 eV
  | MBD@rsSCS energy              :           0.00000000 Ha           0.00000000 eV
  | Entropy correction            :          -0.00000000 Ha          -0.00000000 eV
  | ---------------------------
  | Total energy                  :        -742.72726327 Ha      -20210.63713938 eV
  | Total energy, T -> 0          :        -742.72726327 Ha      -20210.63713938 eV  <-- do not rely on this value for anything but (periodic) metals
  | Electronic free energy        :        -742.72726327 Ha      -20210.63713938 eV

  Derived energy quantities:
  | Kinetic energy                :         744.07332723 Ha       20247.26540357 eV
  | Electrostatic energy          :       -1386.03781601 Ha      -37716.00794304 eV
  | Energy correction for multipole
  | error in Hartree potential    :          -0.04160660 Ha          -1.13217309 eV
  | Sum of eigenvalues per atom                           :        -354.87140924 eV
  | Total energy (T->0) per atom                          :        -631.58241061 eV  <-- do not rely on this value for anything but (periodic) metals
  | Electronic free energy per atom                       :        -631.58241061 eV

  Self-consistency convergence accuracy:
  | Change of charge density      :  0.9022E+00
  | Change of sum of eigenvalues  :  0.5608E+03 eV
  | Change of total energy        :  0.1555E+02 eV

  End self-consistency iteration #     1       :  max(cpu_time)    wall_clock(cpu1)
  | Time for this iteration                    :        1.368 s           1.368 s
[...]
   Multipole                     : -0.477606E+00  0.243682E+00 -0.286486E+00
   Pulay + GGA                   : -0.110042E+02  0.524765E+01 -0.517042E+01
   MBD@rsSCS                     : -0.941532E-02  0.600093E-02 -0.145778E-01
   ----------------------------------------------------------------
   Total forces(  20)            : -0.104759E-03  0.505757E-03 -0.258633E-02
  atom #   21
   Hellmann-Feynman              : -0.458513E-01  0.155354E-01  0.589854E-02
   Ionic forces                  :  0.000000E+00  0.000000E+00  0.000000E+00
   Multipole                     :  0.163194E-01  0.900474E-02 -0.339824E-01
   Pulay + GGA                   :  0.427564E-01 -0.199155E-01  0.258998E-01
   MBD@rsSCS                     : -0.126228E-02  0.542784E-02 -0.465292E-02
   ----------------------------------------------------------------
   Total forces(  21)            :  0.119622E-01  0.100525E-01 -0.683699E-02
  atom #   22
   Hellmann-Feynman              :  0.564696E-01 -0.505709E-01 -0.276217E-01
   Ionic forces                  :  0.000000E+00  0.000000E+00  0.000000E+00
   Multipole                     : -0.253903E-01 -0.110182E-01  0.980853E-02
   Pulay + GGA                   : -0.397112E-01  0.562479E-01  0.200073E-01
   MBD@rsSCS                     : -0.308948E-02 -0.212356E-02  0.213562E-02
   ----------------------------------------------------------------
   Total forces(  22)            : -0.117214E-01 -0.746480E-02  0.432980E-02
  atom #   23
   Hellmann-Feynman              : -0.455258E+00 -0.796756E+00 -0.658181E+00
   Ionic forces                  :  0.000000E+00  0.000000E+00  0.000000E+00
   Multipole                     :  0.165212E+00  0.267176E+00  0.105394E+00
   Pulay + GGA                   :  0.301861E+00  0.532282E+00  0.554815E+00
   MBD@rsSCS                     :  0.634237E-02  0.121201E-01  0.865918E-02
   ----------------------------------------------------------------
   Total forces(  23)            :  0.181577E-01  0.148211E-01  0.106874E-01
  atom #   24
   Hellmann-Feynman              :  0.398726E-01  0.216406E-01 -0.109130E-02
   Ionic forces                  :  0.000000E+00  0.000000E+00  0.000000E+00
   Multipole                     :  0.152561E-01 -0.174968E-01 -0.151699E-01
   Pulay + GGA                   : -0.569596E-01  0.698968E-02  0.304605E-01
   MBD@rsSCS                     :  0.290885E-02  0.115225E-01  0.127488E-01
   ----------------------------------------------------------------
   Total forces(  24)            :  0.107789E-02  0.226560E-01  0.269480E-01
  atom #   25
   Hellmann-Feynman              :  0.920544E-02  0.501581E-01  0.177053E-02
   Ionic forces                  :  0.000000E+00  0.000000E+00  0.000000E+00
   Multipole                     : -0.244731E-01  0.559775E-02 -0.115132E-01
   Pulay + GGA                   :  0.150471E-01 -0.589794E-01  0.916840E-02
   MBD@rsSCS                     :  0.771235E-02  0.782279E-02  0.553540E-02
   ----------------------------------------------------------------
   Total forces(  25)            :  0.749184E-02  0.459922E-02  0.496109E-02
  atom #   26
   Hellmann-Feynman              :  0.394378E-01  0.466202E-01  0.350777E-01
   Ionic forces                  :  0.000000E+00  0.000000E+00  0.000000E+00
   Multipole                     : -0.160591E-01 -0.284919E-01  0.192048E-01
   Pulay + GGA                   : -0.161367E-01 -0.100803E-01 -0.571250E-01
   MBD@rsSCS                     :  0.105678E-01  0.106364E-01  0.196942E-02
   ----------------------------------------------------------------
   Total forces(  26)            :  0.178099E-01  0.186844E-01 -0.873027E-03
  atom #   27
   Hellmann-Feynman              :  0.153621E+01  0.428986E-02  0.436924E+00
   Ionic forces                  :  0.000000E+00  0.000000E+00  0.000000E+00
   Multipole                     :  0.159120E+00 -0.675059E-01 -0.341525E-01
   Pulay + GGA                   : -0.170419E+01  0.651267E-01 -0.407007E+00
   MBD@rsSCS                     :  0.816615E-02 -0.466722E-02 -0.194378E-01
   ----------------------------------------------------------------
   Total forces(  27)            : -0.695608E-03 -0.275648E-02 -0.236732E-01
  atom #   28
   Hellmann-Feynman              : -0.204337E+01  0.100209E+01 -0.420871E+00
   Ionic forces                  :  0.000000E+00  0.000000E+00  0.000000E+00
   Multipole                     :  0.187903E+00 -0.847918E-01  0.794258E-01
   Pulay + GGA                   :  0.186000E+01 -0.919934E+00  0.327946E+00
   MBD@rsSCS                     :  0.848412E-02 -0.293584E-02 -0.127444E-01
   ----------------------------------------------------------------
   Total forces(  28)            :  0.130211E-01 -0.556713E-02 -0.262436E-01
  atom #   29
   Hellmann-Feynman              :  0.407094E-01 -0.573609E-02 -0.521318E-01
   Ionic forces                  :  0.000000E+00  0.000000E+00  0.000000E+00
   Multipole                     : -0.409281E-01  0.185148E-01 -0.591265E-02
   Pulay + GGA                   : -0.127002E-02 -0.119569E-01  0.673611E-01
   MBD@rsSCS                     : -0.279060E-02  0.176810E-02 -0.701613E-02
   ----------------------------------------------------------------
   Total forces(  29)            : -0.427926E-02  0.258996E-02  0.230049E-02
  atom #   30
   Hellmann-Feynman              :  0.466743E-01 -0.271737E-01 -0.187278E-01
   Ionic forces                  :  0.000000E+00  0.000000E+00  0.000000E+00
   Multipole                     : -0.240299E-01 -0.776954E-02 -0.247554E-01
   Pulay + GGA                   : -0.247833E-01  0.353320E-01  0.491141E-01
   MBD@rsSCS                     :  0.571347E-02 -0.345641E-02 -0.170781E-02
   ----------------------------------------------------------------
   Total forces(  30)            :  0.357455E-02 -0.306767E-02  0.392309E-02
  atom #   31
   Hellmann-Feynman              :  0.388630E-01  0.595530E-02  0.248272E-01
   Ionic forces                  :  0.000000E+00  0.000000E+00  0.000000E+00
   Multipole                     :  0.126085E-01  0.264788E-01 -0.155502E-02
   Pulay + GGA                   : -0.573027E-01 -0.336952E-01 -0.189844E-01
   MBD@rsSCS                     :  0.943341E-02 -0.452015E-02 -0.649172E-02
   ----------------------------------------------------------------
   Total forces(  31)            :  0.360229E-02 -0.578122E-02 -0.220396E-02
  atom #   32
   Hellmann-Feynman              :  0.292905E-01 -0.232367E-01  0.412389E-01
   Ionic forces                  :  0.000000E+00  0.000000E+00  0.000000E+00
   Multipole                     : -0.298658E-01 -0.146635E-01  0.138412E-01
   Pulay + GGA                   :  0.515547E-02  0.368450E-01 -0.552793E-01
   MBD@rsSCS                     :  0.102168E-01 -0.853299E-02 -0.639535E-02
   ----------------------------------------------------------------
   Total forces(  32)            :  0.147970E-01 -0.958824E-02 -0.659460E-02

  Removing unitary transformations (pure translations, rotations) from forces on atoms.
  Atomic forces before filtering:
  | Net force on center of mass :  -0.471604E-03 -0.142452E-04 -0.386337E-03 eV/A
  | Net torque on center of mass:   0.369519E-02  0.929625E-03 -0.273989E-02 eV
  Atomic forces after filtering:
  | Net force on center of mass :  -0.139380E-16  0.696899E-17  0.000000E+00 eV/A
  | Net torque on center of mass:   0.383534E-16 -0.413037E-16 -0.236021E-16 eV

  Energy and forces in a compact form:
  | Total energy uncorrected      :         -0.202092972601395E+05 eV
  | Total energy corrected        :         -0.202092972601395E+05 eV  <-- do not rely on this value for anything but (periodic) metals
  | Electronic free energy        :         -0.202092972601395E+05 eV
  Total atomic forces (unitary forces cleaned) [eV/Ang]:
  |   1         -0.430485843487341E-02          0.351277958901449E-02         -0.454090547595297E-02
  |   2         -0.144206197136966E-02          0.222216985220165E-02          0.309830521828310E-01
  |   3         -0.122821335447850E-01          0.117568436766230E-01          0.196690158534918E-02
  |   4          0.479604471674542E-02         -0.121469381599890E-02          0.720866867427602E-02
  |   5          0.197094818365416E-02         -0.529077241493069E-02          0.619377317510256E-02
  |   6         -0.310705775252483E-02         -0.157441080771377E-02          0.109284443907646E-01
  |   7          0.950258854873952E-02          0.116718348728510E-01         -0.382684042714392E-02
  |   8          0.275100625979308E-02         -0.248264328245411E-02          0.145973426989039E-02
  |   9         -0.179871835259936E-01         -0.299667217737500E-02          0.184942263600815E-01
  |  10         -0.605654956056841E-02         -0.108681740912950E-01          0.812324123533905E-02
  |  11          0.486937865686290E-02         -0.968530166589244E-03         -0.194302788140138E-02
  |  12          0.358619031121382E-02          0.663749627902503E-02          0.734956071245798E-02
  |  13         -0.159190124433617E-01         -0.169413267512148E-01         -0.157007688567678E-01
  |  14         -0.192276602816484E-01         -0.179252756041155E-01         -0.520985143779069E-02
  |  15         -0.613633803111969E-02         -0.325228651489455E-02         -0.691540440906207E-02
  |  16         -0.461212046963841E-02         -0.141956346565292E-01         -0.237927832249181E-01
  |  17          0.208834220263778E-01          0.207170128346975E-02         -0.169029808187672E-01
  |  18         -0.146563608989929E-01          0.809860574210405E-02          0.723881781477021E-02
  |  19         -0.176238254779126E-01         -0.781201855993113E-02         -0.548906782127271E-02
  |  20         -0.686545573892882E-04          0.621519453720538E-03         -0.252691015122092E-02
  |  21          0.120024918962346E-01          0.101249587759836E-01         -0.678304534166967E-02
  |  22         -0.117335265996019E-01         -0.750011418634535E-02          0.430683488329444E-02
  |  23          0.182313189277718E-01          0.147526589861345E-01          0.107431384766716E-01
  |  24          0.114784125667535E-02          0.225635171132516E-01          0.269947345584174E-01
  |  25          0.760264444147789E-02          0.455558440224295E-02          0.505980893979113E-02
  |  26          0.178865079366168E-01          0.185706247027480E-01         -0.824370478359783E-03
  |  27         -0.695249904540714E-03         -0.270730736424819E-02         -0.236646420047441E-01
  |  28          0.130016805629825E-01         -0.558211030202217E-02         -0.262693292254694E-01
  |  29         -0.427749876235240E-02          0.268406974492933E-02          0.232054551926939E-02
  |  30          0.352305793792972E-02         -0.306323028700695E-02          0.386951605900984E-02
  |  31          0.361474311962566E-02         -0.583411554195203E-02         -0.220614973225963E-02
  |  32          0.147602274339721E-01         -0.963504794968295E-02         -0.664492155051590E-02

  ------------------------------------ 
  Start decomposition of the XC Energy 
  ------------------------------------ 
  Hartree-Fock part   :          0.000000000 Ha              0.000000000 eV
  ------------------------------------ 
  X Energy            :        -96.994708579 Ha          -2639.360309622 eV
  C Energy GGA        :         -3.868497323 Ha           -105.267168084 eV
  Total XC Energy     :       -100.863205902 Ha          -2744.627477706 eV
  LDA X and C from self-consistent density 
  X Energy LDA        :        -88.010561850 Ha          -2394.889238564 eV
  C Energy LDA        :         -7.532041396 Ha           -204.957274491 eV
  ------------------------------------ 
  End decomposition of the XC Energy 
  ------------------------------------ 
   
  ESP charge fitting starts.
  | Calculation :  00000001  of  00000001
  | Full density
  Computing multipole expansion for total density.
  Generating points for esp charges.
  Partitioning the integration grid into batches with parallel hashing+maxmin method.
  | Number of batches:     3871
  | Maximal batch size:     194
  | Minimal batch size:      53
  | Average batch size:     125.941
  | Standard deviation of batch sizes:      16.691

  Integration load balanced across    32 MPI tasks.
  Work distribution over tasks is as follows:
  Initializing partition tables, free-atom densities, potentials, etc. across the integration grid (initialize_grid_storage).
  | Original list of interatomic distances with          32 x         32 entries is created.
  | Net number of integration points:   487519
  | of which are non-zero points    :   487519
  Summing up potential from multipole expanded  density.
  Summing up the Hartree potential.
  Time summed over all CPUs for potential: real work        6.340 s, elapsed        6.567 s
  Fitting esp charges to potential.
  |
  | ESP charges fitted to the electrostatic potential :
  |
  | Atom         1: C, ESP charge:      0.93883221
  |
  | Atom         2: C, ESP charge:     -0.67529210
  |
  | Atom         3: O, ESP charge:      0.54216091
  |
  | Atom         4: H, ESP charge:     -0.25779460
  |
  | Atom         5: H, ESP charge:     -0.26435461
  |
  | Atom         6: H, ESP charge:     -0.24398002
  |
  | Atom         7: N, ESP charge:      0.37436745
  |
  | Atom         8: C, ESP charge:     -0.14343825
  |
  | Atom         9: C, ESP charge:     -0.78237358
  |
  | Atom        10: O, ESP charge:      0.56938547
  |
  | Atom        11: H, ESP charge:     -0.22525718
  |
  | Atom        12: H, ESP charge:     -0.05942722
  |
  | Atom        13: C, ESP charge:      0.54796600
  |
  | Atom        14: H, ESP charge:     -0.14253987
  |
  | Atom        15: H, ESP charge:     -0.14419861
  |
  | Atom        16: H, ESP charge:     -0.18384942
  |
  | Atom        17: N, ESP charge:      1.08870011
  |
  | Atom        18: C, ESP charge:     -0.75785987
  |
  | Atom        19: C, ESP charge:     -0.19518970
  |
  | Atom        20: O, ESP charge:      0.49261012
  |
  | Atom        21: H, ESP charge:     -0.48055872
  |
  | Atom        22: H, ESP charge:     -0.01278790
  |
  | Atom        23: C, ESP charge:      0.59311989
  |
  | Atom        24: H, ESP charge:     -0.12834948
  |
  | Atom        25: H, ESP charge:     -0.18093487
  |
  | Atom        26: H, ESP charge:     -0.15688849
  |
  | Atom        27: N, ESP charge:      0.27173695
  |
  | Atom        28: C, ESP charge:      0.20234303
  |
  | Atom        29: H, ESP charge:     -0.30157173
  |
  | Atom        30: H, ESP charge:     -0.11704536
  |
  | Atom        31: H, ESP charge:     -0.09135079
  |
  | Atom        32: H, ESP charge:     -0.07617976

  RRMS:       0.00289143

  Done.

------------------------------------------------------------------------------
  Final output of selected total energy values:

  The following output summarizes some interesting total energy values
  at the end of a run (AFTER all relaxation, molecular dynamics, etc.).

  | Total energy of the DFT / Hartree-Fock s.c.f. calculation      :         -20209.297260140 eV
  | Final zero-broadening corrected energy (caution - metals only) :         -20209.297260140 eV
  | For reference only, the value of 1 Hartree used in FHI-aims is :             27.211384500 eV

  Before relying on these values, please be sure to understand exactly which
  total energy value is referred to by a given number. Different objects may
  all carry the same name 'total energy'. Definitions:

  Total energy of the DFT / Hartree-Fock s.c.f. calculation:
  | Note that this energy does not include ANY quantities calculated after the
  | s.c.f. cycle, in particular not ANY RPA, MP2, etc. many-body perturbation terms.

  Final zero-broadening corrected energy:
  | For metallic systems only, a broadening of the occupation numbers at the Fermi
  | level can be extrapolated back to zero broadening by an electron-gas inspired
  | formula. For all systems that are not real metals, this value can be
  | meaningless and should be avoided.

------------------------------------------------------------------------------
  Methods described in the following list of references were used in this FHI-aims run.
  If you publish the results, please make sure to cite these reference if they apply.
  FHI-aims is an academic code, and for our developers (often, Ph.D. students
  and postdocs), scientific credit in the community is essential.
  Thank you for helping us!

  For any use of FHI-aims, please cite:

    Volker Blum, Ralf Gehrke, Felix Hanke, Paula Havu, Ville Havu,
    Xinguo Ren, Karsten Reuter, and Matthias Scheffler
    'Ab initio molecular simulations with numeric atom-centered orbitals'
    Computer Physics Communications 180, 2175-2196 (2009)
    http://dx.doi.org/10.1016/j.cpc.2009.06.022


  The scalable eigensolver library ELPA was used in your run.
  ELPA is essential especially for large systems on hundreds or thousands of CPUs.
  For ELPA, please cite:

    Andreas Marek, Volker Blum, Rainer Johanni, Ville Havu, Bruno Lang,
    Thomas Auckenthaler, Alexander Heinecke, Hans-Joachim Bungartz, and Hermann Lederer,
    'The ELPA Library - Scalable Parallel Eigenvalue Solutions
    for Electronic Structure Theory and Computational Science'
    The Journal of Physics: Condensed Matter 26, 213201 (2014).
    http://dx.doi.org/10.1088/0953-8984/26/21/213201


  For ELPA's efficient two-stage tridiagonalization used in your run, please cite:

    T. Auckenthaler, V. Blum, H.-J. Bungartz, T. Huckle, R. Johanni, L. Kraemer,
    B. Lang, H. Lederer, and P. R. Willems,
    'Parallel solution of partial symmetric eigenvalue problems'
    'from  electronic structure calculations'
    Parallel Computing 37, 783-794 (2011).
    http://dx.doi.org/10.1016/j.parco.2011.05.002


  For the real-space grid partitioning and parallelization used in this calculation, please cite:

    Ville Havu, Volker Blum, Paula Havu, and Matthias Scheffler,
    'Efficient O(N) integration for all-electron electronic structure calculation'
    'using numerically tabulated basis functions'
    Journal of Computational Physics 228, 8367-8379 (2009).
    http://dx.doi.org/10.1016/j.jcp.2009.08.008

  Of course, there are many other important community references, e.g., those cited in the
  above references. Our list is limited to references that describe implementations in the
  FHI-aims code. The reason is purely practical (length of this list) - please credit others as well.

------------------------------------------------------------
          Leaving FHI-aims.
          Date     :  20170309, Time     :  160639.080

          Computational steps:
          | Number of self-consistency cycles          :           13

          Detailed time accounting                     :  max(cpu_time)    wall_clock(cpu1)
          | Total time                                 :       27.410 s          27.559 s
          | Preparation time                           :        0.236 s           0.234 s
          | Grid partitioning                          :        0.360 s           0.345 s
          | Preloading free-atom quantities on grid    :        0.028 s           0.027 s
          | Free-atom superposition energy             :        0.036 s           0.036 s
          | Total time for integrations                :        8.777 s           8.770 s
          | Total time for solution of K.-S. equations :        0.496 s           0.466 s
          | Total time for density & force components  :        7.056 s           7.030 s
          | Total time for mixing                      :        0.112 s           0.097 s
          | Total time for Hartree multipole update    :        0.060 s           0.053 s
          | Total time for Hartree multipole sum       :        5.388 s           5.379 s
          | Total time for total energy evaluation     :        0.020 s           0.014 s

          Have a nice day.
------------------------------------------------------------
