  MPI-parallelism will be employed.
------------------------------------------------------------
          Invoking FHI-aims ...
          Version 150427
          Git rev.: 9dd23e0 BL: Update Version stamp
          Compiled on 2015/11/03 at 22:05:20 on host eos03.

          When using FHI-aims, please cite the following reference:

          Volker Blum, Ralf Gehrke, Felix Hanke, Paula Havu,
          Ville Havu, Xinguo Ren, Karsten Reuter, and Matthias Scheffler,
          'Ab Initio Molecular Simulations with Numeric Atom-Centered Orbitals: FHI-aims',
          Computer Physics Communications 180, 2175-2196 (2009)

          For any questions about FHI-aims, please visit the aimsclub website
          with its forums and wiki. Contributions to both the forums and the
          wiki are warmly encouraged - they are for you, and everyone is welcome there.

------------------------------------------------------------

  Date     :  20170309, Time     :  190625.553
  Time zero on CPU 1             :   0.428026000000000E+00  s.
  Internal wall clock time zero  :           258318385.553  s.

  Using       32 parallel tasks.
  Task        0 on host eos366 reporting.
  Task        1 on host eos366 reporting.
  Task        2 on host eos366 reporting.
  Task        3 on host eos366 reporting.
  Task        4 on host eos366 reporting.
  Task        5 on host eos366 reporting.
  Task        6 on host eos366 reporting.
  Task        7 on host eos366 reporting.
  Task        8 on host eos366 reporting.
  Task        9 on host eos366 reporting.
  Task       10 on host eos366 reporting.
  Task       11 on host eos366 reporting.
  Task       12 on host eos366 reporting.
  Task       13 on host eos366 reporting.
  Task       14 on host eos366 reporting.
  Task       15 on host eos366 reporting.
  Task       16 on host eos366 reporting.
  Task       17 on host eos366 reporting.
  Task       18 on host eos366 reporting.
  Task       19 on host eos366 reporting.
  Task       20 on host eos366 reporting.
  Task       21 on host eos366 reporting.
  Task       22 on host eos366 reporting.
  Task       23 on host eos366 reporting.
  Task       24 on host eos366 reporting.
  Task       25 on host eos366 reporting.
  Task       26 on host eos366 reporting.
  Task       27 on host eos366 reporting.
  Task       28 on host eos366 reporting.
  Task       29 on host eos366 reporting.
  Task       30 on host eos366 reporting.
  Task       31 on host eos366 reporting.

  Performing system and environment tests:
  | Environment variable OMP_NUM_THREADS correctly set to 1.
  | Stacksize not measured: no C compiler
  | Checking for scalapack...
  | Testing pdtran()...
  | All pdtran() tests passed.

  Obtaining array dimensions for all initial allocations:
  
  -----------------------------------------------------------------------
  Parsing control.in (first pass over file, find array dimensions only).
  The contents of control.in will be repeated verbatim below
  unless switched off by setting 'verbatim_writeout .false.' .
  in the first line of control.in .
  -----------------------------------------------------------------------
  
  #########################################################################################
  #
  # Input for System
  #
  #########################################################################################
  #
  #
  #  Physical model
  #
    xc                 pbe
    many_body_dispersion
    spin               none
    charge             0.
  #
  #  SCF convergence
  #
    occupation_type    gaussian 0.05
    mixer              pulay
      n_max_pulay        10
      charge_mix_param   0.5
    sc_accuracy_rho    1E-4
    sc_accuracy_eev    1E-2
    sc_accuracy_etot   1E-5
    sc_accuracy_forces 1E-4
    sc_iter_limit      1000
  #
  #  ESP charge
  #
    output esp
    esp equal_grid_n 80 80 80
  #
  #
  ################################################################################
  #
  #  FHI-aims code project
  # Volker Blum, Fritz Haber Institute Berlin, 2009
  #
  #  Suggested "tight" defaults for H atom (to be pasted into control.in file)
  #
  ################################################################################
    species        H
  #     global species definitions
      nucleus             1
      mass                1.00794
  #
      l_hartree           6
  #
      cut_pot             4.0  2.0  1.0
      basis_dep_cutoff    1e-4
  #
      radial_base         24 7.0
      radial_multiplier   2
      angular_grids       specified
        division   0.1930   50
        division   0.3175  110
        division   0.4293  194
        division   0.5066  302
        division   0.5626  434
  #      division   0.5922  590
  #      division   0.6227  974
  #      division   0.6868 1202
  #      outer_grid  770
        outer_grid  434
  ################################################################################
  #
  #  Definition of "minimal" basis
  #
  ################################################################################
  #     valence basis states
      valence      1  s   1.
  #     ion occupancy
      ion_occ      1  s   0.5
  ################################################################################
  #
  #  Suggested additional basis functions. For production calculations,
  #  uncomment them one after another (the most important basis functions are
  #  listed first).
  #
  #  Basis constructed for dimers: 0.5 A, 0.7 A, 1.0 A, 1.5 A, 2.5 A
  #
  ################################################################################
  #  "First tier" - improvements: -1014.90 meV to -62.69 meV
       hydro 2 s 2.1
       hydro 2 p 3.5
  #  "Second tier" - improvements: -12.89 meV to -1.83 meV
       hydro 1 s 0.85
       hydro 2 p 3.7
       hydro 2 s 1.2
       hydro 3 d 7
  #  "Third tier" - improvements: -0.25 meV to -0.12 meV
  #     hydro 4 f 11.2
  #     hydro 3 p 4.8
  #     hydro 4 d 9
  #     hydro 3 s 3.2
  ################################################################################
  #
  # For methods that use the localized form of the "resolution of identity" for
  # the two-electron Coulomb operator (RI_method LVL), particularly Hartree-Fock and
  # hybrid density functional calculations, the highest accuracy can be obtained by
  # uncommenting the line beginning with "for_aux"  below, thus adding an extra g radial
  # function to the construction of the product basis set for the expansion.
  # See Ref. New J. Phys. 17, 093020 (2015) for more information, particularly Figs. 1 and 6.
  #
  ################################################################################
  #
  # for_aux hydro 5 g 6.0
  ################################################################################
  #
  #  FHI-aims code project
  # Volker Blum, Fritz Haber Institute Berlin, 2009
  #
  #  Suggested "tight" defaults for C atom (to be pasted into control.in file)
  #
  ################################################################################
    species        C
  #     global species definitions
      nucleus             6
      mass                12.0107
  #
      l_hartree           6
  #
      cut_pot             4.0  2.0  1.0
      basis_dep_cutoff    1e-4
  #
      radial_base         34 7.0
      radial_multiplier   2
      angular_grids specified
        division   0.2187   50
        division   0.4416  110
        division   0.6335  194
        division   0.7727  302
        division   0.8772  434
  #      division   0.9334  590
  #      division   0.9924  770
  #      division   1.0230  974
  #      division   1.5020 1202
  #     outer_grid  974
        outer_grid  434
  ################################################################################
  #
  #  Definition of "minimal" basis
  #
  ################################################################################
  #     valence basis states
      valence      2  s   2.
      valence      2  p   2.
  #     ion occupancy
      ion_occ      2  s   1.
      ion_occ      2  p   1.
  ################################################################################
  #
  #  Suggested additional basis functions. For production calculations,
  #  uncomment them one after another (the most important basis functions are
  #  listed first).
  #
  #  Constructed for dimers: 1.0 A, 1.25 A, 1.5 A, 2.0 A, 3.0 A
  #
  ################################################################################
  #  "First tier" - improvements: -1214.57 meV to -155.61 meV
       hydro 2 p 1.7
       hydro 3 d 6
       hydro 2 s 4.9
  #  "Second tier" - improvements: -67.75 meV to -5.23 meV
       hydro 4 f 9.8
       hydro 3 p 5.2
       hydro 3 s 4.3
       hydro 5 g 14.4
       hydro 3 d 6.2
  #  "Third tier" - improvements: -2.43 meV to -0.60 meV
  #     hydro 2 p 5.6
  #     hydro 2 s 1.4
  #     hydro 3 d 4.9
  #     hydro 4 f 11.2
  #  "Fourth tier" - improvements: -0.39 meV to -0.18 meV
  #     hydro 2 p 2.1
  #     hydro 5 g 16.4
  #     hydro 4 d 13.2
  #     hydro 3 s 13.6
  #     hydro 4 f 17.6
  #  Further basis functions - improvements: -0.08 meV and below
  #     hydro 3 s 2
  #     hydro 3 p 6
  #     hydro 4 d 20
  ################################################################################
  #
  # For methods that use the localized form of the "resolution of identity" for
  # the two-electron Coulomb operator (RI_method LVL), particularly Hartree-Fock and
  # hybrid density functional calculations, the highest accuracy can be obtained by
  # uncommenting the line beginning with "for_aux"  below, thus adding an extra g radial
  # function to the construction of the product basis set for the expansion.
  # See Ref. New J. Phys. 17, 093020 (2015) for more information, particularly Figs. 1 and 6.
  #
  ################################################################################
  #
  # for_aux hydro 5 g 6.0
  ################################################################################
  #
  #  FHI-aims code project
  # Volker Blum, Fritz Haber Institute Berlin, 2009
  #
  #  Suggested "tight" defaults for N atom (to be pasted into control.in file)
  #
  ################################################################################
    species        N
  #     global species definitions
      nucleus             7
      mass                14.0067
  #
      l_hartree           6
  #
      cut_pot             4.0  2.0  1.0
      basis_dep_cutoff    1e-4
  #
      radial_base         35 7.0
      radial_multiplier   2
      angular_grids       specified
        division   0.1841   50
        division   0.3514  110
        division   0.5126  194
        division   0.6292  302
        division   0.6939  434
  #      division   0.7396  590
  #      division   0.7632  770
  #      division   0.8122  974
  #      division   1.1604 1202
  #      outer_grid  974
        outer_grid  434
  ################################################################################
  #
  #  Definition of "minimal" basis
  #
  ################################################################################
  #     valence basis states
      valence      2  s   2.
      valence      2  p   3.
  #     ion occupancy
      ion_occ      2  s   1.
      ion_occ      2  p   2.
  ################################################################################
  #
  #  Suggested additional basis functions. For production calculations,
  #  uncomment them one after another (the most important basis functions are
  #  listed first).
  #
  #  Constructed for dimers: 1.0 A, 1.1 A, 1.5 A, 2.0 A, 3.0 A
  #
  ################################################################################
  #  "First tier" - improvements: -1193.42 meV to -220.60 meV
       hydro 2 p 1.8
       hydro 3 d 6.8
       hydro 3 s 5.8
  #  "Second tier" - improvements: -80.21 meV to -6.86 meV
       hydro 4 f 10.8
       hydro 3 p 5.8
       hydro 1 s 0.8
       hydro 5 g 16
       hydro 3 d 4.9
  #  "Third tier" - improvements: -4.29 meV to -0.53 meV
  #     hydro 3 s 16
  #     ionic 2 p auto
  #     hydro 3 d 6.6
  #     hydro 4 f 11.6
  #  "Fourth tier" - improvements: -0.75 meV to -0.25 meV
  #     hydro 2 p 4.5
  #     hydro 2 s 2.4
  #     hydro 5 g 14.4
  #     hydro 4 d 14.4
  #     hydro 4 f 16.8
  # Further basis functions - -0.21 meV and below
  #     hydro 3 p 14.8
  #     hydro 3 s 4.4
  #     hydro 3 d 19.6
  #     hydro 5 g 12.8
  ################################################################################
  #
  # For methods that use the localized form of the "resolution of identity" for
  # the two-electron Coulomb operator (RI_method LVL), particularly Hartree-Fock and
  # hybrid density functional calculations, the highest accuracy can be obtained by
  # uncommenting the line beginning with "for_aux"  below, thus adding an extra g radial
  # function to the construction of the product basis set for the expansion.
  # See Ref. New J. Phys. 17, 093020 (2015) for more information, particularly Figs. 1 and 6.
  #
  ################################################################################
  #
  # for_aux hydro 5 g 6.0
  ################################################################################
  #
  #  FHI-aims code project
  # Volker Blum, Fritz Haber Institute Berlin, 2009
  #
  #  Suggested "tight" defaults for O atom (to be pasted into control.in file)
  #
  ################################################################################
    species        O
  #     global species definitions
      nucleus             8
      mass                15.9994
  #
      l_hartree           6
  #
      cut_pot             4.0  2.0  1.0
      basis_dep_cutoff    1e-4
  #
      radial_base         36 7.0
      radial_multiplier   2
       angular_grids specified
        division   0.1817   50
        division   0.3417  110
        division   0.4949  194
        division   0.6251  302
        division   0.8014  434
  #      division   0.8507  590
  #      division   0.8762  770
  #      division   0.9023  974
  #      division   1.2339 1202
  #      outer_grid 974
        outer_grid  434
  ################################################################################
  #
  #  Definition of "minimal" basis
  #
  ################################################################################
  #     valence basis states
      valence      2  s   2.
      valence      2  p   4.
  #     ion occupancy
      ion_occ      2  s   1.
      ion_occ      2  p   3.
  ################################################################################
  #
  #  Suggested additional basis functions. For production calculations,
  #  uncomment them one after another (the most important basis functions are
  #  listed first).
  #
  #  Constructed for dimers: 1.0 A, 1.208 A, 1.5 A, 2.0 A, 3.0 A
  #
  ################################################################################
  #  "First tier" - improvements: -699.05 meV to -159.38 meV
       hydro 2 p 1.8
       hydro 3 d 7.6
       hydro 3 s 6.4
  #  "Second tier" - improvements: -49.91 meV to -5.39 meV
       hydro 4 f 11.6
       hydro 3 p 6.2
       hydro 3 d 5.6
       hydro 5 g 17.6
       hydro 1 s 0.75
  #  "Third tier" - improvements: -2.83 meV to -0.50 meV
  #     ionic 2 p auto
  #     hydro 4 f 10.8
  #     hydro 4 d 4.7
  #     hydro 2 s 6.8
  #  "Fourth tier" - improvements: -0.40 meV to -0.12 meV
  #     hydro 3 p 5
  #     hydro 3 s 3.3
  #     hydro 5 g 15.6
  #     hydro 4 f 17.6
  #     hydro 4 d 14
  # Further basis functions - -0.08 meV and below
  #     hydro 3 s 2.1
  #     hydro 4 d 11.6
  #     hydro 3 p 16
  #     hydro 2 s 17.2
  ################################################################################
  #
  # For methods that use the localized form of the "resolution of identity" for
  # the two-electron Coulomb operator (RI_method LVL), particularly Hartree-Fock and
  # hybrid density functional calculations, the highest accuracy can be obtained by
  # uncommenting the line beginning with "for_aux"  below, thus adding an extra g radial
  # function to the construction of the product basis set for the expansion.
  # See Ref. New J. Phys. 17, 093020 (2015) for more information, particularly Figs. 1 and 6.
  #
  ################################################################################
  #
  # for_aux hydro 5 g 6.0
  
  -----------------------------------------------------------------------
  Completed first pass over input file control.in .
  -----------------------------------------------------------------------
  
  
  -----------------------------------------------------------------------
  Parsing geometry.in (first pass over file, find array dimensions only).
  The contents of geometry.in will be repeated verbatim below
  unless switched off by setting 'verbatim_writeout .false.' .
  in the first line of geometry.in .
  -----------------------------------------------------------------------
  
  #
  # This is the geometry file that corresponds to the current relaxation step.
  # If you do not want this file to be written, set the "write_restart_geometry" flag to .false.
  #
  atom      -0.29371204     -0.21015176      2.44206431 C
  atom      -0.98053607     -1.37238177      1.75355649 C
  atom      -0.57149419     -2.52869893      1.83677485 O
  atom      -0.95284993      0.26729079      3.18130606 H
  atom       0.00458591      0.56683826      1.72449637 H
  atom       0.59651105     -0.59293612      2.94741105 H
  atom      -2.12058892     -1.08610388      1.03230304 N
  atom      -2.74958011      0.21310296      0.82743290 C
  atom      -3.54478081      0.74329217      2.04690820 C
  atom      -3.85452956      1.92783552      2.11196735 O
  atom      -2.49592383     -1.88649542      0.52951399 H
  atom      -1.97618948      0.97524962      0.65042203 H
  atom      -3.66938977      0.16259590     -0.39523997 C
  atom      -4.15848186      1.13362516     -0.52840762 H
  atom      -4.45226201     -0.59910050     -0.26569803 H
  atom      -3.09734925     -0.07151267     -1.30227813 H
  atom      -3.86674961     -0.19653736      2.98119594 N
  atom      -4.59329549      0.12394907      4.20084539 C
  atom      -3.74032974      0.07867085      5.49085423 C
  atom      -3.83067233      0.99631310      6.30225623 O
  atom      -3.55007389     -1.14305508      2.80039173 H
  atom      -4.85234853      1.18577833      4.10538570 H
  atom      -5.88275368     -0.69376175      4.34973287 C
  atom      -5.69126829     -1.77422420      4.40781547 H
  atom      -6.54251733     -0.50860055      3.49259625 H
  atom      -6.40885580     -0.39431535      5.26481839 H
  atom      -2.91869109     -0.99023563      5.73521290 N
  atom      -2.71912692     -2.22738655      4.99644827 C
  atom      -2.41350253     -0.88666666      6.61026932 H
  atom      -2.40446169     -3.00771984      5.69937515 H
  atom      -1.94417637     -2.15215790      4.21947028 H
  atom      -3.65201383     -2.57935281      4.53845396 H
  
  -----------------------------------------------------------------------
  Completed first pass over input file geometry.in .
  -----------------------------------------------------------------------
  

  Basic array size parameters:
  | Number of species                 :        4
  | Number of atoms                   :       32
  | Max. basis fn. angular momentum   :        4
  | Max. atomic/ionic basis occupied n:        2
  | Max. number of basis fn. types    :        2
  | Max. radial fns per species/type  :        8
  | Max. logarithmic grid size        :     1301
  | Max. radial integration grid size :       73
  | Max. angular integration grid size:      434
  | Max. angular grid division number :        8
  | Radial grid for Hartree potential :     1301
  | Number of spin channels           :        1

------------------------------------------------------------
          Reading file control.in.
------------------------------------------------------------
  XC: Using PBE gradient-corrected functionals.
  Self-consistent screening and van der Waals energy (TS, TS+SCS,MBD) module
  Spin treatment: No spin polarisation.
  Charge =   0.000000E+00: Neutral system requested explicitly.
  Occupation type: Gaussian broadening, width =   0.500000E-01 eV.
  Using pulay charge density mixing.
  Pulay mixing - number of memorized iterations:   10
  Charge density mixing - mixing parameter:     0.5000
  Convergence accuracy of self-consistent charge density:  0.1000E-03
  Convergence accuracy of sum of eigenvalues:  0.1000E-01
  Convergence accuracy of total energy:  0.1000E-04
  Convergence accuracy of forces:  0.1000E-03
  Maximum number of s.-c. iterations  :  1000
  Fitting ESP-charges to Potential. 
  | Esp charge output options: 
  | ESP Grid method: 3, cubic grid
  | Number of points in x, ,y, z:  0080 0080 0080
  |
 
  Reading configuration options for species H                   .
  | Found nuclear charge :   1.0000
  | Found atomic mass :    1.00794000000000      amu
  | Found l_max for Hartree potential  :   6
  | Found cutoff potl. onset [A], width [A], scale factor :    4.00000    2.00000    1.00000
  | Threshold for basis-dependent cutoff potential is   0.100000E-03
  | Found data for basic radial integration grid :    24 points, outermost radius =    7.000 A
  | Found multiplier for basic radial grid :   2
  | Found angular grid specification: user-specified.
  | Specified grid contains     6 separate shells.
  | Check grid settings after all constraints further below.
  | Found free-atom valence shell :  1 s   1.000
  | No ionic wave fns used. Skipping ion_occ.
  | Found hydrogenic basis function :  2 s   2.100
  | Found hydrogenic basis function :  2 p   3.500
  | Found hydrogenic basis function :  1 s   0.850
  | Found hydrogenic basis function :  2 p   3.700
  | Found hydrogenic basis function :  2 s   1.200
  | Found hydrogenic basis function :  3 d   7.000
  Species H                   : Missing cutoff potential type.
  Defaulting to exp(1/x)/(1-x)^2 type cutoff potential.
  Species H : No 'logarithmic' tag. Using default grid for free atom:
  | Default logarithmic grid data [bohr] : 0.1000E-03 0.1000E+03 0.1012E+01
  Species H : On-site basis accuracy parameter (for Gram-Schmidt orthonormalisation) not specified.
  Using default value basis_acc =  0.1000000E-03.
  Species H                   : Using default innermost maximum threshold i_radial=  2 for radial functions.
  Species H                   : Default cutoff onset for free atom density etc. : 0.40000000E+01 AA.
  Species H                   : Basic radial grid will be enhanced according to radial_multiplier =   2, to contain    49 grid points.
 
  Reading configuration options for species C                   .
  | Found nuclear charge :   6.0000
  | Found atomic mass :    12.0107000000000      amu
  | Found l_max for Hartree potential  :   6
  | Found cutoff potl. onset [A], width [A], scale factor :    4.00000    2.00000    1.00000
  | Threshold for basis-dependent cutoff potential is   0.100000E-03
  | Found data for basic radial integration grid :    34 points, outermost radius =    7.000 A
  | Found multiplier for basic radial grid :   2
  | Found angular grid specification: user-specified.
  | Specified grid contains     6 separate shells.
  | Check grid settings after all constraints further below.
  | Found free-atom valence shell :  2 s   2.000
  | Found free-atom valence shell :  2 p   2.000
  | No ionic wave fns used. Skipping ion_occ.
  | No ionic wave fns used. Skipping ion_occ.
  | Found hydrogenic basis function :  2 p   1.700
  | Found hydrogenic basis function :  3 d   6.000
  | Found hydrogenic basis function :  2 s   4.900
  | Found hydrogenic basis function :  4 f   9.800
  | Found hydrogenic basis function :  3 p   5.200
  | Found hydrogenic basis function :  3 s   4.300
  | Found hydrogenic basis function :  5 g  14.400
  | Found hydrogenic basis function :  3 d   6.200
  Species C                   : Missing cutoff potential type.
  Defaulting to exp(1/x)/(1-x)^2 type cutoff potential.
  Species C : No 'logarithmic' tag. Using default grid for free atom:
  | Default logarithmic grid data [bohr] : 0.1000E-03 0.1000E+03 0.1012E+01
  Species C : On-site basis accuracy parameter (for Gram-Schmidt orthonormalisation) not specified.
  Using default value basis_acc =  0.1000000E-03.
  Species C                   : Using default innermost maximum threshold i_radial=  2 for radial functions.
  Species C                   : Default cutoff onset for free atom density etc. : 0.40000000E+01 AA.
  Species C                   : Basic radial grid will be enhanced according to radial_multiplier =   2, to contain    69 grid points.
 
  Reading configuration options for species N                   .
  | Found nuclear charge :   7.0000
  | Found atomic mass :    14.0067000000000      amu
  | Found l_max for Hartree potential  :   6
  | Found cutoff potl. onset [A], width [A], scale factor :    4.00000    2.00000    1.00000
  | Threshold for basis-dependent cutoff potential is   0.100000E-03
  | Found data for basic radial integration grid :    35 points, outermost radius =    7.000 A
  | Found multiplier for basic radial grid :   2
  | Found angular grid specification: user-specified.
  | Specified grid contains     6 separate shells.
  | Check grid settings after all constraints further below.
  | Found free-atom valence shell :  2 s   2.000
  | Found free-atom valence shell :  2 p   3.000
  | No ionic wave fns used. Skipping ion_occ.
  | No ionic wave fns used. Skipping ion_occ.
  | Found hydrogenic basis function :  2 p   1.800
  | Found hydrogenic basis function :  3 d   6.800
  | Found hydrogenic basis function :  3 s   5.800
  | Found hydrogenic basis function :  4 f  10.800
  | Found hydrogenic basis function :  3 p   5.800
  | Found hydrogenic basis function :  1 s   0.800
  | Found hydrogenic basis function :  5 g  16.000
  | Found hydrogenic basis function :  3 d   4.900
  Species N                   : Missing cutoff potential type.
  Defaulting to exp(1/x)/(1-x)^2 type cutoff potential.
  Species N : No 'logarithmic' tag. Using default grid for free atom:
  | Default logarithmic grid data [bohr] : 0.1000E-03 0.1000E+03 0.1012E+01
  Species N : On-site basis accuracy parameter (for Gram-Schmidt orthonormalisation) not specified.
  Using default value basis_acc =  0.1000000E-03.
  Species N                   : Using default innermost maximum threshold i_radial=  2 for radial functions.
  Species N                   : Default cutoff onset for free atom density etc. : 0.40000000E+01 AA.
  Species N                   : Basic radial grid will be enhanced according to radial_multiplier =   2, to contain    71 grid points.
 
  Reading configuration options for species O                   .
  | Found nuclear charge :   8.0000
  | Found atomic mass :    15.9994000000000      amu
  | Found l_max for Hartree potential  :   6
  | Found cutoff potl. onset [A], width [A], scale factor :    4.00000    2.00000    1.00000
  | Threshold for basis-dependent cutoff potential is   0.100000E-03
  | Found data for basic radial integration grid :    36 points, outermost radius =    7.000 A
  | Found multiplier for basic radial grid :   2
  | Found angular grid specification: user-specified.
  | Specified grid contains     6 separate shells.
  | Check grid settings after all constraints further below.
  | Found free-atom valence shell :  2 s   2.000
  | Found free-atom valence shell :  2 p   4.000
  | No ionic wave fns used. Skipping ion_occ.
  | No ionic wave fns used. Skipping ion_occ.
  | Found hydrogenic basis function :  2 p   1.800
  | Found hydrogenic basis function :  3 d   7.600
  | Found hydrogenic basis function :  3 s   6.400
  | Found hydrogenic basis function :  4 f  11.600
  | Found hydrogenic basis function :  3 p   6.200
  | Found hydrogenic basis function :  3 d   5.600
  | Found hydrogenic basis function :  5 g  17.600
  | Found hydrogenic basis function :  1 s   0.750
  Species O                   : Missing cutoff potential type.
  Defaulting to exp(1/x)/(1-x)^2 type cutoff potential.
  Species O : No 'logarithmic' tag. Using default grid for free atom:
  | Default logarithmic grid data [bohr] : 0.1000E-03 0.1000E+03 0.1012E+01
  Species O : On-site basis accuracy parameter (for Gram-Schmidt orthonormalisation) not specified.
  Using default value basis_acc =  0.1000000E-03.
  Species O                   : Using default innermost maximum threshold i_radial=  2 for radial functions.
  Species O                   : Default cutoff onset for free atom density etc. : 0.40000000E+01 AA.
  Species O                   : Basic radial grid will be enhanced according to radial_multiplier =   2, to contain    73 grid points.
 
  Finished reading input file 'control.in'. Consistency checks are next.
 
  Target number of points in a grid batch is not set. Defaulting to  100
  Method for grid partitioning is not set. Defaulting to parallel hash+maxmin partitioning.
  Batch size limit is not set. Defaulting to    200
  By default, will store active basis functions for each batch.
  If in need of memory, prune_basis_once .false. can be used to disable this option.
  communication_type for Hartree potential was not specified.
  Defaulting to calc_hartree .
  Pulay mixer: Number of initial linear mixing iterations not set.
  Defaulting to    0 iterations.
  Work space size for distributed Hartree potential not set.
  Defaulting to   0.200000E+03 MB.
  Algorithm-dependent basis array size parameters:
  | n_max_pulay                         :       10
  Geometry relaxation not requested: no relaxation will be performed.
  Handling of forces: Unphysical translation and rotation will be removed from forces.
  No accuracy limit for integral partition fn. given. Defaulting to  0.1000E-14.
  No threshold value for u(r) in integrations given. Defaulting to  0.1000E-05.
  No accuracy for occupation numbers given. Defaulting to  0.1000E-07.
  No threshold value for occupation numbers given. Defaulting to  0.0000E+00.
  No accuracy for fermi level given. Defaulting to  0.1000E-19.
  Maximum # of iterations to find E_F not set. Defaulting to  200.
  Preferred method for the eigenvalue solver ('KS_method') not specified in 'control.in'.
  Calling blacs routine to test compilation state
  Since scalapack support is enabled, defaulting to 'elpa'.
  Preferred method for the MBD eigenvalue solver ('mbd_eigensolver') not specified in 'control.in'.
  Calling blacs routine to test compilation state
  Since scalapack support is enabled, defaulting to 'scaLAPACK'.
  Will not use alltoall communication since running on < 1024 CPUs.
  Threshold for basis singularities not set.
  Default threshold for basis singularities:  0.1000E-04
  partition_type (choice of integration weights) for integrals was not specified.
  | Using a version of the partition function of Stratmann and coworkers ('stratmann_smoother').
  | At each grid point, the set of atoms used to build the partition table is smoothly restricted to
  | only those atoms whose free-atom density would be non-zero at that grid point.
  Partitioning for Hartree potential was not defined. Using partition_type for integrals.
  | Adjusted default value of keyword multip_moments_threshold to:       0.10000000E-11
  | This value may affect high angular momentum components of the Hartree potential in periodic systems.
  No q(lm)/r^(l+1) cutoff set for long-range Hartree potential.
  | Using default value of  0.100000E-09 .
  | Verify using the multipole_threshold keyword.
  Defaulting to new monopole extrapolation.
  Density update method: automatic selection selected.
------------------------------------------------------------


------------------------------------------------------------
          Reading geometry description geometry.in.
------------------------------------------------------------
 * Warning! You did not set the 'relativistic' flag in input file 'control.in'.
 * Since you are not attempting to treat any elements beyond Ca(Z=20), FHI-aims
 * will default to 'relativistic none'.
 * You must ensure that this is really what you want!!
 * For example, DO NOT compute total-energy differences between results from
 * different settings of the 'relativistic' flag.
  Input structure read successfully.
  The structure contains       32 atoms,  and a total of        116.000 electrons.

  Input geometry:
  | No unit cell requested.
  | Atomic structure:
  |       Atom                x [A]            y [A]            z [A]
  |    1: Species C             -0.293712        -0.210152         2.442064
  |    2: Species C             -0.980536        -1.372382         1.753556
  |    3: Species O             -0.571494        -2.528699         1.836775
  |    4: Species H             -0.952850         0.267291         3.181306
  |    5: Species H              0.004586         0.566838         1.724496
  |    6: Species H              0.596511        -0.592936         2.947411
  |    7: Species N             -2.120589        -1.086104         1.032303
  |    8: Species C             -2.749580         0.213103         0.827433
  |    9: Species C             -3.544781         0.743292         2.046908
  |   10: Species O             -3.854530         1.927836         2.111967
  |   11: Species H             -2.495924        -1.886495         0.529514
  |   12: Species H             -1.976189         0.975250         0.650422
  |   13: Species C             -3.669390         0.162596        -0.395240
  |   14: Species H             -4.158482         1.133625        -0.528408
  |   15: Species H             -4.452262        -0.599101        -0.265698
  |   16: Species H             -3.097349        -0.071513        -1.302278
  |   17: Species N             -3.866750        -0.196537         2.981196
  |   18: Species C             -4.593295         0.123949         4.200845
  |   19: Species C             -3.740330         0.078671         5.490854
  |   20: Species O             -3.830672         0.996313         6.302256
  |   21: Species H             -3.550074        -1.143055         2.800392
  |   22: Species H             -4.852349         1.185778         4.105386
  |   23: Species C             -5.882754        -0.693762         4.349733
  |   24: Species H             -5.691268        -1.774224         4.407815
  |   25: Species H             -6.542517        -0.508601         3.492596
  |   26: Species H             -6.408856        -0.394315         5.264818
  |   27: Species N             -2.918691        -0.990236         5.735213
  |   28: Species C             -2.719127        -2.227387         4.996448
  |   29: Species H             -2.413503        -0.886667         6.610269
  |   30: Species H             -2.404462        -3.007720         5.699375
  |   31: Species H             -1.944176        -2.152158         4.219470
  |   32: Species H             -3.652014        -2.579353         4.538454
  |

  | The smallest distance between any two atoms is         1.01433203 AA.
  |
  | The first atom of this pair is atom number                     17 .
  | The second atom of this pair is atom number                    21 .

  Number of empty states per atom not set in control.in - providing a guess from actual geometry.
  | Total number of empty states used during s.c.f. cycle:       71
  If you use a very high smearing, use empty_states (per atom!) in control.in to increase this value.

  Structure-dependent array size parameters: 
  | Maximum number of distinct radial functions  :       40
  | Maximum number of basis functions            :      840
  | Number of Kohn-Sham states (occupied + empty):      129
------------------------------------------------------------

------------------------------------------------------------
          Preparing all fixed parts of the calculation.
------------------------------------------------------------
  Determining machine precision:
    2.225073858507201E-308
  Setting up grids for atomic and cluster calculations.

  Creating wave function, potential, and density for free atoms.

  Species: H

  List of occupied orbitals and eigenvalues:
    n    l              occ      energy [Ha]    energy [eV]
    1    0           1.0000        -0.238382        -6.4867


  Species: C

  List of occupied orbitals and eigenvalues:
    n    l              occ      energy [Ha]    energy [eV]
    1    0           2.0000       -10.041232      -273.2358
    2    0           2.0000        -0.504327       -13.7234
    2    1           2.0000        -0.193750        -5.2722


  Species: N

  List of occupied orbitals and eigenvalues:
    n    l              occ      energy [Ha]    energy [eV]
    1    0           2.0000       -14.129007      -384.4699
    2    0           2.0000        -0.681802       -18.5528
    2    1           3.0000        -0.260543        -7.0897


  Species: O

  List of occupied orbitals and eigenvalues:
    n    l              occ      energy [Ha]    energy [eV]
    1    0           2.0000       -18.898576      -514.2564
    2    0           2.0000        -0.878795       -23.9132
    2    1           4.0000        -0.332075        -9.0362

  Creating fixed part of basis set: Ionic, confined, hydrogenic.
 
  H                    hydrogenic:
 
  List of hydrogenic basis orbitals: 
    n    l      effective z      eigenvalue [eV]  inner max. [A]     outer max. [A]     outer radius [A]   
    2    0         2.100000       -14.9965           0.193243           1.317208           5.373006
    2    1         3.500000       -41.6672           0.602369           0.602369           4.056063
    1    0         0.850000        -9.8292           0.624871           0.624871           5.373006
    2    1         3.700000       -46.5653           0.573622           0.573622           3.910002
    2    0         1.200000        -4.5995           0.334980           2.228188           5.505995
    3    2         7.000000       -74.0753           0.680699           0.680699           3.769201
 
 
  C                    hydrogenic:
 
  List of hydrogenic basis orbitals: 
    n    l      effective z      eigenvalue [eV]  inner max. [A]     outer max. [A]     outer radius [A]   
    2    1         1.700000        -9.8152           1.245706           1.245706           5.401630
    3    2         6.000000       -54.4226           0.792453           0.792453           4.178599
    2    0         4.900000       -81.6681           0.082559           0.562749           3.353238
    4    3         9.800000       -81.6681           0.863254           0.863254           4.028125
    3    1         5.200000       -40.8774           0.305389           1.215618           4.898362
    3    0         4.300000       -27.9508           0.091041           1.610311           5.401630
    5    4        14.400000      -112.8510           0.917666           0.917666           3.883070
    3    2         6.200000       -58.1113           0.763917           0.763917           4.077671
 
 
  N                    hydrogenic:
 
  List of hydrogenic basis orbitals: 
    n    l      effective z      eigenvalue [eV]  inner max. [A]     outer max. [A]     outer radius [A]   
    2    1         1.800000       -11.0118           1.177451           1.177451           5.427479
    3    2         6.800000       -69.9029           0.704619           0.704619           3.854246
    3    0         5.800000       -50.8549           0.067388           1.191934           4.629968
    4    3        10.800000       -99.1854           0.786571           0.786571           3.761152
    3    1         5.800000       -50.8549           0.274880           1.094176           4.518138
    1    0         0.800000        -8.7059           0.662839           0.662839           5.361532
    5    4        16.000000      -139.3222           0.825990           0.825990           3.625711
    3    2         4.900000       -36.2967           0.968267           0.968267           4.862000
 
 
  O                    hydrogenic:
 
  List of hydrogenic basis orbitals: 
    n    l      effective z      eigenvalue [eV]  inner max. [A]     outer max. [A]     outer radius [A]   
    2    1         1.800000       -11.0118           1.178562           1.178562           5.432602
    3    2         7.600000       -87.3182           0.624125           0.624125           3.541477
    3    0         6.400000       -61.9209           0.061167           1.081902           4.306578
    4    3        11.600000      -114.4238           0.731631           0.731631           3.585037
    3    1         6.200000       -58.1113           0.255680           1.030270           4.306578
    3    2         5.600000       -47.4081           0.847233           0.847233           4.413171
    5    4        17.600000      -168.5799           0.749740           0.749740           3.372465
    1    0         0.750000        -7.6499           0.705284           0.705284           5.366593
 

  Adding cutoff potential to free-atom effective potential.
  Creating atomic-like basis functions for current effective potential.

  Species H                   :

  List of atomic basis orbitals and eigenvalues:
    n    l      energy [Ha]    energy [eV]    outer radius [A]
    1    0        -0.238382        -6.4867       5.373006


  Species C                   :

  List of atomic basis orbitals and eigenvalues:
    n    l      energy [Ha]    energy [eV]    outer radius [A]
    1    0       -10.041232      -273.2358       1.934409
    2    0        -0.504327       -13.7234       5.271162
    2    1        -0.193750        -5.2722       5.401630


  Species N                   :

  List of atomic basis orbitals and eigenvalues:
    n    l      energy [Ha]    energy [eV]    outer radius [A]
    1    0       -14.129007      -384.4699       1.637919
    2    0        -0.681802       -18.5528       5.168461
    2    1        -0.260543        -7.0897       5.361532


  Species O                   :

  List of atomic basis orbitals and eigenvalues:
    n    l      energy [Ha]    energy [eV]    outer radius [A]
    1    0       -18.898576      -514.2564       1.415765
    2    0        -0.878795       -23.9132       5.048385
    2    1        -0.332075        -9.0362       5.301386

  Assembling full basis from fixed parts.
  | Species H :   atomic orbital   1 s accepted.
  | Species H :    hydro orbital   2 s accepted.
  | Species H :    hydro orbital   1 s accepted.
  | Species H :    hydro orbital   2 s accepted.
  | Species H :    hydro orbital   2 p accepted.
  | Species H :    hydro orbital   2 p accepted.
  | Species H :    hydro orbital   3 d accepted.
  | Species C :   atomic orbital   1 s accepted.
  | Species C :    hydro orbital   2 s accepted.
  | Species C :   atomic orbital   2 s accepted.
  | Species C :    hydro orbital   3 s accepted.
  | Species C :    hydro orbital   3 p accepted.
  | Species C :   atomic orbital   2 p accepted.
  | Species C :    hydro orbital   2 p accepted.
  | Species C :    hydro orbital   3 d accepted.
  | Species C :    hydro orbital   3 d accepted.
  | Species C :    hydro orbital   4 f accepted.
  | Species C :    hydro orbital   5 g accepted.
  | Species N :   atomic orbital   1 s accepted.
  | Species N :    hydro orbital   3 s accepted.
  | Species N :   atomic orbital   2 s accepted.
  | Species N :    hydro orbital   1 s accepted.
  | Species N :    hydro orbital   3 p accepted.
  | Species N :   atomic orbital   2 p accepted.
  | Species N :    hydro orbital   2 p accepted.
  | Species N :    hydro orbital   3 d accepted.
  | Species N :    hydro orbital   3 d accepted.
  | Species N :    hydro orbital   4 f accepted.
  | Species N :    hydro orbital   5 g accepted.
  | Species O :   atomic orbital   1 s accepted.
  | Species O :    hydro orbital   3 s accepted.
  | Species O :   atomic orbital   2 s accepted.
  | Species O :    hydro orbital   1 s accepted.
  | Species O :    hydro orbital   3 p accepted.
  | Species O :   atomic orbital   2 p accepted.
  | Species O :    hydro orbital   2 p accepted.
  | Species O :    hydro orbital   3 d accepted.
  | Species O :    hydro orbital   3 d accepted.
  | Species O :    hydro orbital   4 f accepted.
  | Species O :    hydro orbital   5 g accepted.
 
  Basis size parameters after reduction:
  | Total number of radial functions:       40
  | Total number of basis functions :      840
 
  Testing on-site integration grid accuracy.
  |  Species  Function  <phi|h_atom|phi> (log., in eV)  <phi|h_atom|phi> (rad., in eV)
           1        1                 -6.4869821809                 -6.4870742227
           1        2                 13.5044133542                 13.5041049177
           1        3                 32.7854418792                 32.7779770519
           1        4                 33.7995553101                 33.7152624900 ***
           1        5                 28.8558651799                 28.8558652046
           1        6                 59.6361831893                 59.6362535845
           1        7                 60.2733718049                 60.2733715484
           2        8               -273.2358277112               -273.2358261765
           2        9                -10.7624923123                -10.7625144012
           2       10                 17.4634079027                 17.4634252127
           2       11                 53.0363661832                 53.0366180446
           2       12                 15.0981351967                 15.0981317714
           2       13                  3.8522181899                  3.8522770949
           2       14                 12.1181835661                 12.1206868578
           2       15                 29.4320778347                 29.4320780959
           2       16                 54.8753777694                 54.8752901936
           2       17                 59.3533975461                 59.3533974833
           2       18                 93.4537491195                 93.4537492066
           3       19               -384.4698526889               -384.4698499465
           3       20                 12.5691022037                 12.5690910168
           3       21                -15.7489097511                -15.7489165588
           3       22                 27.0978334940                 27.0985589490
           3       23                 18.5949116966                 18.5949125562
           3       24                  1.2212828291                  1.2212855301
           3       25                 13.4428926797                 13.4434051125
           3       26                 35.9380614500                 35.9380613666
           3       27                 39.9231532098                 39.9231654735
           3       28                 72.9957335806                 72.9957336833
           3       29                116.4231321147                116.4231321431
           4       30               -514.2564144315               -514.2564099626
           4       31                 15.1726678541                 15.1726530877
           4       32                -21.5447785304                -21.5447874973
           4       33                 14.4944558459                 14.4944698284
           4       34                 20.8882174564                 20.8882178906
           4       35                 -2.4850315908                 -2.4850322289
           4       36                 13.8600193195                 13.8599826966
           4       37                 45.8243383616                 45.8243383675
           4       38                 52.1840606465                 52.1840622440
           4       39                 85.4074185510                 85.4074185819
           4       40                142.0983717302                142.0983717339
 * Note: Onsite integrals marked "***" above are less accurate than
 * onsite_accuracy_threshold =    0.03000 eV. Usually, this is harmless.
 * When in doubt, tighten the "radial" and/or "radial_multiplier" flags to check.

  Preparing densities etc. for the partition functions (integrals / Hartree potential).

  Preparations completed.
  max(cpu_time)          :      0.236 s.
  Wall clock time (cpu1) :      0.237 s.
------------------------------------------------------------

------------------------------------------------------------
          Begin self-consistency loop: Initialization.

          Date     :  20170309, Time     :  190626.638
------------------------------------------------------------

  Initializing index lists of integration centers etc. from given atomic structure:
  | Number of centers in hartree potential         :        32
  | Number of centers in hartree multipole         :        32
  | Number of centers in electron density summation:        32
  | Number of centers in basis integrals           :        32
  | Number of centers in integrals                 :        32
  | Number of centers in hamiltonian               :        32
  Using modified Scalapack Eigenvalue solver (ELPA)
  * Using 32 tasks for Scalapack Eigenvalue solver.
  Detailed listing of tasks and assigned k-points:
  (for non-periodic systems, the "k-point" denotes an internal label only)
   Task     0 k-point     1 on eos366
   Task     1 k-point     1 on eos366
   Task     2 k-point     1 on eos366
   Task     3 k-point     1 on eos366
   Task     4 k-point     1 on eos366
   Task     5 k-point     1 on eos366
   Task     6 k-point     1 on eos366
   Task     7 k-point     1 on eos366
   Task     8 k-point     1 on eos366
   Task     9 k-point     1 on eos366
   Task    10 k-point     1 on eos366
   Task    11 k-point     1 on eos366
   Task    12 k-point     1 on eos366
   Task    13 k-point     1 on eos366
   Task    14 k-point     1 on eos366
   Task    15 k-point     1 on eos366
   Task    16 k-point     1 on eos366
   Task    17 k-point     1 on eos366
   Task    18 k-point     1 on eos366
   Task    19 k-point     1 on eos366
   Task    20 k-point     1 on eos366
   Task    21 k-point     1 on eos366
   Task    22 k-point     1 on eos366
   Task    23 k-point     1 on eos366
   Task    24 k-point     1 on eos366
   Task    25 k-point     1 on eos366
   Task    26 k-point     1 on eos366
   Task    27 k-point     1 on eos366
   Task    28 k-point     1 on eos366
   Task    29 k-point     1 on eos366
   Task    30 k-point     1 on eos366
   Task    31 k-point     1 on eos366
  Tasks:    32 split into      8 X      4 BLACS grid
  Calculating blocksize based on n_basis =          840 max_nprow =            8 max_npcol =            4
  Scalapack blocksize set to:           16
  Required Scalapack workspace - INTEGER:            1 REAL:             1
  Partitioning the integration grid into batches with parallel hashing+maxmin method.
  | Number of batches:     4832
  | Maximal batch size:     196
  | Minimal batch size:      48
  | Average batch size:     109.215
  | Standard deviation of batch sizes:      32.459

  Integration load balanced across    32 MPI tasks.
  Work distribution over tasks is as follows:
  Task     0 has      16455 integration points.
  Task     1 has      16496 integration points.
  Task     2 has      16459 integration points.
  Task     3 has      16553 integration points.
  Task     4 has      16445 integration points.
  Task     5 has      16603 integration points.
  Task     6 has      16467 integration points.
  Task     7 has      16535 integration points.
  Task     8 has      16559 integration points.
  Task     9 has      16474 integration points.
  Task    10 has      16453 integration points.
  Task    11 has      16508 integration points.
  Task    12 has      16502 integration points.
  Task    13 has      16465 integration points.
  Task    14 has      16459 integration points.
  Task    15 has      16527 integration points.
  Task    16 has      16519 integration points.
  Task    17 has      16454 integration points.
  Task    18 has      16474 integration points.
  Task    19 has      16497 integration points.
  Task    20 has      16443 integration points.
  Task    21 has      16527 integration points.
  Task    22 has      16464 integration points.
  Task    23 has      16501 integration points.
  Task    24 has      16456 integration points.
  Task    25 has      16460 integration points.
  Task    26 has      16510 integration points.
  Task    27 has      16470 integration points.
  Task    28 has      16534 integration points.
  Task    29 has      16446 integration points.
  Task    30 has      16512 integration points.
  Task    31 has      16501 integration points.
  Initializing partition tables, free-atom densities, potentials, etc. across the integration grid (initialize_grid_storage).
  | initialize_grid_storage: Actual outermost partition radius vs. multipole_radius_free
  | (-- VB: in principle, multipole_radius_free should be larger, hence this output)
  | Species        1: Confinement radius =              6.000000000000000 AA, multipole_radius_free =              6.071692442739658 AA.
  | Species        1: outer_partition_radius set to              6.071692442739658 AA .
  | Species        2: Confinement radius =              6.000000000000000 AA, multipole_radius_free =              6.029870734432609 AA.
  | Species        2: outer_partition_radius set to              6.029870734432609 AA .
  | Species        3: Confinement radius =              6.000000000000000 AA, multipole_radius_free =              6.058726835495003 AA.
  | Species        3: outer_partition_radius set to              6.058726835495003 AA .
  | Species        4: Confinement radius =              6.000000000000000 AA, multipole_radius_free =              6.064445521808699 AA.
  | Species        4: outer_partition_radius set to              6.064445521808699 AA .
  | Original list of interatomic distances with          32 x         32 entries is created.
  | Net number of integration points:   527728
  | of which are non-zero points    :   412970
  Obtaining max. number of non-zero basis functions in each batch (get_n_compute_maxes).
  | Maximal number of non-zero basis functions:      794 in task     0
  | Maximal number of non-zero basis functions:      824 in task     1
  | Maximal number of non-zero basis functions:      807 in task     2
  | Maximal number of non-zero basis functions:      824 in task     3
  | Maximal number of non-zero basis functions:      809 in task     4
  | Maximal number of non-zero basis functions:      816 in task     5
  | Maximal number of non-zero basis functions:      798 in task     6
  | Maximal number of non-zero basis functions:      800 in task     7
  | Maximal number of non-zero basis functions:      812 in task     8
  | Maximal number of non-zero basis functions:      802 in task     9
  | Maximal number of non-zero basis functions:      798 in task    10
  | Maximal number of non-zero basis functions:      824 in task    11
  | Maximal number of non-zero basis functions:      821 in task    12
  | Maximal number of non-zero basis functions:      796 in task    13
  | Maximal number of non-zero basis functions:      796 in task    14
  | Maximal number of non-zero basis functions:      814 in task    15
  | Maximal number of non-zero basis functions:      811 in task    16
  | Maximal number of non-zero basis functions:      797 in task    17
  | Maximal number of non-zero basis functions:      815 in task    18
  | Maximal number of non-zero basis functions:      805 in task    19
  | Maximal number of non-zero basis functions:      799 in task    20
  | Maximal number of non-zero basis functions:      805 in task    21
  | Maximal number of non-zero basis functions:      794 in task    22
  | Maximal number of non-zero basis functions:      806 in task    23
  | Maximal number of non-zero basis functions:      812 in task    24
  | Maximal number of non-zero basis functions:      812 in task    25
  | Maximal number of non-zero basis functions:      810 in task    26
  | Maximal number of non-zero basis functions:      809 in task    27
  | Maximal number of non-zero basis functions:      792 in task    28
  | Maximal number of non-zero basis functions:      815 in task    29
  | Maximal number of non-zero basis functions:      812 in task    30
  | Maximal number of non-zero basis functions:      810 in task    31
  Selecting the method for density update.
  Loop over occupied states selected for charge density update.
  Integrating Hamiltonian matrix: batch-based integration.
  Time summed over all CPUs for integration: real work       23.117 s, elapsed       24.077 s
  Integrating overlap matrix.
  Time summed over all CPUs for integration: real work       14.042 s, elapsed       14.551 s
  Deallocating overlap matrix.

  Updating Kohn-Sham eigenvalues, eigenvectors, occupation numbers, and Fermi level.
  Solving generalized eigenproblem
  Solving real symmetric generalised eigenvalue problem by standard ScaLAPACK.
  Transforming overlap matrix with ScaLAPACK and checking for singularities.
  : Overlap matrix is nonsingular, using Cholesky decomposition
  | Lowest eigenvalue:  0.755843E-04
  Factoring overlap matrix with Cholesky decomposition
  Using Cholesky factor for transformation
  Using 1-stage real ELPA solver
  Determining occupation numbers for Kohn-Sham eigenstates.
  | Chemical potential (Fermi level) in eV                 : -.95818332E+01
  | Error in electron count due to remaining E_F inaccuracy: 0.00000000E+00
  | Maximum occupation number of highest empty state:  0.00E+00

  Writing Kohn-Sham eigenvalues.

  State    Occupation    Eigenvalue [Ha]    Eigenvalue [eV]
      1       2.00000         -18.975047         -516.33729
      2       2.00000         -18.974258         -516.31584
      3       2.00000         -18.973831         -516.30420
      4       2.00000         -14.255740         -387.91843
      5       2.00000         -14.253752         -387.86434
      6       2.00000         -14.252811         -387.83872
      7       2.00000         -10.171205         -276.77257
      8       2.00000         -10.171067         -276.76882
      9       2.00000         -10.170457         -276.75221
     10       2.00000         -10.166587         -276.64690
     11       2.00000         -10.148577         -276.15682
     12       2.00000         -10.148428         -276.15277
     13       2.00000         -10.135410         -275.79852
     14       2.00000         -10.134826         -275.78263
     15       2.00000         -10.133463         -275.74555
     16       2.00000          -1.134362          -30.86755
     17       2.00000          -1.131490          -30.78940
     18       2.00000          -1.129996          -30.74876
     19       2.00000          -1.024434          -27.87628
     20       2.00000          -1.010020          -27.48406
     21       2.00000          -1.001834          -27.26130
     22       2.00000          -0.886437          -24.12119
     23       2.00000          -0.873801          -23.77734
     24       2.00000          -0.846469          -23.03358
     25       2.00000          -0.817053          -22.23314
     26       2.00000          -0.780083          -21.22714
     27       2.00000          -0.753321          -20.49891
     28       2.00000          -0.698083          -18.99582
     29       2.00000          -0.693373          -18.86765
     30       2.00000          -0.684010          -18.61286
     31       2.00000          -0.638918          -17.38586
     32       2.00000          -0.628291          -17.09668
     33       2.00000          -0.614597          -16.72403
     34       2.00000          -0.602964          -16.40749
     35       2.00000          -0.589350          -16.03703
     36       2.00000          -0.575927          -15.67178
     37       2.00000          -0.570120          -15.51376
     38       2.00000          -0.560967          -15.26470
     39       2.00000          -0.555737          -15.12237
     40       2.00000          -0.550476          -14.97923
     41       2.00000          -0.544301          -14.81118
     42       2.00000          -0.542987          -14.77544
     43       2.00000          -0.538803          -14.66158
     44       2.00000          -0.527251          -14.34723
     45       2.00000          -0.522353          -14.21394
     46       2.00000          -0.517747          -14.08863
     47       2.00000          -0.517004          -14.06840
     48       2.00000          -0.499486          -13.59171
     49       2.00000          -0.490132          -13.33717
     50       2.00000          -0.484548          -13.18523
     51       2.00000          -0.481252          -13.09554
     52       2.00000          -0.474536          -12.91277
     53       2.00000          -0.417875          -11.37096
     54       2.00000          -0.414235          -11.27191
     55       2.00000          -0.401902          -10.93631
     56       2.00000          -0.383367          -10.43196
     57       2.00000          -0.380237          -10.34678
     58       2.00000          -0.375404          -10.21527
     59       0.00000          -0.167563           -4.55963
     60       0.00000          -0.159405           -4.33763
     61       0.00000          -0.154902           -4.21510
     62       0.00000          -0.084441           -2.29777
     63       0.00000          -0.062933           -1.71250
     64       0.00000          -0.058930           -1.60355
     65       0.00000          -0.052254           -1.42190
     66       0.00000          -0.044964           -1.22355
     67       0.00000          -0.042005           -1.14302
     68       0.00000          -0.032928           -0.89603
     69       0.00000          -0.030395           -0.82708
     70       0.00000          -0.023537           -0.64048
     71       0.00000          -0.022492           -0.61203
     72       0.00000          -0.016200           -0.44082
     73       0.00000          -0.013536           -0.36833
     74       0.00000          -0.008553           -0.23274
     75       0.00000          -0.003615           -0.09837
     76       0.00000          -0.002900           -0.07890
     77       0.00000          -0.001263           -0.03438
     78       0.00000           0.004978            0.13545
     79       0.00000           0.009332            0.25394
     80       0.00000           0.010112            0.27517
     81       0.00000           0.021141            0.57528
     82       0.00000           0.025123            0.68364
     83       0.00000           0.038372            1.04415
     84       0.00000           0.040415            1.09973
     85       0.00000           0.044467            1.21001
     86       0.00000           0.051314            1.39631
     87       0.00000           0.056725            1.54357
     88       0.00000           0.063937            1.73980
     89       0.00000           0.071268            1.93929
     90       0.00000           0.073638            2.00380
     91       0.00000           0.081243            2.21073
     92       0.00000           0.084634            2.30300
     93       0.00000           0.085792            2.33453
     94       0.00000           0.094509            2.57172
     95       0.00000           0.100555            2.73624
     96       0.00000           0.105945            2.88290
     97       0.00000           0.106523            2.89864
     98       0.00000           0.113804            3.09676
     99       0.00000           0.117832            3.20637
    100       0.00000           0.125887            3.42556
    101       0.00000           0.128790            3.50456
    102       0.00000           0.133178            3.62397
    103       0.00000           0.138184            3.76017
    104       0.00000           0.144767            3.93932
    105       0.00000           0.146626            3.98990
    106       0.00000           0.157612            4.28884
    107       0.00000           0.159351            4.33616
    108       0.00000           0.163401            4.44637
    109       0.00000           0.165463            4.50248
    110       0.00000           0.171236            4.65956
    111       0.00000           0.173376            4.71780
    112       0.00000           0.182234            4.95883
    113       0.00000           0.187867            5.11213
    114       0.00000           0.192986            5.25140
    115       0.00000           0.195867            5.32980
    116       0.00000           0.197080            5.36281
    117       0.00000           0.204620            5.56799
    118       0.00000           0.206608            5.62210
    119       0.00000           0.217595            5.92106
    120       0.00000           0.226241            6.15632
    121       0.00000           0.229200            6.23686
    122       0.00000           0.235844            6.41765
    123       0.00000           0.238820            6.49861
    124       0.00000           0.239801            6.52531
    125       0.00000           0.244803            6.66144
    126       0.00000           0.248419            6.75984
    127       0.00000           0.257978            7.01994
    128       0.00000           0.262944            7.15508
    129       0.00000           0.268417            7.30401

  Highest occupied state (VBM) at    -10.21526640 eV
  | Occupation number:      2.00000000

  Lowest unoccupied state (CBM) at    -4.55963165 eV
  | Occupation number:      0.00000000

  Overall HOMO-LUMO gap:      5.65563475 eV.
  Calculating total energy contributions from superposition of free atom densities.

  Total energy components:
  | Sum of eigenvalues            :        -437.86199072 Ha      -11914.83098729 eV
  | XC energy correction          :         -98.82139036 Ha       -2689.06684981 eV
  | XC potential correction       :         127.02353277 Ha        3456.48619084 eV
  | Free-atom electrostatic energy:        -333.62026729 Ha       -9078.26937032 eV
  | Hartree energy correction     :           0.00000000 Ha           0.00000000 eV
  | MBD@rsSCS energy              :           0.00000000 Ha           0.00000000 eV
  | Entropy correction            :          -0.00000000 Ha          -0.00000000 eV
  | ---------------------------
  | Total energy                  :        -743.28011559 Ha      -20225.68101657 eV
  | Total energy, T -> 0          :        -743.28011559 Ha      -20225.68101657 eV  <-- do not rely on this value for anything but (periodic) metals
  | Electronic free energy        :        -743.28011559 Ha      -20225.68101657 eV

  Derived energy quantities:
  | Kinetic energy                :         735.16443960 Ha       20004.84223679 eV
  | Electrostatic energy          :       -1379.62316484 Ha      -37541.45640355 eV
  | Energy correction for multipole
  | error in Hartree potential    :           0.00000000 Ha           0.00000000 eV
  | Sum of eigenvalues per atom                           :        -372.33846835 eV
  | Total energy (T->0) per atom                          :        -632.05253177 eV  <-- do not rely on this value for anything but (periodic) metals
  | Electronic free energy per atom                       :        -632.05253177 eV
  Initialize hartree_potential_storage
  Max. number of atoms included in rho_multipole:           32

  End scf initialization - timings             :  max(cpu_time)    wall_clock(cpu1)
  | Time for scf. initialization               :        1.968 s           1.966 s
  | Boundary condition initialization          :        0.000 s           0.000 s
  | Integration                                :        1.232 s           1.228 s
  | Solution of K.-S. eqns.                    :        0.076 s           0.075 s
  | Grid partitioning                          :        0.292 s           0.287 s
  | Preloading free-atom quantities on grid    :        0.028 s           0.027 s
  | Free-atom superposition energy             :        0.044 s           0.041 s
  | Total energy evaluation                    :        0.000 s           0.001 s
------------------------------------------------------------

------------------------------------------------------------
          Begin self-consistency iteration #    1

  Date     :  20170309, Time     :  190628.605
------------------------------------------------------------
  Evaluating new KS density.
  Integration grid: deviation in total charge (<rho> - N_e) =   4.263256E-14
  Pulay mixing of updated and previous charge densities.

  Evaluating partitioned Hartree potential by multipole expansion.
  | Analytical far-field extrapolation by fixed multipoles:
  | Hartree multipole sum: apparent total charge =  -0.999221E-04
  Summing up the Hartree potential.
  Time summed over all CPUs for potential: real work        9.652 s, elapsed        9.930 s
  | RMS charge density error from multipole expansion :   0.107157E-01

  Integrating Hamiltonian matrix: batch-based integration.
  Time summed over all CPUs for integration: real work       22.850 s, elapsed       23.791 s

  Updating Kohn-Sham eigenvalues, eigenvectors, occupation numbers, and Fermi level.
  Solving generalized eigenproblem
  Solving real symmetric generalised eigenvalue problem by standard ScaLAPACK.
  Using Cholesky factor for transformation
  Using 2-stage real ELPA solver
  K-Point:    1, Trafo times: 1-stage=     0.021 s, 2-stage=     0.019 s ==> Using 2-stage solver
  Determining occupation numbers for Kohn-Sham eigenstates.
  | Chemical potential (Fermi level) in eV                 : -.20353474E+01
  | Error in electron count due to remaining E_F inaccuracy: 0.00000000E+00
  | Maximum occupation number of highest empty state:  0.00E+00

  Writing Kohn-Sham eigenvalues.

  State    Occupation    Eigenvalue [Ha]    Eigenvalue [eV]
      1       2.00000         -18.623631         -506.77478
      2       2.00000         -18.620158         -506.68028
      3       2.00000         -18.607856         -506.34553
      4       2.00000         -14.006184         -381.12765
      5       2.00000         -14.003620         -381.05788
      6       2.00000         -13.988162         -380.63725
      7       2.00000         -10.065856         -273.90589
      8       2.00000         -10.058897         -273.71652
      9       2.00000         -10.051808         -273.52360
     10       2.00000          -9.975719         -271.45312
     11       2.00000          -9.957976         -270.97030
     12       2.00000          -9.905148         -269.53280
     13       2.00000          -9.854949         -268.16682
     14       2.00000          -9.849976         -268.03148
     15       2.00000          -9.841311         -267.79569
     16       2.00000          -0.973420          -26.48811
     17       2.00000          -0.965454          -26.27133
     18       2.00000          -0.956164          -26.01854
     19       2.00000          -0.884019          -24.05538
     20       2.00000          -0.870203          -23.67942
     21       2.00000          -0.855672          -23.28403
     22       2.00000          -0.745873          -20.29625
     23       2.00000          -0.725091          -19.73074
     24       2.00000          -0.704531          -19.17127
     25       2.00000          -0.680559          -18.51896
     26       2.00000          -0.640383          -17.42571
     27       2.00000          -0.620347          -16.88051
     28       2.00000          -0.575131          -15.65012
     29       2.00000          -0.574469          -15.63211
     30       2.00000          -0.563526          -15.33431
     31       2.00000          -0.513951          -13.98533
     32       2.00000          -0.496970          -13.52324
     33       2.00000          -0.474873          -12.92195
     34       2.00000          -0.466276          -12.68801
     35       2.00000          -0.453201          -12.33222
     36       2.00000          -0.447217          -12.16940
     37       2.00000          -0.436146          -11.86812
     38       2.00000          -0.428005          -11.64660
     39       2.00000          -0.410870          -11.18033
     40       2.00000          -0.407000          -11.07504
     41       2.00000          -0.401664          -10.92983
     42       2.00000          -0.396074          -10.77771
     43       2.00000          -0.390455          -10.62482
     44       2.00000          -0.387159          -10.53513
     45       2.00000          -0.378409          -10.29703
     46       2.00000          -0.371900          -10.11992
     47       2.00000          -0.364779           -9.92613
     48       2.00000          -0.359046           -9.77013
     49       2.00000          -0.353882           -9.62962
     50       2.00000          -0.353272           -9.61303
     51       2.00000          -0.342147           -9.31030
     52       2.00000          -0.335373           -9.12597
     53       2.00000          -0.256980           -6.99278
     54       2.00000          -0.249678           -6.79409
     55       2.00000          -0.228267           -6.21145
     56       2.00000          -0.220529           -6.00089
     57       2.00000          -0.213006           -5.79618
     58       2.00000          -0.202850           -5.51983
     59       0.00000          -0.057349           -1.56054
     60       0.00000          -0.054350           -1.47894
     61       0.00000          -0.041355           -1.12534
     62       0.00000          -0.040379           -1.09876
     63       0.00000          -0.024535           -0.66763
     64       0.00000          -0.016524           -0.44964
     65       0.00000          -0.006015           -0.16369
     66       0.00000          -0.005570           -0.15156
     67       0.00000           0.008911            0.24248
     68       0.00000           0.017921            0.48766
     69       0.00000           0.022812            0.62075
     70       0.00000           0.027448            0.74689
     71       0.00000           0.033840            0.92085
     72       0.00000           0.040349            1.09794
     73       0.00000           0.041351            1.12523
     74       0.00000           0.047192            1.28415
     75       0.00000           0.050167            1.36510
     76       0.00000           0.056048            1.52515
     77       0.00000           0.057031            1.55188
     78       0.00000           0.063973            1.74080
     79       0.00000           0.072796            1.98087
     80       0.00000           0.079413            2.16095
     81       0.00000           0.087346            2.37681
     82       0.00000           0.093576            2.54633
     83       0.00000           0.095686            2.60376
     84       0.00000           0.099111            2.69694
     85       0.00000           0.108004            2.93893
     86       0.00000           0.111848            3.04355
     87       0.00000           0.122374            3.32996
     88       0.00000           0.124247            3.38094
     89       0.00000           0.128920            3.50809
     90       0.00000           0.135117            3.67671
     91       0.00000           0.138195            3.76048
     92       0.00000           0.144071            3.92036
     93       0.00000           0.153436            4.17521
     94       0.00000           0.156438            4.25690
     95       0.00000           0.162377            4.41851
     96       0.00000           0.168897            4.59591
     97       0.00000           0.170465            4.63858
     98       0.00000           0.175561            4.77725
     99       0.00000           0.183002            4.97973
    100       0.00000           0.186150            5.06540
    101       0.00000           0.189789            5.16441
    102       0.00000           0.197248            5.36738
    103       0.00000           0.198874            5.41163
    104       0.00000           0.202061            5.49835
    105       0.00000           0.207176            5.63753
    106       0.00000           0.210172            5.71907
    107       0.00000           0.213073            5.79802
    108       0.00000           0.215751            5.87089
    109       0.00000           0.222816            6.06313
    110       0.00000           0.230512            6.27256
    111       0.00000           0.238038            6.47736
    112       0.00000           0.242853            6.60837
    113       0.00000           0.247658            6.73911
    114       0.00000           0.250426            6.81444
    115       0.00000           0.258517            7.03460
    116       0.00000           0.260687            7.09365
    117       0.00000           0.264759            7.20446
    118       0.00000           0.273144            7.43262
    119       0.00000           0.280064            7.62093
    120       0.00000           0.283435            7.71266
    121       0.00000           0.290791            7.91282
    122       0.00000           0.295842            8.05027
    123       0.00000           0.299926            8.16141
    124       0.00000           0.301741            8.21078
    125       0.00000           0.305087            8.30185
    126       0.00000           0.311984            8.48951
    127       0.00000           0.326403            8.88187
    128       0.00000           0.329244            8.95918
    129       0.00000           0.335171            9.12046

  Highest occupied state (VBM) at     -5.51982790 eV
  | Occupation number:      2.00000000

  Lowest unoccupied state (CBM) at    -1.56054305 eV
  | Occupation number:      0.00000000

  Overall HOMO-LUMO gap:      3.95928485 eV.

  Total energy components:
  | Sum of eigenvalues            :        -418.17214182 Ha      -11379.04293816 eV
  | XC energy correction          :        -100.75133579 Ha       -2741.58333716 eV
  | XC potential correction       :         129.52597749 Ha        3524.58117617 eV
  | Free-atom electrostatic energy:        -333.62026729 Ha       -9078.26937032 eV
  | Hartree energy correction     :         -19.69620275 Ha        -535.96094622 eV
  | MBD@rsSCS energy              :           0.00000000 Ha           0.00000000 eV
  | Entropy correction            :          -0.00000000 Ha          -0.00000000 eV
  | ---------------------------
  | Total energy                  :        -742.71397017 Ha      -20210.27541568 eV
  | Total energy, T -> 0          :        -742.71397017 Ha      -20210.27541568 eV  <-- do not rely on this value for anything but (periodic) metals
  | Electronic free energy        :        -742.71397017 Ha      -20210.27541568 eV

  Derived energy quantities:
  | Kinetic energy                :         744.03154951 Ha       20246.12857395 eV
  | Electrostatic energy          :       -1385.99418389 Ha      -37714.82065248 eV
  | Energy correction for multipole
  | error in Hartree potential    :          -0.04111262 Ha          -1.11873137 eV
  | Sum of eigenvalues per atom                           :        -355.59509182 eV
  | Total energy (T->0) per atom                          :        -631.57110674 eV  <-- do not rely on this value for anything but (periodic) metals
  | Electronic free energy per atom                       :        -631.57110674 eV

  Self-consistency convergence accuracy:
  | Change of charge density      :  0.9032E+00
  | Change of sum of eigenvalues  :  0.5358E+03 eV
  | Change of total energy        :  0.1541E+02 eV

  End self-consistency iteration #     1       :  max(cpu_time)    wall_clock(cpu1)
  | Time for this iteration                    :        1.628 s           1.623 s
[...]
   Multipole                     :  0.825715E-02 -0.415254E+00 -0.349692E+00
   Pulay + GGA                   :  0.138693E+01 -0.102258E+02 -0.809375E+01
   MBD@rsSCS                     : -0.434098E-02 -0.100042E-01 -0.169587E-01
   ----------------------------------------------------------------
   Total forces(  20)            : -0.784405E-02  0.186065E-02  0.192418E-03
  atom #   21
   Hellmann-Feynman              :  0.131593E-01  0.419571E-01 -0.257025E-01
   Ionic forces                  :  0.000000E+00  0.000000E+00  0.000000E+00
   Multipole                     : -0.343324E-01 -0.409098E-02  0.537854E-01
   Pulay + GGA                   :  0.192096E-01 -0.484614E-01 -0.937778E-02
   MBD@rsSCS                     :  0.835130E-02 -0.409043E-02  0.570078E-02
   ----------------------------------------------------------------
   Total forces(  21)            :  0.638785E-02 -0.146857E-01  0.244058E-01
  atom #   22
   Hellmann-Feynman              :  0.287504E-01 -0.301917E-01  0.766923E-02
   Ionic forces                  :  0.000000E+00  0.000000E+00  0.000000E+00
   Multipole                     : -0.147033E-01 -0.149180E-01  0.636744E-02
   Pulay + GGA                   : -0.246649E-01  0.493546E-01 -0.122832E-01
   MBD@rsSCS                     :  0.114920E-02 -0.577627E-02 -0.163127E-02
   ----------------------------------------------------------------
   Total forces(  22)            : -0.946864E-02 -0.153140E-02  0.122161E-03
  atom #   23
   Hellmann-Feynman              : -0.947190E+00 -0.339184E+00  0.549195E-01
   Ionic forces                  :  0.000000E+00  0.000000E+00  0.000000E+00
   Multipole                     :  0.224257E+00  0.232200E+00 -0.364932E-01
   Pulay + GGA                   :  0.724558E+00  0.103593E+00 -0.120318E-01
   MBD@rsSCS                     :  0.207768E-01 -0.172731E-02 -0.380247E-02
   ----------------------------------------------------------------
   Total forces(  23)            :  0.224019E-01 -0.511820E-02  0.259205E-02
  atom #   24
   Hellmann-Feynman              : -0.418754E-02  0.443483E-01  0.652514E-02
   Ionic forces                  :  0.000000E+00  0.000000E+00  0.000000E+00
   Multipole                     : -0.143920E-01  0.204282E-01 -0.282948E-02
   Pulay + GGA                   :  0.238884E-01 -0.625409E-01 -0.576729E-02
   MBD@rsSCS                     :  0.175168E-01  0.185113E-02 -0.754181E-03
   ----------------------------------------------------------------
   Total forces(  24)            :  0.228256E-01  0.408675E-02 -0.282581E-02
  atom #   25
   Hellmann-Feynman              :  0.444007E-01  0.299961E-01  0.234313E-01
   Ionic forces                  :  0.000000E+00  0.000000E+00  0.000000E+00
   Multipole                     : -0.652771E-02 -0.278250E-01  0.249428E-01
   Pulay + GGA                   : -0.421973E-01 -0.139523E-03 -0.483951E-01
   MBD@rsSCS                     :  0.106753E-01  0.457839E-02 -0.374172E-02
   ----------------------------------------------------------------
   Total forces(  25)            :  0.635101E-02  0.660995E-02 -0.376265E-02
  atom #   26
   Hellmann-Feynman              :  0.461581E-01  0.281879E-01 -0.272584E-01
   Ionic forces                  :  0.000000E+00  0.000000E+00  0.000000E+00
   Multipole                     : -0.110059E-01 -0.285979E-01 -0.193514E-01
   Pulay + GGA                   : -0.371010E-01  0.514367E-02  0.477768E-01
   MBD@rsSCS                     :  0.100135E-01  0.363202E-02  0.270058E-03
   ----------------------------------------------------------------
   Total forces(  26)            :  0.806477E-02  0.836566E-02  0.143710E-02
  atom #   27
   Hellmann-Feynman              : -0.296899E-01  0.144077E+01  0.679527E+00
   Ionic forces                  :  0.000000E+00  0.000000E+00  0.000000E+00
   Multipole                     : -0.108462E+00  0.913498E-01  0.670546E-01
   Pulay + GGA                   :  0.132528E+00 -0.153773E+01 -0.745141E+00
   MBD@rsSCS                     : -0.112313E-01  0.636407E-02 -0.259974E-01
   ----------------------------------------------------------------
   Total forces(  27)            : -0.168550E-01  0.761858E-03 -0.245575E-01
  atom #   28
   Hellmann-Feynman              :  0.553351E+00 -0.189374E+01 -0.861955E+00
   Ionic forces                  :  0.000000E+00  0.000000E+00  0.000000E+00
   Multipole                     : -0.672519E-01  0.118655E+00  0.746377E-01
   Pulay + GGA                   : -0.503438E+00  0.177503E+01  0.801934E+00
   MBD@rsSCS                     : -0.403448E-02  0.200177E-01 -0.189899E-01
   ----------------------------------------------------------------
   Total forces(  28)            : -0.213734E-01  0.199647E-01 -0.437345E-02
  atom #   29
   Hellmann-Feynman              : -0.457139E-01  0.434660E-01 -0.317304E-01
   Ionic forces                  :  0.000000E+00  0.000000E+00  0.000000E+00
   Multipole                     :  0.115140E-01 -0.402623E-01 -0.141419E-01
   Pulay + GGA                   :  0.401552E-01 -0.603244E-02  0.548672E-01
   MBD@rsSCS                     : -0.225533E-02 -0.189941E-02 -0.735684E-02
   ----------------------------------------------------------------
   Total forces(  29)            :  0.369997E-02 -0.472809E-02  0.163809E-02
  atom #   30
   Hellmann-Feynman              : -0.174752E-01  0.521631E-01  0.329524E-03
   Ionic forces                  :  0.000000E+00  0.000000E+00  0.000000E+00
   Multipole                     :  0.384616E-02 -0.111215E-01 -0.371175E-01
   Pulay + GGA                   :  0.167213E-01 -0.466047E-01  0.441262E-01
   MBD@rsSCS                     : -0.187109E-02  0.590447E-02 -0.688094E-03
   ----------------------------------------------------------------
   Total forces(  30)            :  0.122123E-02  0.341351E-03  0.665007E-02
  atom #   31
   Hellmann-Feynman              :  0.118253E-01 -0.788639E-02  0.341132E-01
   Ionic forces                  :  0.000000E+00  0.000000E+00  0.000000E+00
   Multipole                     : -0.261936E-01 -0.256905E-02  0.126768E-01
   Pulay + GGA                   :  0.222803E-01  0.616832E-02 -0.500082E-01
   MBD@rsSCS                     :  0.410134E-03  0.160958E-01 -0.163276E-01
   ----------------------------------------------------------------
   Total forces(  31)            :  0.832226E-02  0.118086E-01 -0.195457E-01
  atom #   32
   Hellmann-Feynman              :  0.149205E-01  0.209304E-01  0.566171E-01
   Ionic forces                  :  0.000000E+00  0.000000E+00  0.000000E+00
   Multipole                     :  0.282924E-01  0.446027E-02 -0.132553E-01
   Pulay + GGA                   : -0.556472E-01 -0.920054E-02 -0.434345E-01
   MBD@rsSCS                     : -0.727509E-02  0.153761E-01 -0.690026E-02
   ----------------------------------------------------------------
   Total forces(  32)            : -0.197094E-01  0.315662E-01 -0.697305E-02

  Removing unitary transformations (pure translations, rotations) from forces on atoms.
  Atomic forces before filtering:
  | Net force on center of mass :  -0.314189E-03  0.537836E-03 -0.759788E-03 eV/A
  | Net torque on center of mass:   0.541879E-03 -0.160988E-02 -0.568617E-03 eV
  Atomic forces after filtering:
  | Net force on center of mass :   0.836279E-17  0.000000E+00 -0.278760E-17 eV/A
  | Net torque on center of mass:  -0.236021E-16 -0.250772E-16  0.000000E+00 eV

  Energy and forces in a compact form:
  | Total energy uncorrected      :         -0.202089434480522E+05 eV
  | Total energy corrected        :         -0.202089434480522E+05 eV  <-- do not rely on this value for anything but (periodic) metals
  | Electronic free energy        :         -0.202089434480522E+05 eV
  Total atomic forces (unitary forces cleaned) [eV/Ang]:
  |   1         -0.139652243775520E-01          0.365925721121491E-02         -0.161859147856582E-01
  |   2         -0.300907876691517E-01          0.161238541185202E-01          0.338722718114890E-02
  |   3          0.405375483896960E-02         -0.219487188278716E-02          0.827395257720501E-02
  |   4         -0.257841361634124E-01         -0.302473045569327E-03         -0.173690382740442E-01
  |   5         -0.169531719209896E-01         -0.280467034041083E-02         -0.114039458017232E-01
  |   6          0.390331983210268E-02         -0.415198385313226E-02         -0.186491558405419E-02
  |   7          0.887567328248448E-03          0.226003081858627E-01          0.420201747534331E-02
  |   8          0.236470136416157E-01         -0.622719229647093E-02          0.171799022752879E-01
  |   9          0.106448658648625E-01         -0.163712844593026E-01          0.428031185835044E-02
  |  10         -0.159204734895190E-02         -0.771331078664630E-02         -0.203815136890397E-01
  |  11         -0.152230618947089E-01          0.628172727051716E-02         -0.702941958975980E-02
  |  12          0.850576076988671E-02         -0.436151208421596E-02          0.562828016403491E-02
  |  13         -0.258116127759573E-02          0.677472265123668E-02          0.687097499587261E-02
  |  14          0.794290659191363E-02          0.572631639914138E-02          0.171646828548003E-01
  |  15          0.120550693569986E-01         -0.567500744120546E-02          0.107778840790561E-01
  |  16          0.110077639767760E-01         -0.617668786960946E-02          0.135649194484580E-01
  |  17          0.139472444779106E-01         -0.246987643596067E-01          0.216447812484793E-01
  |  18          0.102690807837781E-01         -0.120610131451625E-01          0.864897854600068E-03
  |  19         -0.500932890908483E-02         -0.275565812314265E-01         -0.150203109074061E-01
  |  20         -0.781789665963173E-02          0.185356353688458E-02          0.215320407308544E-03
  |  21          0.639902457320292E-02         -0.147045519300412E-01          0.244347313776489E-01
  |  22         -0.945723889605199E-02         -0.155004775800932E-02          0.150929326927582E-03
  |  23          0.224214757580426E-01         -0.513956174645482E-02          0.263427132693030E-02
  |  24          0.228493002252096E-01          0.406627177211470E-02         -0.278089288729848E-02
  |  25          0.636440774985078E-02          0.658316214923347E-02         -0.371687418831311E-02
  |  26          0.808913783165136E-02          0.834578434820128E-02          0.148159987014447E-02
  |  27         -0.168255290791829E-01          0.755901060026681E-03         -0.245332639285762E-01
  |  28         -0.213443585348175E-01          0.199567891308479E-01         -0.434595462721885E-02
  |  29          0.373468678051856E-02         -0.472909563405793E-02          0.165875303898140E-02
  |  30          0.125752532343962E-02          0.337062431911667E-03          0.667838649634052E-02
  |  31          0.834606288720158E-02          0.118005716632283E-01         -0.195234961452430E-01
  |  32         -0.196820258610482E-01          0.315533179351676E-01         -0.693828344858360E-02

  ------------------------------------ 
  Start decomposition of the XC Energy 
  ------------------------------------ 
  Hartree-Fock part   :          0.000000000 Ha              0.000000000 eV
  ------------------------------------ 
  X Energy            :        -96.984907182 Ha          -2639.093600028 eV
  C Energy GGA        :         -3.868796901 Ha           -105.275320024 eV
  Total XC Energy     :       -100.853704083 Ha          -2744.368920052 eV
  LDA X and C from self-consistent density 
  X Energy LDA        :        -88.001366233 Ha          -2394.639013087 eV
  C Energy LDA        :         -7.531943430 Ha           -204.954608708 eV
  ------------------------------------ 
  End decomposition of the XC Energy 
  ------------------------------------ 
   
  ESP charge fitting starts.
  | Calculation :  00000001  of  00000001
  | Full density
  Computing multipole expansion for total density.
  Generating points for esp charges.
  Partitioning the integration grid into batches with parallel hashing+maxmin method.
  | Number of batches:     3787
  | Maximal batch size:     199
  | Minimal batch size:      55
  | Average batch size:     128.742
  | Standard deviation of batch sizes:      21.198

  Integration load balanced across    32 MPI tasks.
  Work distribution over tasks is as follows:
  Initializing partition tables, free-atom densities, potentials, etc. across the integration grid (initialize_grid_storage).
  | Original list of interatomic distances with          32 x         32 entries is created.
  | Net number of integration points:   487545
  | of which are non-zero points    :   487545
  Summing up potential from multipole expanded  density.
  Summing up the Hartree potential.
  Time summed over all CPUs for potential: real work        6.355 s, elapsed        6.596 s
  Fitting esp charges to potential.
  |
  | ESP charges fitted to the electrostatic potential :
  |
  | Atom         1: C, ESP charge:      0.51927087
  |
  | Atom         2: C, ESP charge:     -0.65526590
  |
  | Atom         3: O, ESP charge:      0.55486053
  |
  | Atom         4: H, ESP charge:     -0.13106293
  |
  | Atom         5: H, ESP charge:     -0.16543286
  |
  | Atom         6: H, ESP charge:     -0.15682042
  |
  | Atom         7: N, ESP charge:      0.53460747
  |
  | Atom         8: C, ESP charge:     -0.25747348
  |
  | Atom         9: C, ESP charge:     -0.11537549
  |
  | Atom        10: O, ESP charge:      0.46428453
  |
  | Atom        11: H, ESP charge:     -0.29449609
  |
  | Atom        12: H, ESP charge:     -0.04990173
  |
  | Atom        13: C, ESP charge:      0.35247847
  |
  | Atom        14: H, ESP charge:     -0.13025963
  |
  | Atom        15: H, ESP charge:     -0.08290396
  |
  | Atom        16: H, ESP charge:     -0.11084598
  |
  | Atom        17: N, ESP charge:     -0.17378166
  |
  | Atom        18: C, ESP charge:     -0.44275469
  |
  | Atom        19: C, ESP charge:     -0.15598807
  |
  | Atom        20: O, ESP charge:      0.46601287
  |
  | Atom        21: H, ESP charge:     -0.00114532
  |
  | Atom        22: H, ESP charge:     -0.00354058
  |
  | Atom        23: C, ESP charge:      0.57604378
  |
  | Atom        24: H, ESP charge:     -0.13566511
  |
  | Atom        25: H, ESP charge:     -0.11199442
  |
  | Atom        26: H, ESP charge:     -0.18350760
  |
  | Atom        27: N, ESP charge:      0.29176009
  |
  | Atom        28: C, ESP charge:      0.13444075
  |
  | Atom        29: H, ESP charge:     -0.29284014
  |
  | Atom        30: H, ESP charge:     -0.11209644
  |
  | Atom        31: H, ESP charge:     -0.07058025
  |
  | Atom        32: H, ESP charge:     -0.06002658

  RRMS:       0.00486693

  Done.

------------------------------------------------------------------------------
  Final output of selected total energy values:

  The following output summarizes some interesting total energy values
  at the end of a run (AFTER all relaxation, molecular dynamics, etc.).

  | Total energy of the DFT / Hartree-Fock s.c.f. calculation      :         -20208.943448052 eV
  | Final zero-broadening corrected energy (caution - metals only) :         -20208.943448052 eV
  | For reference only, the value of 1 Hartree used in FHI-aims is :             27.211384500 eV

  Before relying on these values, please be sure to understand exactly which
  total energy value is referred to by a given number. Different objects may
  all carry the same name 'total energy'. Definitions:

  Total energy of the DFT / Hartree-Fock s.c.f. calculation:
  | Note that this energy does not include ANY quantities calculated after the
  | s.c.f. cycle, in particular not ANY RPA, MP2, etc. many-body perturbation terms.

  Final zero-broadening corrected energy:
  | For metallic systems only, a broadening of the occupation numbers at the Fermi
  | level can be extrapolated back to zero broadening by an electron-gas inspired
  | formula. For all systems that are not real metals, this value can be
  | meaningless and should be avoided.

------------------------------------------------------------------------------
  Methods described in the following list of references were used in this FHI-aims run.
  If you publish the results, please make sure to cite these reference if they apply.
  FHI-aims is an academic code, and for our developers (often, Ph.D. students
  and postdocs), scientific credit in the community is essential.
  Thank you for helping us!

  For any use of FHI-aims, please cite:

    Volker Blum, Ralf Gehrke, Felix Hanke, Paula Havu, Ville Havu,
    Xinguo Ren, Karsten Reuter, and Matthias Scheffler
    'Ab initio molecular simulations with numeric atom-centered orbitals'
    Computer Physics Communications 180, 2175-2196 (2009)
    http://dx.doi.org/10.1016/j.cpc.2009.06.022


  The scalable eigensolver library ELPA was used in your run.
  ELPA is essential especially for large systems on hundreds or thousands of CPUs.
  For ELPA, please cite:

    Andreas Marek, Volker Blum, Rainer Johanni, Ville Havu, Bruno Lang,
    Thomas Auckenthaler, Alexander Heinecke, Hans-Joachim Bungartz, and Hermann Lederer,
    'The ELPA Library - Scalable Parallel Eigenvalue Solutions
    for Electronic Structure Theory and Computational Science'
    The Journal of Physics: Condensed Matter 26, 213201 (2014).
    http://dx.doi.org/10.1088/0953-8984/26/21/213201


  For ELPA's efficient two-stage tridiagonalization used in your run, please cite:

    T. Auckenthaler, V. Blum, H.-J. Bungartz, T. Huckle, R. Johanni, L. Kraemer,
    B. Lang, H. Lederer, and P. R. Willems,
    'Parallel solution of partial symmetric eigenvalue problems'
    'from  electronic structure calculations'
    Parallel Computing 37, 783-794 (2011).
    http://dx.doi.org/10.1016/j.parco.2011.05.002


  For the real-space grid partitioning and parallelization used in this calculation, please cite:

    Ville Havu, Volker Blum, Paula Havu, and Matthias Scheffler,
    'Efficient O(N) integration for all-electron electronic structure calculation'
    'using numerically tabulated basis functions'
    Journal of Computational Physics 228, 8367-8379 (2009).
    http://dx.doi.org/10.1016/j.jcp.2009.08.008

  Of course, there are many other important community references, e.g., those cited in the
  above references. Our list is limited to references that describe implementations in the
  FHI-aims code. The reason is purely practical (length of this list) - please credit others as well.

------------------------------------------------------------
          Leaving FHI-aims.
          Date     :  20170309, Time     :  190700.324

          Computational steps:
          | Number of self-consistency cycles          :           14

          Detailed time accounting                     :  max(cpu_time)    wall_clock(cpu1)
          | Total time                                 :       34.558 s          34.771 s
          | Preparation time                           :        0.236 s           0.237 s
          | Grid partitioning                          :        0.292 s           0.287 s
          | Preloading free-atom quantities on grid    :        0.028 s           0.027 s
          | Free-atom superposition energy             :        0.044 s           0.041 s
          | Total time for integrations                :       11.821 s          11.786 s
          | Total time for solution of K.-S. equations :        0.532 s           0.506 s
          | Total time for density & force components  :       10.125 s          10.090 s
          | Total time for mixing                      :        0.128 s           0.105 s
          | Total time for Hartree multipole update    :        0.072 s           0.060 s
          | Total time for Hartree multipole sum       :        6.424 s           6.404 s
          | Total time for total energy evaluation     :        0.024 s           0.025 s

          Have a nice day.
------------------------------------------------------------
