  MPI-parallelism will be employed.
------------------------------------------------------------
          Invoking FHI-aims ...
          Version 150427
          Git rev.: 9dd23e0 BL: Update Version stamp
          Compiled on 2015/11/03 at 22:05:20 on host eos03.

          When using FHI-aims, please cite the following reference:

          Volker Blum, Ralf Gehrke, Felix Hanke, Paula Havu,
          Ville Havu, Xinguo Ren, Karsten Reuter, and Matthias Scheffler,
          'Ab Initio Molecular Simulations with Numeric Atom-Centered Orbitals: FHI-aims',
          Computer Physics Communications 180, 2175-2196 (2009)

          For any questions about FHI-aims, please visit the aimsclub website
          with its forums and wiki. Contributions to both the forums and the
          wiki are warmly encouraged - they are for you, and everyone is welcome there.

------------------------------------------------------------

  Date     :  20170309, Time     :  160611.274
  Time zero on CPU 1             :   0.344021000000000E+00  s.
  Internal wall clock time zero  :           258307571.274  s.

  Using       32 parallel tasks.
  Task        0 on host eos330 reporting.
  Task        1 on host eos330 reporting.
  Task        2 on host eos330 reporting.
  Task        3 on host eos330 reporting.
  Task        4 on host eos330 reporting.
  Task        5 on host eos330 reporting.
  Task        6 on host eos330 reporting.
  Task        7 on host eos330 reporting.
  Task        8 on host eos330 reporting.
  Task        9 on host eos330 reporting.
  Task       10 on host eos330 reporting.
  Task       11 on host eos330 reporting.
  Task       12 on host eos330 reporting.
  Task       13 on host eos330 reporting.
  Task       14 on host eos330 reporting.
  Task       15 on host eos330 reporting.
  Task       16 on host eos330 reporting.
  Task       17 on host eos330 reporting.
  Task       18 on host eos330 reporting.
  Task       19 on host eos330 reporting.
  Task       20 on host eos330 reporting.
  Task       21 on host eos330 reporting.
  Task       22 on host eos330 reporting.
  Task       23 on host eos330 reporting.
  Task       24 on host eos330 reporting.
  Task       25 on host eos330 reporting.
  Task       26 on host eos330 reporting.
  Task       27 on host eos330 reporting.
  Task       28 on host eos330 reporting.
  Task       29 on host eos330 reporting.
  Task       30 on host eos330 reporting.
  Task       31 on host eos330 reporting.

  Performing system and environment tests:
  | Environment variable OMP_NUM_THREADS correctly set to 1.
  | Stacksize not measured: no C compiler
  | Checking for scalapack...
  | Testing pdtran()...
  | All pdtran() tests passed.

  Obtaining array dimensions for all initial allocations:
  
  -----------------------------------------------------------------------
  Parsing control.in (first pass over file, find array dimensions only).
  The contents of control.in will be repeated verbatim below
  unless switched off by setting 'verbatim_writeout .false.' .
  in the first line of control.in .
  -----------------------------------------------------------------------
  
  #########################################################################################
  #
  # Input for System
  #
  #########################################################################################
  #
  #
  #  Physical model
  #
    xc                 pbe
    many_body_dispersion
    spin               none
    charge             0.
  #
  #  SCF convergence
  #
    occupation_type    gaussian 0.05
    mixer              pulay
      n_max_pulay        10
      charge_mix_param   0.5
    sc_accuracy_rho    1E-4
    sc_accuracy_eev    1E-2
    sc_accuracy_etot   1E-5
    sc_accuracy_forces 1E-4
    sc_iter_limit      1000
  #
  #  ESP charge
  #
    output esp
    esp equal_grid_n 80 80 80
  #
  #
  ################################################################################
  #
  #  FHI-aims code project
  # Volker Blum, Fritz Haber Institute Berlin, 2009
  #
  #  Suggested "tight" defaults for H atom (to be pasted into control.in file)
  #
  ################################################################################
    species        H
  #     global species definitions
      nucleus             1
      mass                1.00794
  #
      l_hartree           6
  #
      cut_pot             4.0  2.0  1.0
      basis_dep_cutoff    1e-4
  #
      radial_base         24 7.0
      radial_multiplier   2
      angular_grids       specified
        division   0.1930   50
        division   0.3175  110
        division   0.4293  194
        division   0.5066  302
        division   0.5626  434
  #      division   0.5922  590
  #      division   0.6227  974
  #      division   0.6868 1202
  #      outer_grid  770
        outer_grid  434
  ################################################################################
  #
  #  Definition of "minimal" basis
  #
  ################################################################################
  #     valence basis states
      valence      1  s   1.
  #     ion occupancy
      ion_occ      1  s   0.5
  ################################################################################
  #
  #  Suggested additional basis functions. For production calculations,
  #  uncomment them one after another (the most important basis functions are
  #  listed first).
  #
  #  Basis constructed for dimers: 0.5 A, 0.7 A, 1.0 A, 1.5 A, 2.5 A
  #
  ################################################################################
  #  "First tier" - improvements: -1014.90 meV to -62.69 meV
       hydro 2 s 2.1
       hydro 2 p 3.5
  #  "Second tier" - improvements: -12.89 meV to -1.83 meV
       hydro 1 s 0.85
       hydro 2 p 3.7
       hydro 2 s 1.2
       hydro 3 d 7
  #  "Third tier" - improvements: -0.25 meV to -0.12 meV
  #     hydro 4 f 11.2
  #     hydro 3 p 4.8
  #     hydro 4 d 9
  #     hydro 3 s 3.2
  ################################################################################
  #
  # For methods that use the localized form of the "resolution of identity" for
  # the two-electron Coulomb operator (RI_method LVL), particularly Hartree-Fock and
  # hybrid density functional calculations, the highest accuracy can be obtained by
  # uncommenting the line beginning with "for_aux"  below, thus adding an extra g radial
  # function to the construction of the product basis set for the expansion.
  # See Ref. New J. Phys. 17, 093020 (2015) for more information, particularly Figs. 1 and 6.
  #
  ################################################################################
  #
  # for_aux hydro 5 g 6.0
  ################################################################################
  #
  #  FHI-aims code project
  # Volker Blum, Fritz Haber Institute Berlin, 2009
  #
  #  Suggested "tight" defaults for C atom (to be pasted into control.in file)
  #
  ################################################################################
    species        C
  #     global species definitions
      nucleus             6
      mass                12.0107
  #
      l_hartree           6
  #
      cut_pot             4.0  2.0  1.0
      basis_dep_cutoff    1e-4
  #
      radial_base         34 7.0
      radial_multiplier   2
      angular_grids specified
        division   0.2187   50
        division   0.4416  110
        division   0.6335  194
        division   0.7727  302
        division   0.8772  434
  #      division   0.9334  590
  #      division   0.9924  770
  #      division   1.0230  974
  #      division   1.5020 1202
  #     outer_grid  974
        outer_grid  434
  ################################################################################
  #
  #  Definition of "minimal" basis
  #
  ################################################################################
  #     valence basis states
      valence      2  s   2.
      valence      2  p   2.
  #     ion occupancy
      ion_occ      2  s   1.
      ion_occ      2  p   1.
  ################################################################################
  #
  #  Suggested additional basis functions. For production calculations,
  #  uncomment them one after another (the most important basis functions are
  #  listed first).
  #
  #  Constructed for dimers: 1.0 A, 1.25 A, 1.5 A, 2.0 A, 3.0 A
  #
  ################################################################################
  #  "First tier" - improvements: -1214.57 meV to -155.61 meV
       hydro 2 p 1.7
       hydro 3 d 6
       hydro 2 s 4.9
  #  "Second tier" - improvements: -67.75 meV to -5.23 meV
       hydro 4 f 9.8
       hydro 3 p 5.2
       hydro 3 s 4.3
       hydro 5 g 14.4
       hydro 3 d 6.2
  #  "Third tier" - improvements: -2.43 meV to -0.60 meV
  #     hydro 2 p 5.6
  #     hydro 2 s 1.4
  #     hydro 3 d 4.9
  #     hydro 4 f 11.2
  #  "Fourth tier" - improvements: -0.39 meV to -0.18 meV
  #     hydro 2 p 2.1
  #     hydro 5 g 16.4
  #     hydro 4 d 13.2
  #     hydro 3 s 13.6
  #     hydro 4 f 17.6
  #  Further basis functions - improvements: -0.08 meV and below
  #     hydro 3 s 2
  #     hydro 3 p 6
  #     hydro 4 d 20
  ################################################################################
  #
  # For methods that use the localized form of the "resolution of identity" for
  # the two-electron Coulomb operator (RI_method LVL), particularly Hartree-Fock and
  # hybrid density functional calculations, the highest accuracy can be obtained by
  # uncommenting the line beginning with "for_aux"  below, thus adding an extra g radial
  # function to the construction of the product basis set for the expansion.
  # See Ref. New J. Phys. 17, 093020 (2015) for more information, particularly Figs. 1 and 6.
  #
  ################################################################################
  #
  # for_aux hydro 5 g 6.0
  ################################################################################
  #
  #  FHI-aims code project
  # Volker Blum, Fritz Haber Institute Berlin, 2009
  #
  #  Suggested "tight" defaults for N atom (to be pasted into control.in file)
  #
  ################################################################################
    species        N
  #     global species definitions
      nucleus             7
      mass                14.0067
  #
      l_hartree           6
  #
      cut_pot             4.0  2.0  1.0
      basis_dep_cutoff    1e-4
  #
      radial_base         35 7.0
      radial_multiplier   2
      angular_grids       specified
        division   0.1841   50
        division   0.3514  110
        division   0.5126  194
        division   0.6292  302
        division   0.6939  434
  #      division   0.7396  590
  #      division   0.7632  770
  #      division   0.8122  974
  #      division   1.1604 1202
  #      outer_grid  974
        outer_grid  434
  ################################################################################
  #
  #  Definition of "minimal" basis
  #
  ################################################################################
  #     valence basis states
      valence      2  s   2.
      valence      2  p   3.
  #     ion occupancy
      ion_occ      2  s   1.
      ion_occ      2  p   2.
  ################################################################################
  #
  #  Suggested additional basis functions. For production calculations,
  #  uncomment them one after another (the most important basis functions are
  #  listed first).
  #
  #  Constructed for dimers: 1.0 A, 1.1 A, 1.5 A, 2.0 A, 3.0 A
  #
  ################################################################################
  #  "First tier" - improvements: -1193.42 meV to -220.60 meV
       hydro 2 p 1.8
       hydro 3 d 6.8
       hydro 3 s 5.8
  #  "Second tier" - improvements: -80.21 meV to -6.86 meV
       hydro 4 f 10.8
       hydro 3 p 5.8
       hydro 1 s 0.8
       hydro 5 g 16
       hydro 3 d 4.9
  #  "Third tier" - improvements: -4.29 meV to -0.53 meV
  #     hydro 3 s 16
  #     ionic 2 p auto
  #     hydro 3 d 6.6
  #     hydro 4 f 11.6
  #  "Fourth tier" - improvements: -0.75 meV to -0.25 meV
  #     hydro 2 p 4.5
  #     hydro 2 s 2.4
  #     hydro 5 g 14.4
  #     hydro 4 d 14.4
  #     hydro 4 f 16.8
  # Further basis functions - -0.21 meV and below
  #     hydro 3 p 14.8
  #     hydro 3 s 4.4
  #     hydro 3 d 19.6
  #     hydro 5 g 12.8
  ################################################################################
  #
  # For methods that use the localized form of the "resolution of identity" for
  # the two-electron Coulomb operator (RI_method LVL), particularly Hartree-Fock and
  # hybrid density functional calculations, the highest accuracy can be obtained by
  # uncommenting the line beginning with "for_aux"  below, thus adding an extra g radial
  # function to the construction of the product basis set for the expansion.
  # See Ref. New J. Phys. 17, 093020 (2015) for more information, particularly Figs. 1 and 6.
  #
  ################################################################################
  #
  # for_aux hydro 5 g 6.0
  ################################################################################
  #
  #  FHI-aims code project
  # Volker Blum, Fritz Haber Institute Berlin, 2009
  #
  #  Suggested "tight" defaults for O atom (to be pasted into control.in file)
  #
  ################################################################################
    species        O
  #     global species definitions
      nucleus             8
      mass                15.9994
  #
      l_hartree           6
  #
      cut_pot             4.0  2.0  1.0
      basis_dep_cutoff    1e-4
  #
      radial_base         36 7.0
      radial_multiplier   2
       angular_grids specified
        division   0.1817   50
        division   0.3417  110
        division   0.4949  194
        division   0.6251  302
        division   0.8014  434
  #      division   0.8507  590
  #      division   0.8762  770
  #      division   0.9023  974
  #      division   1.2339 1202
  #      outer_grid 974
        outer_grid  434
  ################################################################################
  #
  #  Definition of "minimal" basis
  #
  ################################################################################
  #     valence basis states
      valence      2  s   2.
      valence      2  p   4.
  #     ion occupancy
      ion_occ      2  s   1.
      ion_occ      2  p   3.
  ################################################################################
  #
  #  Suggested additional basis functions. For production calculations,
  #  uncomment them one after another (the most important basis functions are
  #  listed first).
  #
  #  Constructed for dimers: 1.0 A, 1.208 A, 1.5 A, 2.0 A, 3.0 A
  #
  ################################################################################
  #  "First tier" - improvements: -699.05 meV to -159.38 meV
       hydro 2 p 1.8
       hydro 3 d 7.6
       hydro 3 s 6.4
  #  "Second tier" - improvements: -49.91 meV to -5.39 meV
       hydro 4 f 11.6
       hydro 3 p 6.2
       hydro 3 d 5.6
       hydro 5 g 17.6
       hydro 1 s 0.75
  #  "Third tier" - improvements: -2.83 meV to -0.50 meV
  #     ionic 2 p auto
  #     hydro 4 f 10.8
  #     hydro 4 d 4.7
  #     hydro 2 s 6.8
  #  "Fourth tier" - improvements: -0.40 meV to -0.12 meV
  #     hydro 3 p 5
  #     hydro 3 s 3.3
  #     hydro 5 g 15.6
  #     hydro 4 f 17.6
  #     hydro 4 d 14
  # Further basis functions - -0.08 meV and below
  #     hydro 3 s 2.1
  #     hydro 4 d 11.6
  #     hydro 3 p 16
  #     hydro 2 s 17.2
  ################################################################################
  #
  # For methods that use the localized form of the "resolution of identity" for
  # the two-electron Coulomb operator (RI_method LVL), particularly Hartree-Fock and
  # hybrid density functional calculations, the highest accuracy can be obtained by
  # uncommenting the line beginning with "for_aux"  below, thus adding an extra g radial
  # function to the construction of the product basis set for the expansion.
  # See Ref. New J. Phys. 17, 093020 (2015) for more information, particularly Figs. 1 and 6.
  #
  ################################################################################
  #
  # for_aux hydro 5 g 6.0
  
  -----------------------------------------------------------------------
  Completed first pass over input file control.in .
  -----------------------------------------------------------------------
  
  
  -----------------------------------------------------------------------
  Parsing geometry.in (first pass over file, find array dimensions only).
  The contents of geometry.in will be repeated verbatim below
  unless switched off by setting 'verbatim_writeout .false.' .
  in the first line of geometry.in .
  -----------------------------------------------------------------------
  
  #
  # This is the geometry file that corresponds to the current relaxation step.
  # If you do not want this file to be written, set the "write_restart_geometry" flag to .false.
  #
  atom      -1.64439679      1.58526010      0.64630509 C
  atom      -1.37253384      0.74315668      1.87448373 C
  atom      -0.86369883     -0.38125671      1.79662366 O
  atom      -0.70794663      1.70342480      0.08747554 H
  atom      -2.05501896      2.57696238      0.87209456 H
  atom      -2.34633786      1.04645287     -0.00289313 H
  atom      -1.72439320      1.29654692      3.06987218 N
  atom      -1.49053788      0.63366747      4.35513545 C
  atom      -2.62005215     -0.38558454      4.65689533 C
  atom      -3.46911509     -0.19061818      5.53727570 O
  atom      -2.19735408      2.19327532      3.08037087 H
  atom      -0.55577573      0.06448685      4.23585247 H
  atom      -1.34742714      1.66224292      5.46648714 C
  atom      -1.12575646      1.16502838      6.41765580 H
  atom      -2.28019324      2.22406102      5.60849064 H
  atom      -0.53152258      2.35950040      5.23747175 H
  atom      -2.58510153     -1.48266353      3.86809167 N
  atom      -3.63903972     -2.50062334      3.85984588 C
  atom      -3.40829586     -3.54315887      4.99263062 C
  atom      -3.08136382     -4.70522035      4.76236493 O
  atom      -1.86764118     -1.50640931      3.13570170 H
  atom      -4.58375660     -1.97859681      4.08257302 H
  atom      -3.71017944     -3.16787848      2.49473110 C
  atom      -3.88865768     -2.41967056      1.71155325 H
  atom      -4.52351588     -3.90195272      2.47433739 H
  atom      -2.78054717     -3.70704498      2.27305504 H
  atom      -3.61653619     -3.02969252      6.23505977 N
  atom      -3.38076516     -3.79298390      7.44387284 C
  atom      -3.79835232     -2.02434254      6.29337860 H
  atom      -4.24281397     -3.72410243      8.12132904 H
  atom      -2.48547832     -3.44060498      7.97878360 H
  atom      -3.22925367     -4.84013738      7.16030079 H
  
  -----------------------------------------------------------------------
  Completed first pass over input file geometry.in .
  -----------------------------------------------------------------------
  

  Basic array size parameters:
  | Number of species                 :        4
  | Number of atoms                   :       32
  | Max. basis fn. angular momentum   :        4
  | Max. atomic/ionic basis occupied n:        2
  | Max. number of basis fn. types    :        2
  | Max. radial fns per species/type  :        8
  | Max. logarithmic grid size        :     1301
  | Max. radial integration grid size :       73
  | Max. angular integration grid size:      434
  | Max. angular grid division number :        8
  | Radial grid for Hartree potential :     1301
  | Number of spin channels           :        1

------------------------------------------------------------
          Reading file control.in.
------------------------------------------------------------
  XC: Using PBE gradient-corrected functionals.
  Self-consistent screening and van der Waals energy (TS, TS+SCS,MBD) module
  Spin treatment: No spin polarisation.
  Charge =   0.000000E+00: Neutral system requested explicitly.
  Occupation type: Gaussian broadening, width =   0.500000E-01 eV.
  Using pulay charge density mixing.
  Pulay mixing - number of memorized iterations:   10
  Charge density mixing - mixing parameter:     0.5000
  Convergence accuracy of self-consistent charge density:  0.1000E-03
  Convergence accuracy of sum of eigenvalues:  0.1000E-01
  Convergence accuracy of total energy:  0.1000E-04
  Convergence accuracy of forces:  0.1000E-03
  Maximum number of s.-c. iterations  :  1000
  Fitting ESP-charges to Potential. 
  | Esp charge output options: 
  | ESP Grid method: 3, cubic grid
  | Number of points in x, ,y, z:  0080 0080 0080
  |
 
  Reading configuration options for species H                   .
  | Found nuclear charge :   1.0000
  | Found atomic mass :    1.00794000000000      amu
  | Found l_max for Hartree potential  :   6
  | Found cutoff potl. onset [A], width [A], scale factor :    4.00000    2.00000    1.00000
  | Threshold for basis-dependent cutoff potential is   0.100000E-03
  | Found data for basic radial integration grid :    24 points, outermost radius =    7.000 A
  | Found multiplier for basic radial grid :   2
  | Found angular grid specification: user-specified.
  | Specified grid contains     6 separate shells.
  | Check grid settings after all constraints further below.
  | Found free-atom valence shell :  1 s   1.000
  | No ionic wave fns used. Skipping ion_occ.
  | Found hydrogenic basis function :  2 s   2.100
  | Found hydrogenic basis function :  2 p   3.500
  | Found hydrogenic basis function :  1 s   0.850
  | Found hydrogenic basis function :  2 p   3.700
  | Found hydrogenic basis function :  2 s   1.200
  | Found hydrogenic basis function :  3 d   7.000
  Species H                   : Missing cutoff potential type.
  Defaulting to exp(1/x)/(1-x)^2 type cutoff potential.
  Species H : No 'logarithmic' tag. Using default grid for free atom:
  | Default logarithmic grid data [bohr] : 0.1000E-03 0.1000E+03 0.1012E+01
  Species H : On-site basis accuracy parameter (for Gram-Schmidt orthonormalisation) not specified.
  Using default value basis_acc =  0.1000000E-03.
  Species H                   : Using default innermost maximum threshold i_radial=  2 for radial functions.
  Species H                   : Default cutoff onset for free atom density etc. : 0.40000000E+01 AA.
  Species H                   : Basic radial grid will be enhanced according to radial_multiplier =   2, to contain    49 grid points.
 
  Reading configuration options for species C                   .
  | Found nuclear charge :   6.0000
  | Found atomic mass :    12.0107000000000      amu
  | Found l_max for Hartree potential  :   6
  | Found cutoff potl. onset [A], width [A], scale factor :    4.00000    2.00000    1.00000
  | Threshold for basis-dependent cutoff potential is   0.100000E-03
  | Found data for basic radial integration grid :    34 points, outermost radius =    7.000 A
  | Found multiplier for basic radial grid :   2
  | Found angular grid specification: user-specified.
  | Specified grid contains     6 separate shells.
  | Check grid settings after all constraints further below.
  | Found free-atom valence shell :  2 s   2.000
  | Found free-atom valence shell :  2 p   2.000
  | No ionic wave fns used. Skipping ion_occ.
  | No ionic wave fns used. Skipping ion_occ.
  | Found hydrogenic basis function :  2 p   1.700
  | Found hydrogenic basis function :  3 d   6.000
  | Found hydrogenic basis function :  2 s   4.900
  | Found hydrogenic basis function :  4 f   9.800
  | Found hydrogenic basis function :  3 p   5.200
  | Found hydrogenic basis function :  3 s   4.300
  | Found hydrogenic basis function :  5 g  14.400
  | Found hydrogenic basis function :  3 d   6.200
  Species C                   : Missing cutoff potential type.
  Defaulting to exp(1/x)/(1-x)^2 type cutoff potential.
  Species C : No 'logarithmic' tag. Using default grid for free atom:
  | Default logarithmic grid data [bohr] : 0.1000E-03 0.1000E+03 0.1012E+01
  Species C : On-site basis accuracy parameter (for Gram-Schmidt orthonormalisation) not specified.
  Using default value basis_acc =  0.1000000E-03.
  Species C                   : Using default innermost maximum threshold i_radial=  2 for radial functions.
  Species C                   : Default cutoff onset for free atom density etc. : 0.40000000E+01 AA.
  Species C                   : Basic radial grid will be enhanced according to radial_multiplier =   2, to contain    69 grid points.
 
  Reading configuration options for species N                   .
  | Found nuclear charge :   7.0000
  | Found atomic mass :    14.0067000000000      amu
  | Found l_max for Hartree potential  :   6
  | Found cutoff potl. onset [A], width [A], scale factor :    4.00000    2.00000    1.00000
  | Threshold for basis-dependent cutoff potential is   0.100000E-03
  | Found data for basic radial integration grid :    35 points, outermost radius =    7.000 A
  | Found multiplier for basic radial grid :   2
  | Found angular grid specification: user-specified.
  | Specified grid contains     6 separate shells.
  | Check grid settings after all constraints further below.
  | Found free-atom valence shell :  2 s   2.000
  | Found free-atom valence shell :  2 p   3.000
  | No ionic wave fns used. Skipping ion_occ.
  | No ionic wave fns used. Skipping ion_occ.
  | Found hydrogenic basis function :  2 p   1.800
  | Found hydrogenic basis function :  3 d   6.800
  | Found hydrogenic basis function :  3 s   5.800
  | Found hydrogenic basis function :  4 f  10.800
  | Found hydrogenic basis function :  3 p   5.800
  | Found hydrogenic basis function :  1 s   0.800
  | Found hydrogenic basis function :  5 g  16.000
  | Found hydrogenic basis function :  3 d   4.900
  Species N                   : Missing cutoff potential type.
  Defaulting to exp(1/x)/(1-x)^2 type cutoff potential.
  Species N : No 'logarithmic' tag. Using default grid for free atom:
  | Default logarithmic grid data [bohr] : 0.1000E-03 0.1000E+03 0.1012E+01
  Species N : On-site basis accuracy parameter (for Gram-Schmidt orthonormalisation) not specified.
  Using default value basis_acc =  0.1000000E-03.
  Species N                   : Using default innermost maximum threshold i_radial=  2 for radial functions.
  Species N                   : Default cutoff onset for free atom density etc. : 0.40000000E+01 AA.
  Species N                   : Basic radial grid will be enhanced according to radial_multiplier =   2, to contain    71 grid points.
 
  Reading configuration options for species O                   .
  | Found nuclear charge :   8.0000
  | Found atomic mass :    15.9994000000000      amu
  | Found l_max for Hartree potential  :   6
  | Found cutoff potl. onset [A], width [A], scale factor :    4.00000    2.00000    1.00000
  | Threshold for basis-dependent cutoff potential is   0.100000E-03
  | Found data for basic radial integration grid :    36 points, outermost radius =    7.000 A
  | Found multiplier for basic radial grid :   2
  | Found angular grid specification: user-specified.
  | Specified grid contains     6 separate shells.
  | Check grid settings after all constraints further below.
  | Found free-atom valence shell :  2 s   2.000
  | Found free-atom valence shell :  2 p   4.000
  | No ionic wave fns used. Skipping ion_occ.
  | No ionic wave fns used. Skipping ion_occ.
  | Found hydrogenic basis function :  2 p   1.800
  | Found hydrogenic basis function :  3 d   7.600
  | Found hydrogenic basis function :  3 s   6.400
  | Found hydrogenic basis function :  4 f  11.600
  | Found hydrogenic basis function :  3 p   6.200
  | Found hydrogenic basis function :  3 d   5.600
  | Found hydrogenic basis function :  5 g  17.600
  | Found hydrogenic basis function :  1 s   0.750
  Species O                   : Missing cutoff potential type.
  Defaulting to exp(1/x)/(1-x)^2 type cutoff potential.
  Species O : No 'logarithmic' tag. Using default grid for free atom:
  | Default logarithmic grid data [bohr] : 0.1000E-03 0.1000E+03 0.1012E+01
  Species O : On-site basis accuracy parameter (for Gram-Schmidt orthonormalisation) not specified.
  Using default value basis_acc =  0.1000000E-03.
  Species O                   : Using default innermost maximum threshold i_radial=  2 for radial functions.
  Species O                   : Default cutoff onset for free atom density etc. : 0.40000000E+01 AA.
  Species O                   : Basic radial grid will be enhanced according to radial_multiplier =   2, to contain    73 grid points.
 
  Finished reading input file 'control.in'. Consistency checks are next.
 
  Target number of points in a grid batch is not set. Defaulting to  100
  Method for grid partitioning is not set. Defaulting to parallel hash+maxmin partitioning.
  Batch size limit is not set. Defaulting to    200
  By default, will store active basis functions for each batch.
  If in need of memory, prune_basis_once .false. can be used to disable this option.
  communication_type for Hartree potential was not specified.
  Defaulting to calc_hartree .
  Pulay mixer: Number of initial linear mixing iterations not set.
  Defaulting to    0 iterations.
  Work space size for distributed Hartree potential not set.
  Defaulting to   0.200000E+03 MB.
  Algorithm-dependent basis array size parameters:
  | n_max_pulay                         :       10
  Geometry relaxation not requested: no relaxation will be performed.
  Handling of forces: Unphysical translation and rotation will be removed from forces.
  No accuracy limit for integral partition fn. given. Defaulting to  0.1000E-14.
  No threshold value for u(r) in integrations given. Defaulting to  0.1000E-05.
  No accuracy for occupation numbers given. Defaulting to  0.1000E-07.
  No threshold value for occupation numbers given. Defaulting to  0.0000E+00.
  No accuracy for fermi level given. Defaulting to  0.1000E-19.
  Maximum # of iterations to find E_F not set. Defaulting to  200.
  Preferred method for the eigenvalue solver ('KS_method') not specified in 'control.in'.
  Calling blacs routine to test compilation state
  Since scalapack support is enabled, defaulting to 'elpa'.
  Preferred method for the MBD eigenvalue solver ('mbd_eigensolver') not specified in 'control.in'.
  Calling blacs routine to test compilation state
  Since scalapack support is enabled, defaulting to 'scaLAPACK'.
  Will not use alltoall communication since running on < 1024 CPUs.
  Threshold for basis singularities not set.
  Default threshold for basis singularities:  0.1000E-04
  partition_type (choice of integration weights) for integrals was not specified.
  | Using a version of the partition function of Stratmann and coworkers ('stratmann_smoother').
  | At each grid point, the set of atoms used to build the partition table is smoothly restricted to
  | only those atoms whose free-atom density would be non-zero at that grid point.
  Partitioning for Hartree potential was not defined. Using partition_type for integrals.
  | Adjusted default value of keyword multip_moments_threshold to:       0.10000000E-11
  | This value may affect high angular momentum components of the Hartree potential in periodic systems.
  No q(lm)/r^(l+1) cutoff set for long-range Hartree potential.
  | Using default value of  0.100000E-09 .
  | Verify using the multipole_threshold keyword.
  Defaulting to new monopole extrapolation.
  Density update method: automatic selection selected.
------------------------------------------------------------


------------------------------------------------------------
          Reading geometry description geometry.in.
------------------------------------------------------------
 * Warning! You did not set the 'relativistic' flag in input file 'control.in'.
 * Since you are not attempting to treat any elements beyond Ca(Z=20), FHI-aims
 * will default to 'relativistic none'.
 * You must ensure that this is really what you want!!
 * For example, DO NOT compute total-energy differences between results from
 * different settings of the 'relativistic' flag.
  Input structure read successfully.
  The structure contains       32 atoms,  and a total of        116.000 electrons.

  Input geometry:
  | No unit cell requested.
  | Atomic structure:
  |       Atom                x [A]            y [A]            z [A]
  |    1: Species C             -1.644397         1.585260         0.646305
  |    2: Species C             -1.372534         0.743157         1.874484
  |    3: Species O             -0.863699        -0.381257         1.796624
  |    4: Species H             -0.707947         1.703425         0.087476
  |    5: Species H             -2.055019         2.576962         0.872095
  |    6: Species H             -2.346338         1.046453        -0.002893
  |    7: Species N             -1.724393         1.296547         3.069872
  |    8: Species C             -1.490538         0.633667         4.355135
  |    9: Species C             -2.620052        -0.385585         4.656895
  |   10: Species O             -3.469115        -0.190618         5.537276
  |   11: Species H             -2.197354         2.193275         3.080371
  |   12: Species H             -0.555776         0.064487         4.235852
  |   13: Species C             -1.347427         1.662243         5.466487
  |   14: Species H             -1.125756         1.165028         6.417656
  |   15: Species H             -2.280193         2.224061         5.608491
  |   16: Species H             -0.531523         2.359500         5.237472
  |   17: Species N             -2.585102        -1.482664         3.868092
  |   18: Species C             -3.639040        -2.500623         3.859846
  |   19: Species C             -3.408296        -3.543159         4.992631
  |   20: Species O             -3.081364        -4.705220         4.762365
  |   21: Species H             -1.867641        -1.506409         3.135702
  |   22: Species H             -4.583757        -1.978597         4.082573
  |   23: Species C             -3.710179        -3.167878         2.494731
  |   24: Species H             -3.888658        -2.419671         1.711553
  |   25: Species H             -4.523516        -3.901953         2.474337
  |   26: Species H             -2.780547        -3.707045         2.273055
  |   27: Species N             -3.616536        -3.029693         6.235060
  |   28: Species C             -3.380765        -3.792984         7.443873
  |   29: Species H             -3.798352        -2.024343         6.293379
  |   30: Species H             -4.242814        -3.724102         8.121329
  |   31: Species H             -2.485478        -3.440605         7.978784
  |   32: Species H             -3.229254        -4.840137         7.160301
  |

  | The smallest distance between any two atoms is         1.01386589 AA.
  |
  | The first atom of this pair is atom number                      7 .
  | The second atom of this pair is atom number                    11 .

  Number of empty states per atom not set in control.in - providing a guess from actual geometry.
  | Total number of empty states used during s.c.f. cycle:       71
  If you use a very high smearing, use empty_states (per atom!) in control.in to increase this value.

  Structure-dependent array size parameters: 
  | Maximum number of distinct radial functions  :       40
  | Maximum number of basis functions            :      840
  | Number of Kohn-Sham states (occupied + empty):      129
------------------------------------------------------------

------------------------------------------------------------
          Preparing all fixed parts of the calculation.
------------------------------------------------------------
  Determining machine precision:
    2.225073858507201E-308
  Setting up grids for atomic and cluster calculations.

  Creating wave function, potential, and density for free atoms.

  Species: H

  List of occupied orbitals and eigenvalues:
    n    l              occ      energy [Ha]    energy [eV]
    1    0           1.0000        -0.238382        -6.4867


  Species: C

  List of occupied orbitals and eigenvalues:
    n    l              occ      energy [Ha]    energy [eV]
    1    0           2.0000       -10.041232      -273.2358
    2    0           2.0000        -0.504327       -13.7234
    2    1           2.0000        -0.193750        -5.2722


  Species: N

  List of occupied orbitals and eigenvalues:
    n    l              occ      energy [Ha]    energy [eV]
    1    0           2.0000       -14.129007      -384.4699
    2    0           2.0000        -0.681802       -18.5528
    2    1           3.0000        -0.260543        -7.0897


  Species: O

  List of occupied orbitals and eigenvalues:
    n    l              occ      energy [Ha]    energy [eV]
    1    0           2.0000       -18.898576      -514.2564
    2    0           2.0000        -0.878795       -23.9132
    2    1           4.0000        -0.332075        -9.0362

  Creating fixed part of basis set: Ionic, confined, hydrogenic.
 
  H                    hydrogenic:
 
  List of hydrogenic basis orbitals: 
    n    l      effective z      eigenvalue [eV]  inner max. [A]     outer max. [A]     outer radius [A]   
    2    0         2.100000       -14.9965           0.193243           1.317208           5.373006
    2    1         3.500000       -41.6672           0.602369           0.602369           4.056063
    1    0         0.850000        -9.8292           0.624871           0.624871           5.373006
    2    1         3.700000       -46.5653           0.573622           0.573622           3.910002
    2    0         1.200000        -4.5995           0.334980           2.228188           5.505995
    3    2         7.000000       -74.0753           0.680699           0.680699           3.769201
 
 
  C                    hydrogenic:
 
  List of hydrogenic basis orbitals: 
    n    l      effective z      eigenvalue [eV]  inner max. [A]     outer max. [A]     outer radius [A]   
    2    1         1.700000        -9.8152           1.245706           1.245706           5.401630
    3    2         6.000000       -54.4226           0.792453           0.792453           4.178599
    2    0         4.900000       -81.6681           0.082559           0.562749           3.353238
    4    3         9.800000       -81.6681           0.863254           0.863254           4.028125
    3    1         5.200000       -40.8774           0.305389           1.215618           4.898362
    3    0         4.300000       -27.9508           0.091041           1.610311           5.401630
    5    4        14.400000      -112.8510           0.917666           0.917666           3.883070
    3    2         6.200000       -58.1113           0.763917           0.763917           4.077671
 
 
  N                    hydrogenic:
 
  List of hydrogenic basis orbitals: 
    n    l      effective z      eigenvalue [eV]  inner max. [A]     outer max. [A]     outer radius [A]   
    2    1         1.800000       -11.0118           1.177451           1.177451           5.427479
    3    2         6.800000       -69.9029           0.704619           0.704619           3.854246
    3    0         5.800000       -50.8549           0.067388           1.191934           4.629968
    4    3        10.800000       -99.1854           0.786571           0.786571           3.761152
    3    1         5.800000       -50.8549           0.274880           1.094176           4.518138
    1    0         0.800000        -8.7059           0.662839           0.662839           5.361532
    5    4        16.000000      -139.3222           0.825990           0.825990           3.625711
    3    2         4.900000       -36.2967           0.968267           0.968267           4.862000
 
 
  O                    hydrogenic:
 
  List of hydrogenic basis orbitals: 
    n    l      effective z      eigenvalue [eV]  inner max. [A]     outer max. [A]     outer radius [A]   
    2    1         1.800000       -11.0118           1.178562           1.178562           5.432602
    3    2         7.600000       -87.3182           0.624125           0.624125           3.541477
    3    0         6.400000       -61.9209           0.061167           1.081902           4.306578
    4    3        11.600000      -114.4238           0.731631           0.731631           3.585037
    3    1         6.200000       -58.1113           0.255680           1.030270           4.306578
    3    2         5.600000       -47.4081           0.847233           0.847233           4.413171
    5    4        17.600000      -168.5799           0.749740           0.749740           3.372465
    1    0         0.750000        -7.6499           0.705284           0.705284           5.366593
 

  Adding cutoff potential to free-atom effective potential.
  Creating atomic-like basis functions for current effective potential.

  Species H                   :

  List of atomic basis orbitals and eigenvalues:
    n    l      energy [Ha]    energy [eV]    outer radius [A]
    1    0        -0.238382        -6.4867       5.373006


  Species C                   :

  List of atomic basis orbitals and eigenvalues:
    n    l      energy [Ha]    energy [eV]    outer radius [A]
    1    0       -10.041232      -273.2358       1.934409
    2    0        -0.504327       -13.7234       5.271162
    2    1        -0.193750        -5.2722       5.401630


  Species N                   :

  List of atomic basis orbitals and eigenvalues:
    n    l      energy [Ha]    energy [eV]    outer radius [A]
    1    0       -14.129007      -384.4699       1.637919
    2    0        -0.681802       -18.5528       5.168461
    2    1        -0.260543        -7.0897       5.361532


  Species O                   :

  List of atomic basis orbitals and eigenvalues:
    n    l      energy [Ha]    energy [eV]    outer radius [A]
    1    0       -18.898576      -514.2564       1.415765
    2    0        -0.878795       -23.9132       5.048385
    2    1        -0.332075        -9.0362       5.301386

  Assembling full basis from fixed parts.
  | Species H :   atomic orbital   1 s accepted.
  | Species H :    hydro orbital   2 s accepted.
  | Species H :    hydro orbital   1 s accepted.
  | Species H :    hydro orbital   2 s accepted.
  | Species H :    hydro orbital   2 p accepted.
  | Species H :    hydro orbital   2 p accepted.
  | Species H :    hydro orbital   3 d accepted.
  | Species C :   atomic orbital   1 s accepted.
  | Species C :    hydro orbital   2 s accepted.
  | Species C :   atomic orbital   2 s accepted.
  | Species C :    hydro orbital   3 s accepted.
  | Species C :    hydro orbital   3 p accepted.
  | Species C :   atomic orbital   2 p accepted.
  | Species C :    hydro orbital   2 p accepted.
  | Species C :    hydro orbital   3 d accepted.
  | Species C :    hydro orbital   3 d accepted.
  | Species C :    hydro orbital   4 f accepted.
  | Species C :    hydro orbital   5 g accepted.
  | Species N :   atomic orbital   1 s accepted.
  | Species N :    hydro orbital   3 s accepted.
  | Species N :   atomic orbital   2 s accepted.
  | Species N :    hydro orbital   1 s accepted.
  | Species N :    hydro orbital   3 p accepted.
  | Species N :   atomic orbital   2 p accepted.
  | Species N :    hydro orbital   2 p accepted.
  | Species N :    hydro orbital   3 d accepted.
  | Species N :    hydro orbital   3 d accepted.
  | Species N :    hydro orbital   4 f accepted.
  | Species N :    hydro orbital   5 g accepted.
  | Species O :   atomic orbital   1 s accepted.
  | Species O :    hydro orbital   3 s accepted.
  | Species O :   atomic orbital   2 s accepted.
  | Species O :    hydro orbital   1 s accepted.
  | Species O :    hydro orbital   3 p accepted.
  | Species O :   atomic orbital   2 p accepted.
  | Species O :    hydro orbital   2 p accepted.
  | Species O :    hydro orbital   3 d accepted.
  | Species O :    hydro orbital   3 d accepted.
  | Species O :    hydro orbital   4 f accepted.
  | Species O :    hydro orbital   5 g accepted.
 
  Basis size parameters after reduction:
  | Total number of radial functions:       40
  | Total number of basis functions :      840
 
  Testing on-site integration grid accuracy.
  |  Species  Function  <phi|h_atom|phi> (log., in eV)  <phi|h_atom|phi> (rad., in eV)
           1        1                 -6.4869821809                 -6.4870742227
           1        2                 13.5044133542                 13.5041049177
           1        3                 32.7854418792                 32.7779770519
           1        4                 33.7995553101                 33.7152624900 ***
           1        5                 28.8558651799                 28.8558652046
           1        6                 59.6361831893                 59.6362535845
           1        7                 60.2733718049                 60.2733715484
           2        8               -273.2358277112               -273.2358261765
           2        9                -10.7624923123                -10.7625144012
           2       10                 17.4634079027                 17.4634252127
           2       11                 53.0363661832                 53.0366180446
           2       12                 15.0981351967                 15.0981317714
           2       13                  3.8522181899                  3.8522770949
           2       14                 12.1181835661                 12.1206868578
           2       15                 29.4320778347                 29.4320780959
           2       16                 54.8753777694                 54.8752901936
           2       17                 59.3533975461                 59.3533974833
           2       18                 93.4537491195                 93.4537492066
           3       19               -384.4698526889               -384.4698499465
           3       20                 12.5691022037                 12.5690910168
           3       21                -15.7489097511                -15.7489165588
           3       22                 27.0978334940                 27.0985589490
           3       23                 18.5949116966                 18.5949125562
           3       24                  1.2212828291                  1.2212855301
           3       25                 13.4428926797                 13.4434051125
           3       26                 35.9380614500                 35.9380613666
           3       27                 39.9231532098                 39.9231654735
           3       28                 72.9957335806                 72.9957336833
           3       29                116.4231321147                116.4231321431
           4       30               -514.2564144315               -514.2564099626
           4       31                 15.1726678541                 15.1726530877
           4       32                -21.5447785304                -21.5447874973
           4       33                 14.4944558459                 14.4944698284
           4       34                 20.8882174564                 20.8882178906
           4       35                 -2.4850315908                 -2.4850322289
           4       36                 13.8600193195                 13.8599826966
           4       37                 45.8243383616                 45.8243383675
           4       38                 52.1840606465                 52.1840622440
           4       39                 85.4074185510                 85.4074185819
           4       40                142.0983717302                142.0983717339
 * Note: Onsite integrals marked "***" above are less accurate than
 * onsite_accuracy_threshold =    0.03000 eV. Usually, this is harmless.
 * When in doubt, tighten the "radial" and/or "radial_multiplier" flags to check.

  Preparing densities etc. for the partition functions (integrals / Hartree potential).

  Preparations completed.
  max(cpu_time)          :      0.240 s.
  Wall clock time (cpu1) :      0.236 s.
------------------------------------------------------------

------------------------------------------------------------
          Begin self-consistency loop: Initialization.

          Date     :  20170309, Time     :  160612.328
------------------------------------------------------------

  Initializing index lists of integration centers etc. from given atomic structure:
  | Number of centers in hartree potential         :        32
  | Number of centers in hartree multipole         :        32
  | Number of centers in electron density summation:        32
  | Number of centers in basis integrals           :        32
  | Number of centers in integrals                 :        32
  | Number of centers in hamiltonian               :        32
  Using modified Scalapack Eigenvalue solver (ELPA)
  * Using 32 tasks for Scalapack Eigenvalue solver.
  Detailed listing of tasks and assigned k-points:
  (for non-periodic systems, the "k-point" denotes an internal label only)
   Task     0 k-point     1 on eos330
   Task     1 k-point     1 on eos330
   Task     2 k-point     1 on eos330
   Task     3 k-point     1 on eos330
   Task     4 k-point     1 on eos330
   Task     5 k-point     1 on eos330
   Task     6 k-point     1 on eos330
   Task     7 k-point     1 on eos330
   Task     8 k-point     1 on eos330
   Task     9 k-point     1 on eos330
   Task    10 k-point     1 on eos330
   Task    11 k-point     1 on eos330
   Task    12 k-point     1 on eos330
   Task    13 k-point     1 on eos330
   Task    14 k-point     1 on eos330
   Task    15 k-point     1 on eos330
   Task    16 k-point     1 on eos330
   Task    17 k-point     1 on eos330
   Task    18 k-point     1 on eos330
   Task    19 k-point     1 on eos330
   Task    20 k-point     1 on eos330
   Task    21 k-point     1 on eos330
   Task    22 k-point     1 on eos330
   Task    23 k-point     1 on eos330
   Task    24 k-point     1 on eos330
   Task    25 k-point     1 on eos330
   Task    26 k-point     1 on eos330
   Task    27 k-point     1 on eos330
   Task    28 k-point     1 on eos330
   Task    29 k-point     1 on eos330
   Task    30 k-point     1 on eos330
   Task    31 k-point     1 on eos330
  Tasks:    32 split into      8 X      4 BLACS grid
  Calculating blocksize based on n_basis =          840 max_nprow =            8 max_npcol =            4
  Scalapack blocksize set to:           16
  Required Scalapack workspace - INTEGER:            1 REAL:             1
  Partitioning the integration grid into batches with parallel hashing+maxmin method.
  | Number of batches:     5052
  | Maximal batch size:     179
  | Minimal batch size:      35
  | Average batch size:     104.459
  | Standard deviation of batch sizes:      27.748

  Integration load balanced across    32 MPI tasks.
  Work distribution over tasks is as follows:
  Task     0 has      16489 integration points.
  Task     1 has      16490 integration points.
  Task     2 has      16492 integration points.
  Task     3 has      16494 integration points.
  Task     4 has      16539 integration points.
  Task     5 has      16470 integration points.
  Task     6 has      16553 integration points.
  Task     7 has      16560 integration points.
  Task     8 has      16454 integration points.
  Task     9 has      16448 integration points.
  Task    10 has      16450 integration points.
  Task    11 has      16448 integration points.
  Task    12 has      16453 integration points.
  Task    13 has      16450 integration points.
  Task    14 has      16494 integration points.
  Task    15 has      16467 integration points.
  Task    16 has      16558 integration points.
  Task    17 has      16452 integration points.
  Task    18 has      16560 integration points.
  Task    19 has      16523 integration points.
  Task    20 has      16493 integration points.
  Task    21 has      16447 integration points.
  Task    22 has      16457 integration points.
  Task    23 has      16491 integration points.
  Task    24 has      16456 integration points.
  Task    25 has      16487 integration points.
  Task    26 has      16452 integration points.
  Task    27 has      16495 integration points.
  Task    28 has      16564 integration points.
  Task    29 has      16498 integration points.
  Task    30 has      16555 integration points.
  Task    31 has      16489 integration points.
  Initializing partition tables, free-atom densities, potentials, etc. across the integration grid (initialize_grid_storage).
  | initialize_grid_storage: Actual outermost partition radius vs. multipole_radius_free
  | (-- VB: in principle, multipole_radius_free should be larger, hence this output)
  | Species        1: Confinement radius =              6.000000000000000 AA, multipole_radius_free =              6.071692442739658 AA.
  | Species        1: outer_partition_radius set to              6.071692442739658 AA .
  | Species        2: Confinement radius =              6.000000000000000 AA, multipole_radius_free =              6.029870734432609 AA.
  | Species        2: outer_partition_radius set to              6.029870734432609 AA .
  | Species        3: Confinement radius =              6.000000000000000 AA, multipole_radius_free =              6.058726835495003 AA.
  | Species        3: outer_partition_radius set to              6.058726835495003 AA .
  | Species        4: Confinement radius =              6.000000000000000 AA, multipole_radius_free =              6.064445521808699 AA.
  | Species        4: outer_partition_radius set to              6.064445521808699 AA .
  | Original list of interatomic distances with          32 x         32 entries is created.
  | Net number of integration points:   527728
  | of which are non-zero points    :   416812
  Obtaining max. number of non-zero basis functions in each batch (get_n_compute_maxes).
  | Maximal number of non-zero basis functions:      734 in task     0
  | Maximal number of non-zero basis functions:      741 in task     1
  | Maximal number of non-zero basis functions:      748 in task     2
  | Maximal number of non-zero basis functions:      749 in task     3
  | Maximal number of non-zero basis functions:      730 in task     4
  | Maximal number of non-zero basis functions:      732 in task     5
  | Maximal number of non-zero basis functions:      747 in task     6
  | Maximal number of non-zero basis functions:      738 in task     7
  | Maximal number of non-zero basis functions:      725 in task     8
  | Maximal number of non-zero basis functions:      725 in task     9
  | Maximal number of non-zero basis functions:      732 in task    10
  | Maximal number of non-zero basis functions:      739 in task    11
  | Maximal number of non-zero basis functions:      741 in task    12
  | Maximal number of non-zero basis functions:      737 in task    13
  | Maximal number of non-zero basis functions:      749 in task    14
  | Maximal number of non-zero basis functions:      739 in task    15
  | Maximal number of non-zero basis functions:      740 in task    16
  | Maximal number of non-zero basis functions:      744 in task    17
  | Maximal number of non-zero basis functions:      742 in task    18
  | Maximal number of non-zero basis functions:      742 in task    19
  | Maximal number of non-zero basis functions:      734 in task    20
  | Maximal number of non-zero basis functions:      739 in task    21
  | Maximal number of non-zero basis functions:      744 in task    22
  | Maximal number of non-zero basis functions:      745 in task    23
  | Maximal number of non-zero basis functions:      749 in task    24
  | Maximal number of non-zero basis functions:      732 in task    25
  | Maximal number of non-zero basis functions:      726 in task    26
  | Maximal number of non-zero basis functions:      730 in task    27
  | Maximal number of non-zero basis functions:      738 in task    28
  | Maximal number of non-zero basis functions:      742 in task    29
  | Maximal number of non-zero basis functions:      743 in task    30
  | Maximal number of non-zero basis functions:      734 in task    31
  Selecting the method for density update.
  Loop over occupied states selected for charge density update.
  Integrating Hamiltonian matrix: batch-based integration.
  Time summed over all CPUs for integration: real work       19.924 s, elapsed       21.117 s
  Integrating overlap matrix.
  Time summed over all CPUs for integration: real work       11.868 s, elapsed       12.500 s
  Deallocating overlap matrix.

  Updating Kohn-Sham eigenvalues, eigenvectors, occupation numbers, and Fermi level.
  Solving generalized eigenproblem
  Solving real symmetric generalised eigenvalue problem by standard ScaLAPACK.
  Transforming overlap matrix with ScaLAPACK and checking for singularities.
  : Overlap matrix is nonsingular, using Cholesky decomposition
  | Lowest eigenvalue:  0.885687E-04
  Factoring overlap matrix with Cholesky decomposition
  Using Cholesky factor for transformation
  Using 1-stage real ELPA solver
  Determining occupation numbers for Kohn-Sham eigenstates.
  | Chemical potential (Fermi level) in eV                 : -.97187573E+01
  | Error in electron count due to remaining E_F inaccuracy: 0.00000000E+00
  | Maximum occupation number of highest empty state:  0.00E+00

  Writing Kohn-Sham eigenvalues.

  State    Occupation    Eigenvalue [Ha]    Eigenvalue [eV]
      1       2.00000         -18.974161         -516.31319
      2       2.00000         -18.973442         -516.29363
      3       2.00000         -18.972960         -516.28051
      4       2.00000         -14.255360         -387.90808
      5       2.00000         -14.254969         -387.89744
      6       2.00000         -14.254839         -387.89390
      7       2.00000         -10.172054         -276.79569
      8       2.00000         -10.171959         -276.79308
      9       2.00000         -10.171228         -276.77321
     10       2.00000         -10.166710         -276.65025
     11       2.00000         -10.148561         -276.15641
     12       2.00000         -10.147876         -276.13777
     13       2.00000         -10.136330         -275.82357
     14       2.00000         -10.134077         -275.76227
     15       2.00000         -10.133828         -275.75548
     16       2.00000          -1.132158          -30.80758
     17       2.00000          -1.129504          -30.73537
     18       2.00000          -1.124778          -30.60675
     19       2.00000          -1.021908          -27.80753
     20       2.00000          -1.015100          -27.62227
     21       2.00000          -1.007754          -27.42239
     22       2.00000          -0.892936          -24.29801
     23       2.00000          -0.878142          -23.89546
     24       2.00000          -0.842397          -22.92279
     25       2.00000          -0.824069          -22.42406
     26       2.00000          -0.775616          -21.10558
     27       2.00000          -0.742489          -20.20417
     28       2.00000          -0.701713          -19.09459
     29       2.00000          -0.686073          -18.66899
     30       2.00000          -0.681153          -18.53513
     31       2.00000          -0.642214          -17.47553
     32       2.00000          -0.633272          -17.23221
     33       2.00000          -0.613719          -16.70015
     34       2.00000          -0.600851          -16.34999
     35       2.00000          -0.597409          -16.25632
     36       2.00000          -0.596247          -16.22470
     37       2.00000          -0.560940          -15.26395
     38       2.00000          -0.558854          -15.20720
     39       2.00000          -0.556257          -15.13652
     40       2.00000          -0.554390          -15.08573
     41       2.00000          -0.544896          -14.82737
     42       2.00000          -0.541663          -14.73940
     43       2.00000          -0.534239          -14.53739
     44       2.00000          -0.521459          -14.18962
     45       2.00000          -0.517231          -14.07456
     46       2.00000          -0.515085          -14.01617
     47       2.00000          -0.509380          -13.86092
     48       2.00000          -0.505823          -13.76415
     49       2.00000          -0.499304          -13.58675
     50       2.00000          -0.485213          -13.20333
     51       2.00000          -0.482201          -13.12136
     52       2.00000          -0.476645          -12.97018
     53       2.00000          -0.419131          -11.40514
     54       2.00000          -0.415443          -11.30478
     55       2.00000          -0.404467          -11.00611
     56       2.00000          -0.385072          -10.47834
     57       2.00000          -0.378189          -10.29105
     58       2.00000          -0.377552          -10.27372
     59       0.00000          -0.170414           -4.63720
     60       0.00000          -0.159483           -4.33975
     61       0.00000          -0.150347           -4.09115
     62       0.00000          -0.075047           -2.04213
     63       0.00000          -0.063044           -1.71552
     64       0.00000          -0.054770           -1.49037
     65       0.00000          -0.046913           -1.27657
     66       0.00000          -0.043264           -1.17729
     67       0.00000          -0.040206           -1.09407
     68       0.00000          -0.035687           -0.97108
     69       0.00000          -0.029668           -0.80730
     70       0.00000          -0.024600           -0.66940
     71       0.00000          -0.018608           -0.50634
     72       0.00000          -0.010123           -0.27546
     73       0.00000          -0.008716           -0.23717
     74       0.00000          -0.007544           -0.20528
     75       0.00000          -0.007400           -0.20136
     76       0.00000          -0.001114           -0.03031
     77       0.00000           0.002114            0.05754
     78       0.00000           0.012012            0.32686
     79       0.00000           0.015451            0.42045
     80       0.00000           0.017644            0.48013
     81       0.00000           0.021442            0.58347
     82       0.00000           0.027982            0.76142
     83       0.00000           0.036768            1.00050
     84       0.00000           0.039662            1.07925
     85       0.00000           0.043217            1.17598
     86       0.00000           0.048322            1.31490
     87       0.00000           0.049266            1.34060
     88       0.00000           0.052736            1.43503
     89       0.00000           0.058770            1.59922
     90       0.00000           0.063418            1.72568
     91       0.00000           0.069121            1.88089
     92       0.00000           0.079734            2.16969
     93       0.00000           0.083159            2.26287
     94       0.00000           0.085913            2.33782
     95       0.00000           0.095050            2.58645
     96       0.00000           0.104933            2.85539
     97       0.00000           0.106665            2.90251
     98       0.00000           0.110535            3.00780
     99       0.00000           0.117015            3.18415
    100       0.00000           0.120712            3.28473
    101       0.00000           0.126184            3.43364
    102       0.00000           0.130560            3.55271
    103       0.00000           0.137624            3.74494
    104       0.00000           0.141960            3.86294
    105       0.00000           0.145606            3.96215
    106       0.00000           0.152588            4.15214
    107       0.00000           0.155864            4.24128
    108       0.00000           0.158512            4.31334
    109       0.00000           0.164785            4.48404
    110       0.00000           0.169811            4.62081
    111       0.00000           0.172012            4.68070
    112       0.00000           0.178036            4.84461
    113       0.00000           0.183654            4.99747
    114       0.00000           0.189036            5.14394
    115       0.00000           0.197364            5.37055
    116       0.00000           0.199154            5.41925
    117       0.00000           0.202380            5.50704
    118       0.00000           0.206182            5.61050
    119       0.00000           0.208243            5.66657
    120       0.00000           0.212771            5.78980
    121       0.00000           0.214592            5.83935
    122       0.00000           0.219963            5.98550
    123       0.00000           0.225768            6.14346
    124       0.00000           0.231092            6.28834
    125       0.00000           0.239352            6.51310
    126       0.00000           0.248161            6.75280
    127       0.00000           0.253181            6.88940
    128       0.00000           0.261174            7.10692
    129       0.00000           0.262432            7.14113

  Highest occupied state (VBM) at    -10.27371695 eV
  | Occupation number:      2.00000000

  Lowest unoccupied state (CBM) at    -4.63720464 eV
  | Occupation number:      0.00000000

  Overall HOMO-LUMO gap:      5.63651231 eV.
  Calculating total energy contributions from superposition of free atom densities.

  Total energy components:
  | Sum of eigenvalues            :        -437.90258334 Ha      -11915.93556868 eV
  | XC energy correction          :         -98.82327685 Ha       -2689.11818397 eV
  | XC potential correction       :         127.02521488 Ha        3456.53196333 eV
  | Free-atom electrostatic energy:        -333.60266106 Ha       -9077.79028034 eV
  | Hartree energy correction     :           0.00000000 Ha           0.00000000 eV
  | MBD@rsSCS energy              :           0.00000000 Ha           0.00000000 eV
  | Entropy correction            :          -0.00000000 Ha          -0.00000000 eV
  | ---------------------------
  | Total energy                  :        -743.30330637 Ha      -20226.31206966 eV
  | Total energy, T -> 0          :        -743.30330637 Ha      -20226.31206966 eV  <-- do not rely on this value for anything but (periodic) metals
  | Electronic free energy        :        -743.30330637 Ha      -20226.31206966 eV

  Derived energy quantities:
  | Kinetic energy                :         735.15947554 Ha       20004.70715779 eV
  | Electrostatic energy          :       -1379.63950506 Ha      -37541.90104348 eV
  | Energy correction for multipole
  | error in Hartree potential    :           0.00000000 Ha           0.00000000 eV
  | Sum of eigenvalues per atom                           :        -372.37298652 eV
  | Total energy (T->0) per atom                          :        -632.07225218 eV  <-- do not rely on this value for anything but (periodic) metals
  | Electronic free energy per atom                       :        -632.07225218 eV
  Initialize hartree_potential_storage
  Max. number of atoms included in rho_multipole:           32

  End scf initialization - timings             :  max(cpu_time)    wall_clock(cpu1)
  | Time for scf. initialization               :        1.836 s           1.816 s
  | Boundary condition initialization          :        0.004 s           0.000 s
  | Integration                                :        1.076 s           1.071 s
  | Solution of K.-S. eqns.                    :        0.080 s           0.077 s
  | Grid partitioning                          :        0.332 s           0.318 s
  | Preloading free-atom quantities on grid    :        0.032 s           0.028 s
  | Free-atom superposition energy             :        0.040 s           0.038 s
  | Total energy evaluation                    :        0.000 s           0.000 s
------------------------------------------------------------

------------------------------------------------------------
          Begin self-consistency iteration #    1

  Date     :  20170309, Time     :  160614.145
------------------------------------------------------------
  Evaluating new KS density.
  Integration grid: deviation in total charge (<rho> - N_e) =   2.842171E-14
  Pulay mixing of updated and previous charge densities.

  Evaluating partitioned Hartree potential by multipole expansion.
  | Analytical far-field extrapolation by fixed multipoles:
  | Hartree multipole sum: apparent total charge =  -0.513663E-04
  Summing up the Hartree potential.
  Time summed over all CPUs for potential: real work        9.514 s, elapsed        9.820 s
  | RMS charge density error from multipole expansion :   0.106038E-01

  Integrating Hamiltonian matrix: batch-based integration.
  Time summed over all CPUs for integration: real work       19.815 s, elapsed       21.110 s

  Updating Kohn-Sham eigenvalues, eigenvectors, occupation numbers, and Fermi level.
  Solving generalized eigenproblem
  Solving real symmetric generalised eigenvalue problem by standard ScaLAPACK.
  Using Cholesky factor for transformation
  Using 2-stage real ELPA solver
  K-Point:    1, Trafo times: 1-stage=     0.021 s, 2-stage=     0.020 s ==> Using 2-stage solver
  Determining occupation numbers for Kohn-Sham eigenstates.
  | Chemical potential (Fermi level) in eV                 : -.48004067E+01
  | Error in electron count due to remaining E_F inaccuracy: 0.00000000E+00
  | Maximum occupation number of highest empty state:  0.00E+00

  Writing Kohn-Sham eigenvalues.

  State    Occupation    Eigenvalue [Ha]    Eigenvalue [eV]
      1       2.00000         -18.639852         -507.21617
      2       2.00000         -18.630832         -506.97075
      3       2.00000         -18.601486         -506.17219
      4       2.00000         -14.005485         -381.10864
      5       2.00000         -13.989585         -380.67598
      6       2.00000         -13.964346         -379.98918
      7       2.00000         -10.062858         -273.82431
      8       2.00000         -10.059419         -273.73072
      9       2.00000         -10.032463         -272.99722
     10       2.00000          -9.966938         -271.21419
     11       2.00000          -9.951848         -270.80356
     12       2.00000          -9.868977         -268.54854
     13       2.00000          -9.857653         -268.24037
     14       2.00000          -9.839227         -267.73898
     15       2.00000          -9.822893         -267.29452
     16       2.00000          -0.975596          -26.54733
     17       2.00000          -0.964899          -26.25624
     18       2.00000          -0.940670          -25.59693
     19       2.00000          -0.877092          -23.86690
     20       2.00000          -0.866533          -23.57955
     21       2.00000          -0.840656          -22.87541
     22       2.00000          -0.750479          -20.42158
     23       2.00000          -0.720032          -19.59307
     24       2.00000          -0.694356          -18.89438
     25       2.00000          -0.662032          -18.01480
     26       2.00000          -0.629887          -17.14010
     27       2.00000          -0.594687          -16.18225
     28       2.00000          -0.576649          -15.69142
     29       2.00000          -0.557615          -15.17348
     30       2.00000          -0.534916          -14.55579
     31       2.00000          -0.511905          -13.92965
     32       2.00000          -0.490889          -13.35776
     33       2.00000          -0.481302          -13.09690
     34       2.00000          -0.466031          -12.68135
     35       2.00000          -0.454854          -12.37721
     36       2.00000          -0.435130          -11.84049
     37       2.00000          -0.429711          -11.69303
     38       2.00000          -0.412219          -11.21704
     39       2.00000          -0.406568          -11.06327
     40       2.00000          -0.395705          -10.76768
     41       2.00000          -0.387849          -10.55391
     42       2.00000          -0.381259          -10.37460
     43       2.00000          -0.376973          -10.25794
     44       2.00000          -0.376091          -10.23397
     45       2.00000          -0.366744           -9.97960
     46       2.00000          -0.362672           -9.86879
     47       2.00000          -0.360645           -9.81365
     48       2.00000          -0.351540           -9.56590
     49       2.00000          -0.348475           -9.48250
     50       2.00000          -0.346442           -9.42717
     51       2.00000          -0.337988           -9.19712
     52       2.00000          -0.330347           -8.98920
     53       2.00000          -0.257997           -7.02046
     54       2.00000          -0.245798           -6.68849
     55       2.00000          -0.226012           -6.15011
     56       2.00000          -0.222843           -6.06387
     57       2.00000          -0.214075           -5.82528
     58       2.00000          -0.195417           -5.31756
     59       0.00000          -0.060619           -1.64952
     60       0.00000          -0.049552           -1.34837
     61       0.00000          -0.037162           -1.01123
     62       0.00000          -0.026616           -0.72427
     63       0.00000          -0.018926           -0.51499
     64       0.00000          -0.010516           -0.28616
     65       0.00000          -0.003423           -0.09316
     66       0.00000           0.002901            0.07893
     67       0.00000           0.016829            0.45794
     68       0.00000           0.020367            0.55422
     69       0.00000           0.022597            0.61489
     70       0.00000           0.030305            0.82464
     71       0.00000           0.035989            0.97932
     72       0.00000           0.039937            1.08675
     73       0.00000           0.043550            1.18506
     74       0.00000           0.050319            1.36925
     75       0.00000           0.056923            1.54895
     76       0.00000           0.060490            1.64602
     77       0.00000           0.069287            1.88538
     78       0.00000           0.075061            2.04252
     79       0.00000           0.086341            2.34946
     80       0.00000           0.088609            2.41119
     81       0.00000           0.092852            2.52662
     82       0.00000           0.094380            2.56822
     83       0.00000           0.105458            2.86967
     84       0.00000           0.106725            2.90413
     85       0.00000           0.112663            3.06573
     86       0.00000           0.114597            3.11836
     87       0.00000           0.120623            3.28233
     88       0.00000           0.126713            3.44804
     89       0.00000           0.131301            3.57287
     90       0.00000           0.137303            3.73621
     91       0.00000           0.139630            3.79954
     92       0.00000           0.143132            3.89482
     93       0.00000           0.150246            4.08840
     94       0.00000           0.159682            4.34516
     95       0.00000           0.161807            4.40300
     96       0.00000           0.168120            4.57477
     97       0.00000           0.172265            4.68757
     98       0.00000           0.184501            5.02053
     99       0.00000           0.187778            5.10969
    100       0.00000           0.192259            5.23163
    101       0.00000           0.196665            5.35153
    102       0.00000           0.197121            5.36393
    103       0.00000           0.204349            5.56063
    104       0.00000           0.207991            5.65973
    105       0.00000           0.211655            5.75942
    106       0.00000           0.216756            5.89824
    107       0.00000           0.220876            6.01034
    108       0.00000           0.225512            6.13648
    109       0.00000           0.227189            6.18212
    110       0.00000           0.229492            6.24480
    111       0.00000           0.237027            6.44983
    112       0.00000           0.239753            6.52402
    113       0.00000           0.252385            6.86775
    114       0.00000           0.256585            6.98203
    115       0.00000           0.258694            7.03942
    116       0.00000           0.259942            7.07339
    117       0.00000           0.264832            7.20644
    118       0.00000           0.272023            7.40212
    119       0.00000           0.272598            7.41777
    120       0.00000           0.283090            7.70326
    121       0.00000           0.286206            7.78807
    122       0.00000           0.291353            7.92811
    123       0.00000           0.299696            8.15515
    124       0.00000           0.303507            8.25883
    125       0.00000           0.305996            8.32656
    126       0.00000           0.321085            8.73716
    127       0.00000           0.324505            8.83024
    128       0.00000           0.333626            9.07842
    129       0.00000           0.344901            9.38524

  Highest occupied state (VBM) at     -5.31756465 eV
  | Occupation number:      2.00000000

  Lowest unoccupied state (CBM) at    -1.64951738 eV
  | Occupation number:      0.00000000

  Overall HOMO-LUMO gap:      3.66804728 eV.

  Total energy components:
  | Sum of eigenvalues            :        -417.30688460 Ha      -11355.49809138 eV
  | XC energy correction          :        -100.75574251 Ha       -2741.70324999 eV
  | XC potential correction       :         129.53216094 Ha        3524.74943654 eV
  | Free-atom electrostatic energy:        -333.60266106 Ha       -9077.79028034 eV
  | Hartree energy correction     :         -20.59998255 Ha        -560.55404576 eV
  | MBD@rsSCS energy              :           0.00000000 Ha           0.00000000 eV
  | Entropy correction            :          -0.00000000 Ha          -0.00000000 eV
  | ---------------------------
  | Total energy                  :        -742.73310977 Ha      -20210.79623093 eV
  | Total energy, T -> 0          :        -742.73310977 Ha      -20210.79623093 eV  <-- do not rely on this value for anything but (periodic) metals
  | Electronic free energy        :        -742.73310977 Ha      -20210.79623093 eV

  Derived energy quantities:
  | Kinetic energy                :         744.01902032 Ha       20245.78763720 eV
  | Electrostatic energy          :       -1385.99638758 Ha      -37714.88061814 eV
  | Energy correction for multipole
  | error in Hartree potential    :          -0.04067973 Ha          -1.10695172 eV
  | Sum of eigenvalues per atom                           :        -354.85931536 eV
  | Total energy (T->0) per atom                          :        -631.58738222 eV  <-- do not rely on this value for anything but (periodic) metals
  | Electronic free energy per atom                       :        -631.58738222 eV

  Self-consistency convergence accuracy:
  | Change of charge density      :  0.8990E+00
  | Change of sum of eigenvalues  :  0.5604E+03 eV
  | Change of total energy        :  0.1552E+02 eV

  End self-consistency iteration #     1       :  max(cpu_time)    wall_clock(cpu1)
  | Time for this iteration                    :        1.488 s           1.486 s
[...]
   Multipole                     : -0.137892E+00  0.564846E+00  0.151931E+00
   Pulay + GGA                   : -0.348943E+01  0.123370E+02  0.303836E+01
   MBD@rsSCS                     : -0.414934E-02  0.204573E-01 -0.340672E-02
   ----------------------------------------------------------------
   Total forces(  20)            : -0.113919E-01  0.202821E-01 -0.931236E-02
  atom #   21
   Hellmann-Feynman              : -0.266576E-01  0.206483E-01  0.207402E-01
   Ionic forces                  :  0.000000E+00  0.000000E+00  0.000000E+00
   Multipole                     : -0.176748E-01 -0.290764E-01  0.481499E-02
   Pulay + GGA                   :  0.408107E-01  0.126074E-01 -0.341519E-01
   MBD@rsSCS                     : -0.840551E-02  0.383690E-03  0.351624E-02
   ----------------------------------------------------------------
   Total forces(  21)            : -0.119272E-01  0.456306E-02 -0.508042E-02
  atom #   22
   Hellmann-Feynman              :  0.612943E-01 -0.779735E-02 -0.108950E-01
   Ionic forces                  :  0.000000E+00  0.000000E+00  0.000000E+00
   Multipole                     : -0.292808E-02 -0.172790E-01  0.175117E-02
   Pulay + GGA                   : -0.547155E-01  0.241890E-01  0.962553E-02
   MBD@rsSCS                     :  0.559258E-02  0.153896E-02  0.396634E-02
   ----------------------------------------------------------------
   Total forces(  22)            :  0.924335E-02  0.651604E-03  0.444804E-02
  atom #   23
   Hellmann-Feynman              : -0.774110E-02 -0.570894E+00 -0.929669E+00
   Ionic forces                  :  0.000000E+00  0.000000E+00  0.000000E+00
   Multipole                     : -0.503015E-01  0.137347E+00  0.214498E+00
   Pulay + GGA                   :  0.550539E-01  0.416681E+00  0.710720E+00
   MBD@rsSCS                     :  0.806480E-02  0.842228E-02  0.729477E-02
   ----------------------------------------------------------------
   Total forces(  23)            :  0.507611E-02 -0.844356E-02  0.284323E-02
  atom #   24
   Hellmann-Feynman              :  0.492743E-02 -0.855070E-02  0.597536E-01
   Ionic forces                  :  0.000000E+00  0.000000E+00  0.000000E+00
   Multipole                     :  0.677229E-02 -0.344374E-01 -0.147998E-01
   Pulay + GGA                   : -0.131974E-01  0.420537E-01 -0.398185E-01
   MBD@rsSCS                     :  0.599029E-02  0.878720E-02  0.793153E-02
   ----------------------------------------------------------------
   Total forces(  24)            :  0.449264E-02  0.785284E-02  0.130668E-01
  atom #   25
   Hellmann-Feynman              :  0.463094E-01  0.204591E-01  0.546596E-01
   Ionic forces                  :  0.000000E+00  0.000000E+00  0.000000E+00
   Multipole                     :  0.170721E-01  0.503884E-02 -0.312609E-01
   Pulay + GGA                   : -0.606159E-01 -0.269663E-01 -0.128405E-01
   MBD@rsSCS                     :  0.336749E-02  0.294456E-02  0.958079E-02
   ----------------------------------------------------------------
   Total forces(  25)            :  0.613296E-02  0.147627E-02  0.201390E-01
  atom #   26
   Hellmann-Feynman              : -0.405871E-01  0.111658E-02  0.557395E-01
   Ionic forces                  :  0.000000E+00  0.000000E+00  0.000000E+00
   Multipole                     : -0.201126E-01  0.102237E-01 -0.139116E-01
   Pulay + GGA                   :  0.595817E-01 -0.848853E-02 -0.290829E-01
   MBD@rsSCS                     :  0.297525E-02  0.646519E-02  0.103560E-01
   ----------------------------------------------------------------
   Total forces(  26)            :  0.185726E-02  0.931692E-02  0.231010E-01
  atom #   27
   Hellmann-Feynman              : -0.149409E+01  0.596550E+00 -0.121576E+01
   Ionic forces                  :  0.000000E+00  0.000000E+00  0.000000E+00
   Multipole                     :  0.765968E-01 -0.731946E-01 -0.139670E+00
   Pulay + GGA                   :  0.141985E+01 -0.506182E+00  0.134959E+01
   MBD@rsSCS                     :  0.434427E-02  0.162645E-01 -0.238750E-01
   ----------------------------------------------------------------
   Total forces(  27)            :  0.669695E-02  0.334372E-01 -0.297170E-01
  atom #   28
   Hellmann-Feynman              :  0.330472E+00 -0.145719E+01  0.166217E+01
   Ionic forces                  :  0.000000E+00  0.000000E+00  0.000000E+00
   Multipole                     : -0.358259E-01  0.904985E-01 -0.123758E+00
   Pulay + GGA                   : -0.293270E+00  0.135254E+01 -0.153070E+01
   MBD@rsSCS                     :  0.638540E-03  0.297950E-02 -0.106663E-01
   ----------------------------------------------------------------
   Total forces(  28)            :  0.201509E-02 -0.111710E-01 -0.295627E-02
  atom #   29
   Hellmann-Feynman              :  0.144759E-01 -0.228569E-01 -0.313774E-01
   Ionic forces                  :  0.000000E+00  0.000000E+00  0.000000E+00
   Multipole                     :  0.183924E-04 -0.336523E-01  0.433378E-01
   Pulay + GGA                   : -0.108092E-01  0.537428E-01 -0.126396E-01
   MBD@rsSCS                     :  0.450801E-02 -0.571927E-02 -0.596923E-02
   ----------------------------------------------------------------
   Total forces(  29)            :  0.819317E-02 -0.848572E-02 -0.664850E-02
  atom #   30
   Hellmann-Feynman              :  0.173538E-01  0.161066E-01 -0.545191E-01
   Ionic forces                  :  0.000000E+00  0.000000E+00  0.000000E+00
   Multipole                     :  0.297161E-01 -0.129206E-01  0.385359E-02
   Pulay + GGA                   : -0.459172E-01 -0.112652E-02  0.531719E-01
   MBD@rsSCS                     :  0.454847E-03  0.270049E-02 -0.625222E-02
   ----------------------------------------------------------------
   Total forces(  30)            :  0.160761E-02  0.475998E-02 -0.374574E-02
  atom #   31
   Hellmann-Feynman              : -0.254604E-01  0.663719E-02 -0.533377E-01
   Ionic forces                  :  0.000000E+00  0.000000E+00  0.000000E+00
   Multipole                     : -0.299677E-01 -0.199606E-01  0.700905E-02
   Pulay + GGA                   :  0.519914E-01  0.145112E-01  0.473739E-01
   MBD@rsSCS                     : -0.829175E-03  0.310332E-02 -0.698818E-02
   ----------------------------------------------------------------
   Total forces(  31)            : -0.426586E-02  0.429105E-02 -0.594292E-02
  atom #   32
   Hellmann-Feynman              : -0.872191E-02  0.448027E-01 -0.611868E-01
   Ionic forces                  :  0.000000E+00  0.000000E+00  0.000000E+00
   Multipole                     :  0.300480E-02  0.155506E-01  0.487927E-01
   Pulay + GGA                   :  0.584960E-02 -0.614290E-01  0.111053E-01
   MBD@rsSCS                     : -0.531348E-03  0.522638E-02 -0.482200E-02
   ----------------------------------------------------------------
   Total forces(  32)            : -0.398867E-03  0.415071E-02 -0.611081E-02

  Removing unitary transformations (pure translations, rotations) from forces on atoms.
  Atomic forces before filtering:
  | Net force on center of mass :   0.382711E-03  0.684710E-03 -0.374810E-03 eV/A
  | Net torque on center of mass:   0.184678E-02  0.613025E-03  0.843006E-03 eV
  Atomic forces after filtering:
  | Net force on center of mass :   0.949525E-17  0.188163E-16 -0.181194E-16 eV/A
  | Net torque on center of mass:   0.442540E-17 -0.811323E-17  0.885079E-17 eV

  Energy and forces in a compact form:
  | Total energy uncorrected      :         -0.202094935924425E+05 eV
  | Total energy corrected        :         -0.202094935924429E+05 eV  <-- do not rely on this value for anything but (periodic) metals
  | Electronic free energy        :         -0.202094935924433E+05 eV
  Total atomic forces (unitary forces cleaned) [eV/Ang]:
  |   1         -0.262490301312953E-02          0.643538401803305E-02         -0.252423511123586E-03
  |   2         -0.494103746813267E-02         -0.270030905289776E-01          0.344932651208742E-01
  |   3         -0.170513787531778E-01          0.186187842592270E-01          0.109974630695375E-01
  |   4          0.103528246004503E-02         -0.708711154342985E-02          0.473254345638947E-02
  |   5          0.107631394672875E-02         -0.363111434530295E-02          0.939320618994724E-02
  |   6          0.668522104919430E-02         -0.447758267716379E-02          0.240414088264124E-02
  |   7          0.539517078116950E-03         -0.824110798820799E-02          0.105520003872776E-02
  |   8          0.861272982822862E-03         -0.553787954472601E-02         -0.612847370467790E-02
  |   9         -0.568414828554990E-02         -0.160769401508596E-01          0.397955192441886E-02
  |  10          0.190185591283506E-01         -0.806190746233553E-02         -0.895263222806287E-02
  |  11          0.133275953516165E-02         -0.153363602954965E-02          0.973711070579246E-02
  |  12         -0.591786797674209E-02          0.160031800894047E-02         -0.479479081413477E-02
  |  13         -0.984161209691683E-02          0.241121747570829E-02          0.753297726057648E-03
  |  14         -0.912937509180752E-02         -0.129734565905296E-01         -0.111746717744757E-01
  |  15         -0.410484192829779E-02         -0.175097773869068E-01         -0.192320267850338E-01
  |  16         -0.330002495008200E-02         -0.777743835891011E-02         -0.116217142914858E-01
  |  17          0.132715492265699E-01          0.192103071831783E-01         -0.104413293558206E-01
  |  18         -0.323044774933377E-02          0.254576752871718E-02          0.773514597773967E-02
  |  19          0.493415375368410E-02          0.659202412476114E-02         -0.704928778682647E-02
  |  20         -0.114138565741084E-01          0.202661128554120E-01         -0.927983909346065E-02
  |  21         -0.119360925692488E-01          0.453467077084316E-02         -0.506251624269154E-02
  |  22          0.922943110174419E-02          0.634174519304550E-03          0.445698044759543E-02
  |  23          0.506693707591028E-02         -0.847251238133953E-02          0.286341597534410E-02
  |  24          0.448828321761624E-02          0.781933528686467E-02          0.130815502233356E-01
  |  25          0.612250847451309E-02          0.144870327289165E-02          0.201601819334364E-01
  |  26          0.184805321981839E-02          0.928485910794491E-02          0.231286701495805E-01
  |  27          0.667164157210699E-02          0.334313884556649E-01         -0.296972698318100E-01
  |  28          0.198306173520465E-02         -0.111697170472674E-01         -0.293074297202235E-02
  |  29          0.816947088396913E-02         -0.849082411335760E-02         -0.663582535959831E-02
  |  30          0.157274715621652E-02          0.476709246277184E-02         -0.372442344313390E-02
  |  31         -0.429957894575996E-02          0.429400764684908E-02         -0.591566312134058E-02
  |  32         -0.431598195486619E-03          0.414994917175175E-02         -0.607809350571921E-02

  ------------------------------------ 
  Start decomposition of the XC Energy 
  ------------------------------------ 
  Hartree-Fock part   :          0.000000000 Ha              0.000000000 eV
  ------------------------------------ 
  X Energy            :        -96.992859906 Ha          -2639.310004666 eV
  C Energy GGA        :         -3.871162646 Ha           -105.339695220 eV
  Total XC Energy     :       -100.864022552 Ha          -2744.649699886 eV
  LDA X and C from self-consistent density 
  X Energy LDA        :        -88.013589659 Ha          -2394.971629441 eV
  C Energy LDA        :         -7.532799246 Ha           -204.977896648 eV
  ------------------------------------ 
  End decomposition of the XC Energy 
  ------------------------------------ 
   
  ESP charge fitting starts.
  | Calculation :  00000001  of  00000001
  | Full density
  Computing multipole expansion for total density.
  Generating points for esp charges.
  Partitioning the integration grid into batches with parallel hashing+maxmin method.
  | Number of batches:     3914
  | Maximal batch size:     189
  | Minimal batch size:      50
  | Average batch size:     124.109
  | Standard deviation of batch sizes:      15.305

  Integration load balanced across    32 MPI tasks.
  Work distribution over tasks is as follows:
  Initializing partition tables, free-atom densities, potentials, etc. across the integration grid (initialize_grid_storage).
  | Original list of interatomic distances with          32 x         32 entries is created.
  | Net number of integration points:   485764
  | of which are non-zero points    :   485764
  Summing up potential from multipole expanded  density.
  Summing up the Hartree potential.
  Time summed over all CPUs for potential: real work        6.414 s, elapsed        6.663 s
  Fitting esp charges to potential.
  |
  | ESP charges fitted to the electrostatic potential :
  |
  | Atom         1: C, ESP charge:      0.92355105
  |
  | Atom         2: C, ESP charge:     -0.57049727
  |
  | Atom         3: O, ESP charge:      0.49751378
  |
  | Atom         4: H, ESP charge:     -0.27490432
  |
  | Atom         5: H, ESP charge:     -0.23953364
  |
  | Atom         6: H, ESP charge:     -0.27064473
  |
  | Atom         7: N, ESP charge:      0.31053100
  |
  | Atom         8: C, ESP charge:     -0.32855941
  |
  | Atom         9: C, ESP charge:     -0.46365373
  |
  | Atom        10: O, ESP charge:      0.55956098
  |
  | Atom        11: H, ESP charge:     -0.22717435
  |
  | Atom        12: H, ESP charge:      0.00539202
  |
  | Atom        13: C, ESP charge:      0.42642328
  |
  | Atom        14: H, ESP charge:     -0.12902118
  |
  | Atom        15: H, ESP charge:     -0.11673487
  |
  | Atom        16: H, ESP charge:     -0.09448268
  |
  | Atom        17: N, ESP charge:      0.49160343
  |
  | Atom        18: C, ESP charge:     -0.44047788
  |
  | Atom        19: C, ESP charge:     -0.39636894
  |
  | Atom        20: O, ESP charge:      0.50499057
  |
  | Atom        21: H, ESP charge:     -0.24784282
  |
  | Atom        22: H, ESP charge:      0.06554886
  |
  | Atom        23: C, ESP charge:      0.36324198
  |
  | Atom        24: H, ESP charge:     -0.08711735
  |
  | Atom        25: H, ESP charge:     -0.09768149
  |
  | Atom        26: H, ESP charge:     -0.10289152
  |
  | Atom        27: N, ESP charge:      0.31668708
  |
  | Atom        28: C, ESP charge:      0.40317319
  |
  | Atom        29: H, ESP charge:     -0.31201883
  |
  | Atom        30: H, ESP charge:     -0.14761651
  |
  | Atom        31: H, ESP charge:     -0.13932535
  |
  | Atom        32: H, ESP charge:     -0.18167036

  RRMS:       0.00429699

  Done.

------------------------------------------------------------------------------
  Final output of selected total energy values:

  The following output summarizes some interesting total energy values
  at the end of a run (AFTER all relaxation, molecular dynamics, etc.).

  | Total energy of the DFT / Hartree-Fock s.c.f. calculation      :         -20209.493592443 eV
  | Final zero-broadening corrected energy (caution - metals only) :         -20209.493592443 eV
  | For reference only, the value of 1 Hartree used in FHI-aims is :             27.211384500 eV

  Before relying on these values, please be sure to understand exactly which
  total energy value is referred to by a given number. Different objects may
  all carry the same name 'total energy'. Definitions:

  Total energy of the DFT / Hartree-Fock s.c.f. calculation:
  | Note that this energy does not include ANY quantities calculated after the
  | s.c.f. cycle, in particular not ANY RPA, MP2, etc. many-body perturbation terms.

  Final zero-broadening corrected energy:
  | For metallic systems only, a broadening of the occupation numbers at the Fermi
  | level can be extrapolated back to zero broadening by an electron-gas inspired
  | formula. For all systems that are not real metals, this value can be
  | meaningless and should be avoided.

------------------------------------------------------------------------------
  Methods described in the following list of references were used in this FHI-aims run.
  If you publish the results, please make sure to cite these reference if they apply.
  FHI-aims is an academic code, and for our developers (often, Ph.D. students
  and postdocs), scientific credit in the community is essential.
  Thank you for helping us!

  For any use of FHI-aims, please cite:

    Volker Blum, Ralf Gehrke, Felix Hanke, Paula Havu, Ville Havu,
    Xinguo Ren, Karsten Reuter, and Matthias Scheffler
    'Ab initio molecular simulations with numeric atom-centered orbitals'
    Computer Physics Communications 180, 2175-2196 (2009)
    http://dx.doi.org/10.1016/j.cpc.2009.06.022


  The scalable eigensolver library ELPA was used in your run.
  ELPA is essential especially for large systems on hundreds or thousands of CPUs.
  For ELPA, please cite:

    Andreas Marek, Volker Blum, Rainer Johanni, Ville Havu, Bruno Lang,
    Thomas Auckenthaler, Alexander Heinecke, Hans-Joachim Bungartz, and Hermann Lederer,
    'The ELPA Library - Scalable Parallel Eigenvalue Solutions
    for Electronic Structure Theory and Computational Science'
    The Journal of Physics: Condensed Matter 26, 213201 (2014).
    http://dx.doi.org/10.1088/0953-8984/26/21/213201


  For ELPA's efficient two-stage tridiagonalization used in your run, please cite:

    T. Auckenthaler, V. Blum, H.-J. Bungartz, T. Huckle, R. Johanni, L. Kraemer,
    B. Lang, H. Lederer, and P. R. Willems,
    'Parallel solution of partial symmetric eigenvalue problems'
    'from  electronic structure calculations'
    Parallel Computing 37, 783-794 (2011).
    http://dx.doi.org/10.1016/j.parco.2011.05.002


  For the real-space grid partitioning and parallelization used in this calculation, please cite:

    Ville Havu, Volker Blum, Paula Havu, and Matthias Scheffler,
    'Efficient O(N) integration for all-electron electronic structure calculation'
    'using numerically tabulated basis functions'
    Journal of Computational Physics 228, 8367-8379 (2009).
    http://dx.doi.org/10.1016/j.jcp.2009.08.008

  Of course, there are many other important community references, e.g., those cited in the
  above references. Our list is limited to references that describe implementations in the
  FHI-aims code. The reason is purely practical (length of this list) - please credit others as well.

------------------------------------------------------------
          Leaving FHI-aims.
          Date     :  20170309, Time     :  160644.080

          Computational steps:
          | Number of self-consistency cycles          :           14

          Detailed time accounting                     :  max(cpu_time)    wall_clock(cpu1)
          | Total time                                 :       32.614 s          32.806 s
          | Preparation time                           :        0.240 s           0.236 s
          | Grid partitioning                          :        0.332 s           0.318 s
          | Preloading free-atom quantities on grid    :        0.032 s           0.028 s
          | Free-atom superposition energy             :        0.040 s           0.038 s
          | Total time for integrations                :       10.521 s          10.498 s
          | Total time for solution of K.-S. equations :        0.536 s           0.503 s
          | Total time for density & force components  :        9.417 s           9.401 s
          | Total time for mixing                      :        0.124 s           0.106 s
          | Total time for Hartree multipole update    :        0.072 s           0.058 s
          | Total time for Hartree multipole sum       :        6.436 s           6.426 s
          | Total time for total energy evaluation     :        0.024 s           0.023 s

          Have a nice day.
------------------------------------------------------------
