  MPI-parallelism will be employed.
------------------------------------------------------------
          Invoking FHI-aims ...
          Version 150427
          Git rev.: 9dd23e0 BL: Update Version stamp
          Compiled on 2015/11/03 at 22:05:20 on host eos03.

          When using FHI-aims, please cite the following reference:

          Volker Blum, Ralf Gehrke, Felix Hanke, Paula Havu,
          Ville Havu, Xinguo Ren, Karsten Reuter, and Matthias Scheffler,
          'Ab Initio Molecular Simulations with Numeric Atom-Centered Orbitals: FHI-aims',
          Computer Physics Communications 180, 2175-2196 (2009)

          For any questions about FHI-aims, please visit the aimsclub website
          with its forums and wiki. Contributions to both the forums and the
          wiki are warmly encouraged - they are for you, and everyone is welcome there.

------------------------------------------------------------

  Date     :  20170309, Time     :  162510.539
  Time zero on CPU 1             :   0.396024000000000E+00  s.
  Internal wall clock time zero  :           258308710.539  s.

  Using       32 parallel tasks.
  Task        0 on host eos188 reporting.
  Task        1 on host eos188 reporting.
  Task        2 on host eos188 reporting.
  Task        3 on host eos188 reporting.
  Task        4 on host eos188 reporting.
  Task        5 on host eos188 reporting.
  Task        6 on host eos188 reporting.
  Task        7 on host eos188 reporting.
  Task        8 on host eos188 reporting.
  Task        9 on host eos188 reporting.
  Task       10 on host eos188 reporting.
  Task       11 on host eos188 reporting.
  Task       12 on host eos188 reporting.
  Task       13 on host eos188 reporting.
  Task       14 on host eos188 reporting.
  Task       15 on host eos188 reporting.
  Task       16 on host eos188 reporting.
  Task       17 on host eos188 reporting.
  Task       18 on host eos188 reporting.
  Task       19 on host eos188 reporting.
  Task       20 on host eos188 reporting.
  Task       21 on host eos188 reporting.
  Task       22 on host eos188 reporting.
  Task       23 on host eos188 reporting.
  Task       24 on host eos188 reporting.
  Task       25 on host eos188 reporting.
  Task       26 on host eos188 reporting.
  Task       27 on host eos188 reporting.
  Task       28 on host eos188 reporting.
  Task       29 on host eos188 reporting.
  Task       30 on host eos188 reporting.
  Task       31 on host eos188 reporting.

  Performing system and environment tests:
  | Environment variable OMP_NUM_THREADS correctly set to 1.
  | Stacksize not measured: no C compiler
  | Checking for scalapack...
  | Testing pdtran()...
  | All pdtran() tests passed.

  Obtaining array dimensions for all initial allocations:
  
  -----------------------------------------------------------------------
  Parsing control.in (first pass over file, find array dimensions only).
  The contents of control.in will be repeated verbatim below
  unless switched off by setting 'verbatim_writeout .false.' .
  in the first line of control.in .
  -----------------------------------------------------------------------
  
  #########################################################################################
  #
  # Input for System
  #
  #########################################################################################
  #
  #
  #  Physical model
  #
    xc                 pbe
    many_body_dispersion
    spin               none
    charge             0.
  #
  #  SCF convergence
  #
    occupation_type    gaussian 0.05
    mixer              pulay
      n_max_pulay        10
      charge_mix_param   0.5
    sc_accuracy_rho    1E-4
    sc_accuracy_eev    1E-2
    sc_accuracy_etot   1E-5
    sc_accuracy_forces 1E-4
    sc_iter_limit      1000
  #
  #  ESP charge
  #
    output esp
    esp equal_grid_n 80 80 80
  #
  #
  ################################################################################
  #
  #  FHI-aims code project
  # Volker Blum, Fritz Haber Institute Berlin, 2009
  #
  #  Suggested "tight" defaults for H atom (to be pasted into control.in file)
  #
  ################################################################################
    species        H
  #     global species definitions
      nucleus             1
      mass                1.00794
  #
      l_hartree           6
  #
      cut_pot             4.0  2.0  1.0
      basis_dep_cutoff    1e-4
  #
      radial_base         24 7.0
      radial_multiplier   2
      angular_grids       specified
        division   0.1930   50
        division   0.3175  110
        division   0.4293  194
        division   0.5066  302
        division   0.5626  434
  #      division   0.5922  590
  #      division   0.6227  974
  #      division   0.6868 1202
  #      outer_grid  770
        outer_grid  434
  ################################################################################
  #
  #  Definition of "minimal" basis
  #
  ################################################################################
  #     valence basis states
      valence      1  s   1.
  #     ion occupancy
      ion_occ      1  s   0.5
  ################################################################################
  #
  #  Suggested additional basis functions. For production calculations,
  #  uncomment them one after another (the most important basis functions are
  #  listed first).
  #
  #  Basis constructed for dimers: 0.5 A, 0.7 A, 1.0 A, 1.5 A, 2.5 A
  #
  ################################################################################
  #  "First tier" - improvements: -1014.90 meV to -62.69 meV
       hydro 2 s 2.1
       hydro 2 p 3.5
  #  "Second tier" - improvements: -12.89 meV to -1.83 meV
       hydro 1 s 0.85
       hydro 2 p 3.7
       hydro 2 s 1.2
       hydro 3 d 7
  #  "Third tier" - improvements: -0.25 meV to -0.12 meV
  #     hydro 4 f 11.2
  #     hydro 3 p 4.8
  #     hydro 4 d 9
  #     hydro 3 s 3.2
  ################################################################################
  #
  # For methods that use the localized form of the "resolution of identity" for
  # the two-electron Coulomb operator (RI_method LVL), particularly Hartree-Fock and
  # hybrid density functional calculations, the highest accuracy can be obtained by
  # uncommenting the line beginning with "for_aux"  below, thus adding an extra g radial
  # function to the construction of the product basis set for the expansion.
  # See Ref. New J. Phys. 17, 093020 (2015) for more information, particularly Figs. 1 and 6.
  #
  ################################################################################
  #
  # for_aux hydro 5 g 6.0
  ################################################################################
  #
  #  FHI-aims code project
  # Volker Blum, Fritz Haber Institute Berlin, 2009
  #
  #  Suggested "tight" defaults for C atom (to be pasted into control.in file)
  #
  ################################################################################
    species        C
  #     global species definitions
      nucleus             6
      mass                12.0107
  #
      l_hartree           6
  #
      cut_pot             4.0  2.0  1.0
      basis_dep_cutoff    1e-4
  #
      radial_base         34 7.0
      radial_multiplier   2
      angular_grids specified
        division   0.2187   50
        division   0.4416  110
        division   0.6335  194
        division   0.7727  302
        division   0.8772  434
  #      division   0.9334  590
  #      division   0.9924  770
  #      division   1.0230  974
  #      division   1.5020 1202
  #     outer_grid  974
        outer_grid  434
  ################################################################################
  #
  #  Definition of "minimal" basis
  #
  ################################################################################
  #     valence basis states
      valence      2  s   2.
      valence      2  p   2.
  #     ion occupancy
      ion_occ      2  s   1.
      ion_occ      2  p   1.
  ################################################################################
  #
  #  Suggested additional basis functions. For production calculations,
  #  uncomment them one after another (the most important basis functions are
  #  listed first).
  #
  #  Constructed for dimers: 1.0 A, 1.25 A, 1.5 A, 2.0 A, 3.0 A
  #
  ################################################################################
  #  "First tier" - improvements: -1214.57 meV to -155.61 meV
       hydro 2 p 1.7
       hydro 3 d 6
       hydro 2 s 4.9
  #  "Second tier" - improvements: -67.75 meV to -5.23 meV
       hydro 4 f 9.8
       hydro 3 p 5.2
       hydro 3 s 4.3
       hydro 5 g 14.4
       hydro 3 d 6.2
  #  "Third tier" - improvements: -2.43 meV to -0.60 meV
  #     hydro 2 p 5.6
  #     hydro 2 s 1.4
  #     hydro 3 d 4.9
  #     hydro 4 f 11.2
  #  "Fourth tier" - improvements: -0.39 meV to -0.18 meV
  #     hydro 2 p 2.1
  #     hydro 5 g 16.4
  #     hydro 4 d 13.2
  #     hydro 3 s 13.6
  #     hydro 4 f 17.6
  #  Further basis functions - improvements: -0.08 meV and below
  #     hydro 3 s 2
  #     hydro 3 p 6
  #     hydro 4 d 20
  ################################################################################
  #
  # For methods that use the localized form of the "resolution of identity" for
  # the two-electron Coulomb operator (RI_method LVL), particularly Hartree-Fock and
  # hybrid density functional calculations, the highest accuracy can be obtained by
  # uncommenting the line beginning with "for_aux"  below, thus adding an extra g radial
  # function to the construction of the product basis set for the expansion.
  # See Ref. New J. Phys. 17, 093020 (2015) for more information, particularly Figs. 1 and 6.
  #
  ################################################################################
  #
  # for_aux hydro 5 g 6.0
  ################################################################################
  #
  #  FHI-aims code project
  # Volker Blum, Fritz Haber Institute Berlin, 2009
  #
  #  Suggested "tight" defaults for N atom (to be pasted into control.in file)
  #
  ################################################################################
    species        N
  #     global species definitions
      nucleus             7
      mass                14.0067
  #
      l_hartree           6
  #
      cut_pot             4.0  2.0  1.0
      basis_dep_cutoff    1e-4
  #
      radial_base         35 7.0
      radial_multiplier   2
      angular_grids       specified
        division   0.1841   50
        division   0.3514  110
        division   0.5126  194
        division   0.6292  302
        division   0.6939  434
  #      division   0.7396  590
  #      division   0.7632  770
  #      division   0.8122  974
  #      division   1.1604 1202
  #      outer_grid  974
        outer_grid  434
  ################################################################################
  #
  #  Definition of "minimal" basis
  #
  ################################################################################
  #     valence basis states
      valence      2  s   2.
      valence      2  p   3.
  #     ion occupancy
      ion_occ      2  s   1.
      ion_occ      2  p   2.
  ################################################################################
  #
  #  Suggested additional basis functions. For production calculations,
  #  uncomment them one after another (the most important basis functions are
  #  listed first).
  #
  #  Constructed for dimers: 1.0 A, 1.1 A, 1.5 A, 2.0 A, 3.0 A
  #
  ################################################################################
  #  "First tier" - improvements: -1193.42 meV to -220.60 meV
       hydro 2 p 1.8
       hydro 3 d 6.8
       hydro 3 s 5.8
  #  "Second tier" - improvements: -80.21 meV to -6.86 meV
       hydro 4 f 10.8
       hydro 3 p 5.8
       hydro 1 s 0.8
       hydro 5 g 16
       hydro 3 d 4.9
  #  "Third tier" - improvements: -4.29 meV to -0.53 meV
  #     hydro 3 s 16
  #     ionic 2 p auto
  #     hydro 3 d 6.6
  #     hydro 4 f 11.6
  #  "Fourth tier" - improvements: -0.75 meV to -0.25 meV
  #     hydro 2 p 4.5
  #     hydro 2 s 2.4
  #     hydro 5 g 14.4
  #     hydro 4 d 14.4
  #     hydro 4 f 16.8
  # Further basis functions - -0.21 meV and below
  #     hydro 3 p 14.8
  #     hydro 3 s 4.4
  #     hydro 3 d 19.6
  #     hydro 5 g 12.8
  ################################################################################
  #
  # For methods that use the localized form of the "resolution of identity" for
  # the two-electron Coulomb operator (RI_method LVL), particularly Hartree-Fock and
  # hybrid density functional calculations, the highest accuracy can be obtained by
  # uncommenting the line beginning with "for_aux"  below, thus adding an extra g radial
  # function to the construction of the product basis set for the expansion.
  # See Ref. New J. Phys. 17, 093020 (2015) for more information, particularly Figs. 1 and 6.
  #
  ################################################################################
  #
  # for_aux hydro 5 g 6.0
  ################################################################################
  #
  #  FHI-aims code project
  # Volker Blum, Fritz Haber Institute Berlin, 2009
  #
  #  Suggested "tight" defaults for O atom (to be pasted into control.in file)
  #
  ################################################################################
    species        O
  #     global species definitions
      nucleus             8
      mass                15.9994
  #
      l_hartree           6
  #
      cut_pot             4.0  2.0  1.0
      basis_dep_cutoff    1e-4
  #
      radial_base         36 7.0
      radial_multiplier   2
       angular_grids specified
        division   0.1817   50
        division   0.3417  110
        division   0.4949  194
        division   0.6251  302
        division   0.8014  434
  #      division   0.8507  590
  #      division   0.8762  770
  #      division   0.9023  974
  #      division   1.2339 1202
  #      outer_grid 974
        outer_grid  434
  ################################################################################
  #
  #  Definition of "minimal" basis
  #
  ################################################################################
  #     valence basis states
      valence      2  s   2.
      valence      2  p   4.
  #     ion occupancy
      ion_occ      2  s   1.
      ion_occ      2  p   3.
  ################################################################################
  #
  #  Suggested additional basis functions. For production calculations,
  #  uncomment them one after another (the most important basis functions are
  #  listed first).
  #
  #  Constructed for dimers: 1.0 A, 1.208 A, 1.5 A, 2.0 A, 3.0 A
  #
  ################################################################################
  #  "First tier" - improvements: -699.05 meV to -159.38 meV
       hydro 2 p 1.8
       hydro 3 d 7.6
       hydro 3 s 6.4
  #  "Second tier" - improvements: -49.91 meV to -5.39 meV
       hydro 4 f 11.6
       hydro 3 p 6.2
       hydro 3 d 5.6
       hydro 5 g 17.6
       hydro 1 s 0.75
  #  "Third tier" - improvements: -2.83 meV to -0.50 meV
  #     ionic 2 p auto
  #     hydro 4 f 10.8
  #     hydro 4 d 4.7
  #     hydro 2 s 6.8
  #  "Fourth tier" - improvements: -0.40 meV to -0.12 meV
  #     hydro 3 p 5
  #     hydro 3 s 3.3
  #     hydro 5 g 15.6
  #     hydro 4 f 17.6
  #     hydro 4 d 14
  # Further basis functions - -0.08 meV and below
  #     hydro 3 s 2.1
  #     hydro 4 d 11.6
  #     hydro 3 p 16
  #     hydro 2 s 17.2
  ################################################################################
  #
  # For methods that use the localized form of the "resolution of identity" for
  # the two-electron Coulomb operator (RI_method LVL), particularly Hartree-Fock and
  # hybrid density functional calculations, the highest accuracy can be obtained by
  # uncommenting the line beginning with "for_aux"  below, thus adding an extra g radial
  # function to the construction of the product basis set for the expansion.
  # See Ref. New J. Phys. 17, 093020 (2015) for more information, particularly Figs. 1 and 6.
  #
  ################################################################################
  #
  # for_aux hydro 5 g 6.0
  
  -----------------------------------------------------------------------
  Completed first pass over input file control.in .
  -----------------------------------------------------------------------
  
  
  -----------------------------------------------------------------------
  Parsing geometry.in (first pass over file, find array dimensions only).
  The contents of geometry.in will be repeated verbatim below
  unless switched off by setting 'verbatim_writeout .false.' .
  in the first line of geometry.in .
  -----------------------------------------------------------------------
  
  #
  # This is the geometry file that corresponds to the current relaxation step.
  # If you do not want this file to be written, set the "write_restart_geometry" flag to .false.
  #
  atom       1.07254516      2.03103160      1.00717357 C
  atom       0.49374673      1.65251578      2.35744850 C
  atom       0.43239118      2.44764267      3.29490358 O
  atom       1.03088355      1.22267822      0.26680763 H
  atom       2.11728524      2.33666777      1.14607394 H
  atom       0.52648798      2.90029678      0.62057631 H
  atom       0.04272665      0.36707802      2.46327054 N
  atom      -0.47609143     -0.16346607      3.70664649 C
  atom      -0.18477631     -1.66921147      3.72112960 C
  atom      -0.05270694     -2.30203411      2.66233971 O
  atom       0.15782651     -0.30729020      1.71128056 H
  atom       0.05881957      0.34051687      4.52742713 H
  atom      -1.98614557      0.09726476      3.86723820 C
  atom      -2.16967454      1.17726756      3.82543379 H
  atom      -2.35662002     -0.28085974      4.82952618 H
  atom      -2.54691993     -0.39162758      3.06002185 H
  atom      -0.12016760     -2.23009628      4.95122341 N
  atom      -0.04717032     -3.66458563      5.28445514 C
  atom       1.32154545     -4.33981617      5.00007372 C
  atom       1.85076052     -5.02072555      5.87820699 O
  atom      -0.14947457     -1.59365053      5.73951207 H
  atom      -0.12077167     -3.70464880      6.37753382 H
  atom      -1.20593543     -4.47338711      4.68698096 C
  atom      -1.18341125     -4.46687433      3.59168148 H
  atom      -2.16863144     -4.06364887      5.01965336 H
  atom      -1.13317391     -5.51210995      5.03265021 H
  atom       1.82117478     -4.15818930      3.75291809 N
  atom       3.07137042     -4.75239837      3.32215932 C
  atom       1.26670982     -3.59625415      3.10036351 H
  atom       3.78555911     -3.98044237      3.00234310 H
  atom       2.91151417     -5.44971603      2.48723103 H
  atom       3.49540106     -5.30363737      4.16815220 H
  
  -----------------------------------------------------------------------
  Completed first pass over input file geometry.in .
  -----------------------------------------------------------------------
  

  Basic array size parameters:
  | Number of species                 :        4
  | Number of atoms                   :       32
  | Max. basis fn. angular momentum   :        4
  | Max. atomic/ionic basis occupied n:        2
  | Max. number of basis fn. types    :        2
  | Max. radial fns per species/type  :        8
  | Max. logarithmic grid size        :     1301
  | Max. radial integration grid size :       73
  | Max. angular integration grid size:      434
  | Max. angular grid division number :        8
  | Radial grid for Hartree potential :     1301
  | Number of spin channels           :        1

------------------------------------------------------------
          Reading file control.in.
------------------------------------------------------------
  XC: Using PBE gradient-corrected functionals.
  Self-consistent screening and van der Waals energy (TS, TS+SCS,MBD) module
  Spin treatment: No spin polarisation.
  Charge =   0.000000E+00: Neutral system requested explicitly.
  Occupation type: Gaussian broadening, width =   0.500000E-01 eV.
  Using pulay charge density mixing.
  Pulay mixing - number of memorized iterations:   10
  Charge density mixing - mixing parameter:     0.5000
  Convergence accuracy of self-consistent charge density:  0.1000E-03
  Convergence accuracy of sum of eigenvalues:  0.1000E-01
  Convergence accuracy of total energy:  0.1000E-04
  Convergence accuracy of forces:  0.1000E-03
  Maximum number of s.-c. iterations  :  1000
  Fitting ESP-charges to Potential. 
  | Esp charge output options: 
  | ESP Grid method: 3, cubic grid
  | Number of points in x, ,y, z:  0080 0080 0080
  |
 
  Reading configuration options for species H                   .
  | Found nuclear charge :   1.0000
  | Found atomic mass :    1.00794000000000      amu
  | Found l_max for Hartree potential  :   6
  | Found cutoff potl. onset [A], width [A], scale factor :    4.00000    2.00000    1.00000
  | Threshold for basis-dependent cutoff potential is   0.100000E-03
  | Found data for basic radial integration grid :    24 points, outermost radius =    7.000 A
  | Found multiplier for basic radial grid :   2
  | Found angular grid specification: user-specified.
  | Specified grid contains     6 separate shells.
  | Check grid settings after all constraints further below.
  | Found free-atom valence shell :  1 s   1.000
  | No ionic wave fns used. Skipping ion_occ.
  | Found hydrogenic basis function :  2 s   2.100
  | Found hydrogenic basis function :  2 p   3.500
  | Found hydrogenic basis function :  1 s   0.850
  | Found hydrogenic basis function :  2 p   3.700
  | Found hydrogenic basis function :  2 s   1.200
  | Found hydrogenic basis function :  3 d   7.000
  Species H                   : Missing cutoff potential type.
  Defaulting to exp(1/x)/(1-x)^2 type cutoff potential.
  Species H : No 'logarithmic' tag. Using default grid for free atom:
  | Default logarithmic grid data [bohr] : 0.1000E-03 0.1000E+03 0.1012E+01
  Species H : On-site basis accuracy parameter (for Gram-Schmidt orthonormalisation) not specified.
  Using default value basis_acc =  0.1000000E-03.
  Species H                   : Using default innermost maximum threshold i_radial=  2 for radial functions.
  Species H                   : Default cutoff onset for free atom density etc. : 0.40000000E+01 AA.
  Species H                   : Basic radial grid will be enhanced according to radial_multiplier =   2, to contain    49 grid points.
 
  Reading configuration options for species C                   .
  | Found nuclear charge :   6.0000
  | Found atomic mass :    12.0107000000000      amu
  | Found l_max for Hartree potential  :   6
  | Found cutoff potl. onset [A], width [A], scale factor :    4.00000    2.00000    1.00000
  | Threshold for basis-dependent cutoff potential is   0.100000E-03
  | Found data for basic radial integration grid :    34 points, outermost radius =    7.000 A
  | Found multiplier for basic radial grid :   2
  | Found angular grid specification: user-specified.
  | Specified grid contains     6 separate shells.
  | Check grid settings after all constraints further below.
  | Found free-atom valence shell :  2 s   2.000
  | Found free-atom valence shell :  2 p   2.000
  | No ionic wave fns used. Skipping ion_occ.
  | No ionic wave fns used. Skipping ion_occ.
  | Found hydrogenic basis function :  2 p   1.700
  | Found hydrogenic basis function :  3 d   6.000
  | Found hydrogenic basis function :  2 s   4.900
  | Found hydrogenic basis function :  4 f   9.800
  | Found hydrogenic basis function :  3 p   5.200
  | Found hydrogenic basis function :  3 s   4.300
  | Found hydrogenic basis function :  5 g  14.400
  | Found hydrogenic basis function :  3 d   6.200
  Species C                   : Missing cutoff potential type.
  Defaulting to exp(1/x)/(1-x)^2 type cutoff potential.
  Species C : No 'logarithmic' tag. Using default grid for free atom:
  | Default logarithmic grid data [bohr] : 0.1000E-03 0.1000E+03 0.1012E+01
  Species C : On-site basis accuracy parameter (for Gram-Schmidt orthonormalisation) not specified.
  Using default value basis_acc =  0.1000000E-03.
  Species C                   : Using default innermost maximum threshold i_radial=  2 for radial functions.
  Species C                   : Default cutoff onset for free atom density etc. : 0.40000000E+01 AA.
  Species C                   : Basic radial grid will be enhanced according to radial_multiplier =   2, to contain    69 grid points.
 
  Reading configuration options for species N                   .
  | Found nuclear charge :   7.0000
  | Found atomic mass :    14.0067000000000      amu
  | Found l_max for Hartree potential  :   6
  | Found cutoff potl. onset [A], width [A], scale factor :    4.00000    2.00000    1.00000
  | Threshold for basis-dependent cutoff potential is   0.100000E-03
  | Found data for basic radial integration grid :    35 points, outermost radius =    7.000 A
  | Found multiplier for basic radial grid :   2
  | Found angular grid specification: user-specified.
  | Specified grid contains     6 separate shells.
  | Check grid settings after all constraints further below.
  | Found free-atom valence shell :  2 s   2.000
  | Found free-atom valence shell :  2 p   3.000
  | No ionic wave fns used. Skipping ion_occ.
  | No ionic wave fns used. Skipping ion_occ.
  | Found hydrogenic basis function :  2 p   1.800
  | Found hydrogenic basis function :  3 d   6.800
  | Found hydrogenic basis function :  3 s   5.800
  | Found hydrogenic basis function :  4 f  10.800
  | Found hydrogenic basis function :  3 p   5.800
  | Found hydrogenic basis function :  1 s   0.800
  | Found hydrogenic basis function :  5 g  16.000
  | Found hydrogenic basis function :  3 d   4.900
  Species N                   : Missing cutoff potential type.
  Defaulting to exp(1/x)/(1-x)^2 type cutoff potential.
  Species N : No 'logarithmic' tag. Using default grid for free atom:
  | Default logarithmic grid data [bohr] : 0.1000E-03 0.1000E+03 0.1012E+01
  Species N : On-site basis accuracy parameter (for Gram-Schmidt orthonormalisation) not specified.
  Using default value basis_acc =  0.1000000E-03.
  Species N                   : Using default innermost maximum threshold i_radial=  2 for radial functions.
  Species N                   : Default cutoff onset for free atom density etc. : 0.40000000E+01 AA.
  Species N                   : Basic radial grid will be enhanced according to radial_multiplier =   2, to contain    71 grid points.
 
  Reading configuration options for species O                   .
  | Found nuclear charge :   8.0000
  | Found atomic mass :    15.9994000000000      amu
  | Found l_max for Hartree potential  :   6
  | Found cutoff potl. onset [A], width [A], scale factor :    4.00000    2.00000    1.00000
  | Threshold for basis-dependent cutoff potential is   0.100000E-03
  | Found data for basic radial integration grid :    36 points, outermost radius =    7.000 A
  | Found multiplier for basic radial grid :   2
  | Found angular grid specification: user-specified.
  | Specified grid contains     6 separate shells.
  | Check grid settings after all constraints further below.
  | Found free-atom valence shell :  2 s   2.000
  | Found free-atom valence shell :  2 p   4.000
  | No ionic wave fns used. Skipping ion_occ.
  | No ionic wave fns used. Skipping ion_occ.
  | Found hydrogenic basis function :  2 p   1.800
  | Found hydrogenic basis function :  3 d   7.600
  | Found hydrogenic basis function :  3 s   6.400
  | Found hydrogenic basis function :  4 f  11.600
  | Found hydrogenic basis function :  3 p   6.200
  | Found hydrogenic basis function :  3 d   5.600
  | Found hydrogenic basis function :  5 g  17.600
  | Found hydrogenic basis function :  1 s   0.750
  Species O                   : Missing cutoff potential type.
  Defaulting to exp(1/x)/(1-x)^2 type cutoff potential.
  Species O : No 'logarithmic' tag. Using default grid for free atom:
  | Default logarithmic grid data [bohr] : 0.1000E-03 0.1000E+03 0.1012E+01
  Species O : On-site basis accuracy parameter (for Gram-Schmidt orthonormalisation) not specified.
  Using default value basis_acc =  0.1000000E-03.
  Species O                   : Using default innermost maximum threshold i_radial=  2 for radial functions.
  Species O                   : Default cutoff onset for free atom density etc. : 0.40000000E+01 AA.
  Species O                   : Basic radial grid will be enhanced according to radial_multiplier =   2, to contain    73 grid points.
 
  Finished reading input file 'control.in'. Consistency checks are next.
 
  Target number of points in a grid batch is not set. Defaulting to  100
  Method for grid partitioning is not set. Defaulting to parallel hash+maxmin partitioning.
  Batch size limit is not set. Defaulting to    200
  By default, will store active basis functions for each batch.
  If in need of memory, prune_basis_once .false. can be used to disable this option.
  communication_type for Hartree potential was not specified.
  Defaulting to calc_hartree .
  Pulay mixer: Number of initial linear mixing iterations not set.
  Defaulting to    0 iterations.
  Work space size for distributed Hartree potential not set.
  Defaulting to   0.200000E+03 MB.
  Algorithm-dependent basis array size parameters:
  | n_max_pulay                         :       10
  Geometry relaxation not requested: no relaxation will be performed.
  Handling of forces: Unphysical translation and rotation will be removed from forces.
  No accuracy limit for integral partition fn. given. Defaulting to  0.1000E-14.
  No threshold value for u(r) in integrations given. Defaulting to  0.1000E-05.
  No accuracy for occupation numbers given. Defaulting to  0.1000E-07.
  No threshold value for occupation numbers given. Defaulting to  0.0000E+00.
  No accuracy for fermi level given. Defaulting to  0.1000E-19.
  Maximum # of iterations to find E_F not set. Defaulting to  200.
  Preferred method for the eigenvalue solver ('KS_method') not specified in 'control.in'.
  Calling blacs routine to test compilation state
  Since scalapack support is enabled, defaulting to 'elpa'.
  Preferred method for the MBD eigenvalue solver ('mbd_eigensolver') not specified in 'control.in'.
  Calling blacs routine to test compilation state
  Since scalapack support is enabled, defaulting to 'scaLAPACK'.
  Will not use alltoall communication since running on < 1024 CPUs.
  Threshold for basis singularities not set.
  Default threshold for basis singularities:  0.1000E-04
  partition_type (choice of integration weights) for integrals was not specified.
  | Using a version of the partition function of Stratmann and coworkers ('stratmann_smoother').
  | At each grid point, the set of atoms used to build the partition table is smoothly restricted to
  | only those atoms whose free-atom density would be non-zero at that grid point.
  Partitioning for Hartree potential was not defined. Using partition_type for integrals.
  | Adjusted default value of keyword multip_moments_threshold to:       0.10000000E-11
  | This value may affect high angular momentum components of the Hartree potential in periodic systems.
  No q(lm)/r^(l+1) cutoff set for long-range Hartree potential.
  | Using default value of  0.100000E-09 .
  | Verify using the multipole_threshold keyword.
  Defaulting to new monopole extrapolation.
  Density update method: automatic selection selected.
------------------------------------------------------------


------------------------------------------------------------
          Reading geometry description geometry.in.
------------------------------------------------------------
 * Warning! You did not set the 'relativistic' flag in input file 'control.in'.
 * Since you are not attempting to treat any elements beyond Ca(Z=20), FHI-aims
 * will default to 'relativistic none'.
 * You must ensure that this is really what you want!!
 * For example, DO NOT compute total-energy differences between results from
 * different settings of the 'relativistic' flag.
  Input structure read successfully.
  The structure contains       32 atoms,  and a total of        116.000 electrons.

  Input geometry:
  | No unit cell requested.
  | Atomic structure:
  |       Atom                x [A]            y [A]            z [A]
  |    1: Species C              1.072545         2.031032         1.007174
  |    2: Species C              0.493747         1.652516         2.357448
  |    3: Species O              0.432391         2.447643         3.294904
  |    4: Species H              1.030884         1.222678         0.266808
  |    5: Species H              2.117285         2.336668         1.146074
  |    6: Species H              0.526488         2.900297         0.620576
  |    7: Species N              0.042727         0.367078         2.463271
  |    8: Species C             -0.476091        -0.163466         3.706646
  |    9: Species C             -0.184776        -1.669211         3.721130
  |   10: Species O             -0.052707        -2.302034         2.662340
  |   11: Species H              0.157827        -0.307290         1.711281
  |   12: Species H              0.058820         0.340517         4.527427
  |   13: Species C             -1.986146         0.097265         3.867238
  |   14: Species H             -2.169675         1.177268         3.825434
  |   15: Species H             -2.356620        -0.280860         4.829526
  |   16: Species H             -2.546920        -0.391628         3.060022
  |   17: Species N             -0.120168        -2.230096         4.951223
  |   18: Species C             -0.047170        -3.664586         5.284455
  |   19: Species C              1.321545        -4.339816         5.000074
  |   20: Species O              1.850761        -5.020726         5.878207
  |   21: Species H             -0.149475        -1.593651         5.739512
  |   22: Species H             -0.120772        -3.704649         6.377534
  |   23: Species C             -1.205935        -4.473387         4.686981
  |   24: Species H             -1.183411        -4.466874         3.591681
  |   25: Species H             -2.168631        -4.063649         5.019653
  |   26: Species H             -1.133174        -5.512110         5.032650
  |   27: Species N              1.821175        -4.158189         3.752918
  |   28: Species C              3.071370        -4.752398         3.322159
  |   29: Species H              1.266710        -3.596254         3.100364
  |   30: Species H              3.785559        -3.980442         3.002343
  |   31: Species H              2.911514        -5.449716         2.487231
  |   32: Species H              3.495401        -5.303637         4.168152
  |

  | The smallest distance between any two atoms is         1.01356850 AA.
  |
  | The first atom of this pair is atom number                     17 .
  | The second atom of this pair is atom number                    21 .

  Number of empty states per atom not set in control.in - providing a guess from actual geometry.
  | Total number of empty states used during s.c.f. cycle:       71
  If you use a very high smearing, use empty_states (per atom!) in control.in to increase this value.

  Structure-dependent array size parameters: 
  | Maximum number of distinct radial functions  :       40
  | Maximum number of basis functions            :      840
  | Number of Kohn-Sham states (occupied + empty):      129
------------------------------------------------------------

------------------------------------------------------------
          Preparing all fixed parts of the calculation.
------------------------------------------------------------
  Determining machine precision:
    2.225073858507201E-308
  Setting up grids for atomic and cluster calculations.

  Creating wave function, potential, and density for free atoms.

  Species: H

  List of occupied orbitals and eigenvalues:
    n    l              occ      energy [Ha]    energy [eV]
    1    0           1.0000        -0.238382        -6.4867


  Species: C

  List of occupied orbitals and eigenvalues:
    n    l              occ      energy [Ha]    energy [eV]
    1    0           2.0000       -10.041232      -273.2358
    2    0           2.0000        -0.504327       -13.7234
    2    1           2.0000        -0.193750        -5.2722


  Species: N

  List of occupied orbitals and eigenvalues:
    n    l              occ      energy [Ha]    energy [eV]
    1    0           2.0000       -14.129007      -384.4699
    2    0           2.0000        -0.681802       -18.5528
    2    1           3.0000        -0.260543        -7.0897


  Species: O

  List of occupied orbitals and eigenvalues:
    n    l              occ      energy [Ha]    energy [eV]
    1    0           2.0000       -18.898576      -514.2564
    2    0           2.0000        -0.878795       -23.9132
    2    1           4.0000        -0.332075        -9.0362

  Creating fixed part of basis set: Ionic, confined, hydrogenic.
 
  H                    hydrogenic:
 
  List of hydrogenic basis orbitals: 
    n    l      effective z      eigenvalue [eV]  inner max. [A]     outer max. [A]     outer radius [A]   
    2    0         2.100000       -14.9965           0.193243           1.317208           5.373006
    2    1         3.500000       -41.6672           0.602369           0.602369           4.056063
    1    0         0.850000        -9.8292           0.624871           0.624871           5.373006
    2    1         3.700000       -46.5653           0.573622           0.573622           3.910002
    2    0         1.200000        -4.5995           0.334980           2.228188           5.505995
    3    2         7.000000       -74.0753           0.680699           0.680699           3.769201
 
 
  C                    hydrogenic:
 
  List of hydrogenic basis orbitals: 
    n    l      effective z      eigenvalue [eV]  inner max. [A]     outer max. [A]     outer radius [A]   
    2    1         1.700000        -9.8152           1.245706           1.245706           5.401630
    3    2         6.000000       -54.4226           0.792453           0.792453           4.178599
    2    0         4.900000       -81.6681           0.082559           0.562749           3.353238
    4    3         9.800000       -81.6681           0.863254           0.863254           4.028125
    3    1         5.200000       -40.8774           0.305389           1.215618           4.898362
    3    0         4.300000       -27.9508           0.091041           1.610311           5.401630
    5    4        14.400000      -112.8510           0.917666           0.917666           3.883070
    3    2         6.200000       -58.1113           0.763917           0.763917           4.077671
 
 
  N                    hydrogenic:
 
  List of hydrogenic basis orbitals: 
    n    l      effective z      eigenvalue [eV]  inner max. [A]     outer max. [A]     outer radius [A]   
    2    1         1.800000       -11.0118           1.177451           1.177451           5.427479
    3    2         6.800000       -69.9029           0.704619           0.704619           3.854246
    3    0         5.800000       -50.8549           0.067388           1.191934           4.629968
    4    3        10.800000       -99.1854           0.786571           0.786571           3.761152
    3    1         5.800000       -50.8549           0.274880           1.094176           4.518138
    1    0         0.800000        -8.7059           0.662839           0.662839           5.361532
    5    4        16.000000      -139.3222           0.825990           0.825990           3.625711
    3    2         4.900000       -36.2967           0.968267           0.968267           4.862000
 
 
  O                    hydrogenic:
 
  List of hydrogenic basis orbitals: 
    n    l      effective z      eigenvalue [eV]  inner max. [A]     outer max. [A]     outer radius [A]   
    2    1         1.800000       -11.0118           1.178562           1.178562           5.432602
    3    2         7.600000       -87.3182           0.624125           0.624125           3.541477
    3    0         6.400000       -61.9209           0.061167           1.081902           4.306578
    4    3        11.600000      -114.4238           0.731631           0.731631           3.585037
    3    1         6.200000       -58.1113           0.255680           1.030270           4.306578
    3    2         5.600000       -47.4081           0.847233           0.847233           4.413171
    5    4        17.600000      -168.5799           0.749740           0.749740           3.372465
    1    0         0.750000        -7.6499           0.705284           0.705284           5.366593
 

  Adding cutoff potential to free-atom effective potential.
  Creating atomic-like basis functions for current effective potential.

  Species H                   :

  List of atomic basis orbitals and eigenvalues:
    n    l      energy [Ha]    energy [eV]    outer radius [A]
    1    0        -0.238382        -6.4867       5.373006


  Species C                   :

  List of atomic basis orbitals and eigenvalues:
    n    l      energy [Ha]    energy [eV]    outer radius [A]
    1    0       -10.041232      -273.2358       1.934409
    2    0        -0.504327       -13.7234       5.271162
    2    1        -0.193750        -5.2722       5.401630


  Species N                   :

  List of atomic basis orbitals and eigenvalues:
    n    l      energy [Ha]    energy [eV]    outer radius [A]
    1    0       -14.129007      -384.4699       1.637919
    2    0        -0.681802       -18.5528       5.168461
    2    1        -0.260543        -7.0897       5.361532


  Species O                   :

  List of atomic basis orbitals and eigenvalues:
    n    l      energy [Ha]    energy [eV]    outer radius [A]
    1    0       -18.898576      -514.2564       1.415765
    2    0        -0.878795       -23.9132       5.048385
    2    1        -0.332075        -9.0362       5.301386

  Assembling full basis from fixed parts.
  | Species H :   atomic orbital   1 s accepted.
  | Species H :    hydro orbital   2 s accepted.
  | Species H :    hydro orbital   1 s accepted.
  | Species H :    hydro orbital   2 s accepted.
  | Species H :    hydro orbital   2 p accepted.
  | Species H :    hydro orbital   2 p accepted.
  | Species H :    hydro orbital   3 d accepted.
  | Species C :   atomic orbital   1 s accepted.
  | Species C :    hydro orbital   2 s accepted.
  | Species C :   atomic orbital   2 s accepted.
  | Species C :    hydro orbital   3 s accepted.
  | Species C :    hydro orbital   3 p accepted.
  | Species C :   atomic orbital   2 p accepted.
  | Species C :    hydro orbital   2 p accepted.
  | Species C :    hydro orbital   3 d accepted.
  | Species C :    hydro orbital   3 d accepted.
  | Species C :    hydro orbital   4 f accepted.
  | Species C :    hydro orbital   5 g accepted.
  | Species N :   atomic orbital   1 s accepted.
  | Species N :    hydro orbital   3 s accepted.
  | Species N :   atomic orbital   2 s accepted.
  | Species N :    hydro orbital   1 s accepted.
  | Species N :    hydro orbital   3 p accepted.
  | Species N :   atomic orbital   2 p accepted.
  | Species N :    hydro orbital   2 p accepted.
  | Species N :    hydro orbital   3 d accepted.
  | Species N :    hydro orbital   3 d accepted.
  | Species N :    hydro orbital   4 f accepted.
  | Species N :    hydro orbital   5 g accepted.
  | Species O :   atomic orbital   1 s accepted.
  | Species O :    hydro orbital   3 s accepted.
  | Species O :   atomic orbital   2 s accepted.
  | Species O :    hydro orbital   1 s accepted.
  | Species O :    hydro orbital   3 p accepted.
  | Species O :   atomic orbital   2 p accepted.
  | Species O :    hydro orbital   2 p accepted.
  | Species O :    hydro orbital   3 d accepted.
  | Species O :    hydro orbital   3 d accepted.
  | Species O :    hydro orbital   4 f accepted.
  | Species O :    hydro orbital   5 g accepted.
 
  Basis size parameters after reduction:
  | Total number of radial functions:       40
  | Total number of basis functions :      840
 
  Testing on-site integration grid accuracy.
  |  Species  Function  <phi|h_atom|phi> (log., in eV)  <phi|h_atom|phi> (rad., in eV)
           1        1                 -6.4869821809                 -6.4870742227
           1        2                 13.5044133542                 13.5041049177
           1        3                 32.7854418792                 32.7779770519
           1        4                 33.7995553101                 33.7152624900 ***
           1        5                 28.8558651799                 28.8558652046
           1        6                 59.6361831893                 59.6362535845
           1        7                 60.2733718049                 60.2733715484
           2        8               -273.2358277112               -273.2358261765
           2        9                -10.7624923123                -10.7625144012
           2       10                 17.4634079027                 17.4634252127
           2       11                 53.0363661832                 53.0366180446
           2       12                 15.0981351967                 15.0981317714
           2       13                  3.8522181899                  3.8522770949
           2       14                 12.1181835661                 12.1206868578
           2       15                 29.4320778347                 29.4320780959
           2       16                 54.8753777694                 54.8752901936
           2       17                 59.3533975461                 59.3533974833
           2       18                 93.4537491195                 93.4537492066
           3       19               -384.4698526889               -384.4698499465
           3       20                 12.5691022037                 12.5690910168
           3       21                -15.7489097511                -15.7489165588
           3       22                 27.0978334940                 27.0985589490
           3       23                 18.5949116966                 18.5949125562
           3       24                  1.2212828291                  1.2212855301
           3       25                 13.4428926797                 13.4434051125
           3       26                 35.9380614500                 35.9380613666
           3       27                 39.9231532098                 39.9231654735
           3       28                 72.9957335806                 72.9957336833
           3       29                116.4231321147                116.4231321431
           4       30               -514.2564144315               -514.2564099626
           4       31                 15.1726678541                 15.1726530877
           4       32                -21.5447785304                -21.5447874973
           4       33                 14.4944558459                 14.4944698284
           4       34                 20.8882174564                 20.8882178906
           4       35                 -2.4850315908                 -2.4850322289
           4       36                 13.8600193195                 13.8599826966
           4       37                 45.8243383616                 45.8243383675
           4       38                 52.1840606465                 52.1840622440
           4       39                 85.4074185510                 85.4074185819
           4       40                142.0983717302                142.0983717339
 * Note: Onsite integrals marked "***" above are less accurate than
 * onsite_accuracy_threshold =    0.03000 eV. Usually, this is harmless.
 * When in doubt, tighten the "radial" and/or "radial_multiplier" flags to check.

  Preparing densities etc. for the partition functions (integrals / Hartree potential).

  Preparations completed.
  max(cpu_time)          :      0.240 s.
  Wall clock time (cpu1) :      0.240 s.
------------------------------------------------------------

------------------------------------------------------------
          Begin self-consistency loop: Initialization.

          Date     :  20170309, Time     :  162511.569
------------------------------------------------------------

  Initializing index lists of integration centers etc. from given atomic structure:
  | Number of centers in hartree potential         :        32
  | Number of centers in hartree multipole         :        32
  | Number of centers in electron density summation:        32
  | Number of centers in basis integrals           :        32
  | Number of centers in integrals                 :        32
  | Number of centers in hamiltonian               :        32
  Using modified Scalapack Eigenvalue solver (ELPA)
  * Using 32 tasks for Scalapack Eigenvalue solver.
  Detailed listing of tasks and assigned k-points:
  (for non-periodic systems, the "k-point" denotes an internal label only)
   Task     0 k-point     1 on eos188
   Task     1 k-point     1 on eos188
   Task     2 k-point     1 on eos188
   Task     3 k-point     1 on eos188
   Task     4 k-point     1 on eos188
   Task     5 k-point     1 on eos188
   Task     6 k-point     1 on eos188
   Task     7 k-point     1 on eos188
   Task     8 k-point     1 on eos188
   Task     9 k-point     1 on eos188
   Task    10 k-point     1 on eos188
   Task    11 k-point     1 on eos188
   Task    12 k-point     1 on eos188
   Task    13 k-point     1 on eos188
   Task    14 k-point     1 on eos188
   Task    15 k-point     1 on eos188
   Task    16 k-point     1 on eos188
   Task    17 k-point     1 on eos188
   Task    18 k-point     1 on eos188
   Task    19 k-point     1 on eos188
   Task    20 k-point     1 on eos188
   Task    21 k-point     1 on eos188
   Task    22 k-point     1 on eos188
   Task    23 k-point     1 on eos188
   Task    24 k-point     1 on eos188
   Task    25 k-point     1 on eos188
   Task    26 k-point     1 on eos188
   Task    27 k-point     1 on eos188
   Task    28 k-point     1 on eos188
   Task    29 k-point     1 on eos188
   Task    30 k-point     1 on eos188
   Task    31 k-point     1 on eos188
  Tasks:    32 split into      8 X      4 BLACS grid
  Calculating blocksize based on n_basis =          840 max_nprow =            8 max_npcol =            4
  Scalapack blocksize set to:           16
  Required Scalapack workspace - INTEGER:            1 REAL:             1
  Partitioning the integration grid into batches with parallel hashing+maxmin method.
  | Number of batches:     4944
  | Maximal batch size:     199
  | Minimal batch size:      32
  | Average batch size:     106.741
  | Standard deviation of batch sizes:      33.264

  Integration load balanced across    32 MPI tasks.
  Work distribution over tasks is as follows:
  Task     0 has      16421 integration points.
  Task     1 has      16431 integration points.
  Task     2 has      16545 integration points.
  Task     3 has      16539 integration points.
  Task     4 has      16606 integration points.
  Task     5 has      16430 integration points.
  Task     6 has      16484 integration points.
  Task     7 has      16418 integration points.
  Task     8 has      16514 integration points.
  Task     9 has      16525 integration points.
  Task    10 has      16599 integration points.
  Task    11 has      16510 integration points.
  Task    12 has      16533 integration points.
  Task    13 has      16506 integration points.
  Task    14 has      16606 integration points.
  Task    15 has      16425 integration points.
  Task    16 has      16425 integration points.
  Task    17 has      16544 integration points.
  Task    18 has      16434 integration points.
  Task    19 has      16532 integration points.
  Task    20 has      16442 integration points.
  Task    21 has      16443 integration points.
  Task    22 has      16449 integration points.
  Task    23 has      16502 integration points.
  Task    24 has      16437 integration points.
  Task    25 has      16450 integration points.
  Task    26 has      16549 integration points.
  Task    27 has      16609 integration points.
  Task    28 has      16433 integration points.
  Task    29 has      16538 integration points.
  Task    30 has      16429 integration points.
  Task    31 has      16420 integration points.
  Initializing partition tables, free-atom densities, potentials, etc. across the integration grid (initialize_grid_storage).
  | initialize_grid_storage: Actual outermost partition radius vs. multipole_radius_free
  | (-- VB: in principle, multipole_radius_free should be larger, hence this output)
  | Species        1: Confinement radius =              6.000000000000000 AA, multipole_radius_free =              6.071692442739658 AA.
  | Species        1: outer_partition_radius set to              6.071692442739658 AA .
  | Species        2: Confinement radius =              6.000000000000000 AA, multipole_radius_free =              6.029870734432609 AA.
  | Species        2: outer_partition_radius set to              6.029870734432609 AA .
  | Species        3: Confinement radius =              6.000000000000000 AA, multipole_radius_free =              6.058726835495003 AA.
  | Species        3: outer_partition_radius set to              6.058726835495003 AA .
  | Species        4: Confinement radius =              6.000000000000000 AA, multipole_radius_free =              6.064445521808699 AA.
  | Species        4: outer_partition_radius set to              6.064445521808699 AA .
  | Original list of interatomic distances with          32 x         32 entries is created.
  | Net number of integration points:   527728
  | of which are non-zero points    :   417311
  Obtaining max. number of non-zero basis functions in each batch (get_n_compute_maxes).
  | Maximal number of non-zero basis functions:      743 in task     0
  | Maximal number of non-zero basis functions:      717 in task     1
  | Maximal number of non-zero basis functions:      730 in task     2
  | Maximal number of non-zero basis functions:      709 in task     3
  | Maximal number of non-zero basis functions:      733 in task     4
  | Maximal number of non-zero basis functions:      723 in task     5
  | Maximal number of non-zero basis functions:      712 in task     6
  | Maximal number of non-zero basis functions:      718 in task     7
  | Maximal number of non-zero basis functions:      725 in task     8
  | Maximal number of non-zero basis functions:      698 in task     9
  | Maximal number of non-zero basis functions:      745 in task    10
  | Maximal number of non-zero basis functions:      733 in task    11
  | Maximal number of non-zero basis functions:      723 in task    12
  | Maximal number of non-zero basis functions:      720 in task    13
  | Maximal number of non-zero basis functions:      734 in task    14
  | Maximal number of non-zero basis functions:      733 in task    15
  | Maximal number of non-zero basis functions:      725 in task    16
  | Maximal number of non-zero basis functions:      710 in task    17
  | Maximal number of non-zero basis functions:      718 in task    18
  | Maximal number of non-zero basis functions:      721 in task    19
  | Maximal number of non-zero basis functions:      696 in task    20
  | Maximal number of non-zero basis functions:      706 in task    21
  | Maximal number of non-zero basis functions:      696 in task    22
  | Maximal number of non-zero basis functions:      709 in task    23
  | Maximal number of non-zero basis functions:      716 in task    24
  | Maximal number of non-zero basis functions:      716 in task    25
  | Maximal number of non-zero basis functions:      698 in task    26
  | Maximal number of non-zero basis functions:      735 in task    27
  | Maximal number of non-zero basis functions:      697 in task    28
  | Maximal number of non-zero basis functions:      714 in task    29
  | Maximal number of non-zero basis functions:      705 in task    30
  | Maximal number of non-zero basis functions:      741 in task    31
  Selecting the method for density update.
  Loop over occupied states selected for charge density update.
  Integrating Hamiltonian matrix: batch-based integration.
  Time summed over all CPUs for integration: real work       19.220 s, elapsed       19.961 s
  Integrating overlap matrix.
  Time summed over all CPUs for integration: real work       11.424 s, elapsed       11.823 s
  Deallocating overlap matrix.

  Updating Kohn-Sham eigenvalues, eigenvectors, occupation numbers, and Fermi level.
  Solving generalized eigenproblem
  Solving real symmetric generalised eigenvalue problem by standard ScaLAPACK.
  Transforming overlap matrix with ScaLAPACK and checking for singularities.
  : Overlap matrix is nonsingular, using Cholesky decomposition
  | Lowest eigenvalue:  0.866955E-04
  Factoring overlap matrix with Cholesky decomposition
  Using Cholesky factor for transformation
  Using 1-stage real ELPA solver
  Determining occupation numbers for Kohn-Sham eigenstates.
  | Chemical potential (Fermi level) in eV                 : -.93506147E+01
  | Error in electron count due to remaining E_F inaccuracy: 0.00000000E+00
  | Maximum occupation number of highest empty state:  0.00E+00

  Writing Kohn-Sham eigenvalues.

  State    Occupation    Eigenvalue [Ha]    Eigenvalue [eV]
      1       2.00000         -18.973694         -516.30047
      2       2.00000         -18.973653         -516.29937
      3       2.00000         -18.973600         -516.29793
      4       2.00000         -14.255933         -387.92369
      5       2.00000         -14.255753         -387.91877
      6       2.00000         -14.255233         -387.90462
      7       2.00000         -10.170891         -276.76403
      8       2.00000         -10.170770         -276.76072
      9       2.00000         -10.170012         -276.74012
     10       2.00000         -10.166763         -276.65169
     11       2.00000         -10.149653         -276.18611
     12       2.00000         -10.146814         -276.10886
     13       2.00000         -10.136344         -275.82395
     14       2.00000         -10.135294         -275.79538
     15       2.00000         -10.134554         -275.77525
     16       2.00000          -1.132872          -30.82700
     17       2.00000          -1.130241          -30.75542
     18       2.00000          -1.125927          -30.63804
     19       2.00000          -1.018787          -27.72260
     20       2.00000          -1.016322          -27.65552
     21       2.00000          -1.009193          -27.46155
     22       2.00000          -0.892897          -24.29696
     23       2.00000          -0.873862          -23.77901
     24       2.00000          -0.841233          -22.89112
     25       2.00000          -0.819591          -22.30220
     26       2.00000          -0.780185          -21.22992
     27       2.00000          -0.754149          -20.52144
     28       2.00000          -0.698422          -19.00502
     29       2.00000          -0.689469          -18.76141
     30       2.00000          -0.676364          -18.40480
     31       2.00000          -0.652991          -17.76879
     32       2.00000          -0.631322          -17.17914
     33       2.00000          -0.609738          -16.59182
     34       2.00000          -0.598816          -16.29462
     35       2.00000          -0.586469          -15.95865
     36       2.00000          -0.575531          -15.66100
     37       2.00000          -0.573492          -15.60551
     38       2.00000          -0.563666          -15.33814
     39       2.00000          -0.559090          -15.21361
     40       2.00000          -0.555163          -15.10677
     41       2.00000          -0.549642          -14.95651
     42       2.00000          -0.539998          -14.69410
     43       2.00000          -0.538581          -14.65553
     44       2.00000          -0.530829          -14.44460
     45       2.00000          -0.522758          -14.22497
     46       2.00000          -0.514056          -13.98816
     47       2.00000          -0.509965          -13.87686
     48       2.00000          -0.498026          -13.55198
     49       2.00000          -0.491802          -13.38262
     50       2.00000          -0.487991          -13.27890
     51       2.00000          -0.479807          -13.05620
     52       2.00000          -0.472747          -12.86410
     53       2.00000          -0.415469          -11.30549
     54       2.00000          -0.406879          -11.07175
     55       2.00000          -0.400995          -10.91164
     56       2.00000          -0.389294          -10.59323
     57       2.00000          -0.386016          -10.50402
     58       2.00000          -0.380816          -10.36252
     59       0.00000          -0.170373           -4.63608
     60       0.00000          -0.157213           -4.27797
     61       0.00000          -0.152415           -4.14742
     62       0.00000          -0.080472           -2.18975
     63       0.00000          -0.066972           -1.82241
     64       0.00000          -0.055278           -1.50420
     65       0.00000          -0.046562           -1.26703
     66       0.00000          -0.043007           -1.17029
     67       0.00000          -0.040867           -1.11205
     68       0.00000          -0.032798           -0.89248
     69       0.00000          -0.028311           -0.77038
     70       0.00000          -0.021474           -0.58435
     71       0.00000          -0.018510           -0.50367
     72       0.00000          -0.012456           -0.33894
     73       0.00000          -0.008633           -0.23491
     74       0.00000          -0.006062           -0.16496
     75       0.00000          -0.004082           -0.11108
     76       0.00000          -0.002935           -0.07986
     77       0.00000           0.002756            0.07499
     78       0.00000           0.006466            0.17595
     79       0.00000           0.008266            0.22492
     80       0.00000           0.019800            0.53878
     81       0.00000           0.023410            0.63703
     82       0.00000           0.024678            0.67153
     83       0.00000           0.028467            0.77461
     84       0.00000           0.037977            1.03340
     85       0.00000           0.043561            1.18536
     86       0.00000           0.045155            1.22874
     87       0.00000           0.051538            1.40242
     88       0.00000           0.055854            1.51987
     89       0.00000           0.060783            1.65400
     90       0.00000           0.062336            1.69625
     91       0.00000           0.072031            1.96007
     92       0.00000           0.074397            2.02445
     93       0.00000           0.078515            2.13650
     94       0.00000           0.091222            2.48227
     95       0.00000           0.095955            2.61106
     96       0.00000           0.099745            2.71419
     97       0.00000           0.109130            2.96957
     98       0.00000           0.111611            3.03708
     99       0.00000           0.117430            3.19544
    100       0.00000           0.122677            3.33822
    101       0.00000           0.124301            3.38242
    102       0.00000           0.129909            3.53499
    103       0.00000           0.133876            3.64294
    104       0.00000           0.141516            3.85086
    105       0.00000           0.147168            4.00465
    106       0.00000           0.151049            4.11024
    107       0.00000           0.154277            4.19809
    108       0.00000           0.155463            4.23035
    109       0.00000           0.168225            4.57763
    110       0.00000           0.176709            4.80850
    111       0.00000           0.178301            4.85183
    112       0.00000           0.179999            4.89801
    113       0.00000           0.182796            4.97412
    114       0.00000           0.189091            5.14542
    115       0.00000           0.190510            5.18403
    116       0.00000           0.192053            5.22602
    117       0.00000           0.193330            5.26076
    118       0.00000           0.202903            5.52127
    119       0.00000           0.213357            5.80573
    120       0.00000           0.214574            5.83884
    121       0.00000           0.221775            6.03482
    122       0.00000           0.222321            6.04966
    123       0.00000           0.226514            6.16376
    124       0.00000           0.230138            6.26236
    125       0.00000           0.235168            6.39925
    126       0.00000           0.238405            6.48734
    127       0.00000           0.249081            6.77785
    128       0.00000           0.256209            6.97180
    129       0.00000           0.263466            7.16928

  Highest occupied state (VBM) at    -10.36251746 eV
  | Occupation number:      2.00000000

  Lowest unoccupied state (CBM) at    -4.63608050 eV
  | Occupation number:      0.00000000

  Overall HOMO-LUMO gap:      5.72643696 eV.
  Calculating total energy contributions from superposition of free atom densities.

  Total energy components:
  | Sum of eigenvalues            :        -437.90084976 Ha      -11915.88839557 eV
  | XC energy correction          :         -98.81554840 Ha       -2688.90788214 eV
  | XC potential correction       :         127.01423102 Ha        3456.23307719 eV
  | Free-atom electrostatic energy:        -333.60001520 Ha       -9077.71828276 eV
  | Hartree energy correction     :           0.00000000 Ha           0.00000000 eV
  | MBD@rsSCS energy              :           0.00000000 Ha           0.00000000 eV
  | Entropy correction            :          -0.00000000 Ha          -0.00000000 eV
  | ---------------------------
  | Total energy                  :        -743.30218234 Ha      -20226.28148328 eV
  | Total energy, T -> 0          :        -743.30218234 Ha      -20226.28148328 eV  <-- do not rely on this value for anything but (periodic) metals
  | Electronic free energy        :        -743.30218234 Ha      -20226.28148328 eV

  Derived energy quantities:
  | Kinetic energy                :         735.14404410 Ha       20004.28724692 eV
  | Electrostatic energy          :       -1379.63067804 Ha      -37541.66084806 eV
  | Energy correction for multipole
  | error in Hartree potential    :           0.00000000 Ha           0.00000000 eV
  | Sum of eigenvalues per atom                           :        -372.37151236 eV
  | Total energy (T->0) per atom                          :        -632.07129635 eV  <-- do not rely on this value for anything but (periodic) metals
  | Electronic free energy per atom                       :        -632.07129635 eV
  Initialize hartree_potential_storage
  Max. number of atoms included in rho_multipole:           32

  End scf initialization - timings             :  max(cpu_time)    wall_clock(cpu1)
  | Time for scf. initialization               :        1.744 s           1.736 s
  | Boundary condition initialization          :        0.000 s           0.000 s
  | Integration                                :        1.020 s           1.014 s
  | Solution of K.-S. eqns.                    :        0.076 s           0.074 s
  | Grid partitioning                          :        0.332 s           0.327 s
  | Preloading free-atom quantities on grid    :        0.028 s           0.027 s
  | Free-atom superposition energy             :        0.040 s           0.037 s
  | Total energy evaluation                    :        0.000 s           0.000 s
------------------------------------------------------------

------------------------------------------------------------
          Begin self-consistency iteration #    1

  Date     :  20170309, Time     :  162513.305
------------------------------------------------------------
  Evaluating new KS density.
  Integration grid: deviation in total charge (<rho> - N_e) =   1.136868E-13
  Pulay mixing of updated and previous charge densities.

  Evaluating partitioned Hartree potential by multipole expansion.
  | Analytical far-field extrapolation by fixed multipoles:
  | Hartree multipole sum: apparent total charge =  -0.108441E-04
  Summing up the Hartree potential.
  Time summed over all CPUs for potential: real work        9.424 s, elapsed        9.749 s
  | RMS charge density error from multipole expansion :   0.104130E-01

  Integrating Hamiltonian matrix: batch-based integration.
  Time summed over all CPUs for integration: real work       19.200 s, elapsed       19.995 s

  Updating Kohn-Sham eigenvalues, eigenvectors, occupation numbers, and Fermi level.
  Solving generalized eigenproblem
  Solving real symmetric generalised eigenvalue problem by standard ScaLAPACK.
  Using Cholesky factor for transformation
  Using 2-stage real ELPA solver
  K-Point:    1, Trafo times: 1-stage=     0.021 s, 2-stage=     0.019 s ==> Using 2-stage solver
  Determining occupation numbers for Kohn-Sham eigenstates.
  | Chemical potential (Fermi level) in eV                 : -.25634869E+01
  | Error in electron count due to remaining E_F inaccuracy: 0.00000000E+00
  | Maximum occupation number of highest empty state:  0.00E+00

  Writing Kohn-Sham eigenvalues.

  State    Occupation    Eigenvalue [Ha]    Eigenvalue [eV]
      1       2.00000         -18.662438         -507.83079
      2       2.00000         -18.608286         -506.35723
      3       2.00000         -18.606476         -506.30796
      4       2.00000         -14.018289         -381.45706
      5       2.00000         -13.983753         -380.51729
      6       2.00000         -13.970254         -380.14995
      7       2.00000         -10.079567         -274.27898
      8       2.00000         -10.046120         -273.36883
      9       2.00000         -10.041603         -273.24591
     10       2.00000          -9.969928         -271.29553
     11       2.00000          -9.965646         -271.17901
     12       2.00000          -9.873495         -268.67146
     13       2.00000          -9.846169         -267.92788
     14       2.00000          -9.837553         -267.69343
     15       2.00000          -9.835911         -267.64876
     16       2.00000          -0.990334          -26.94836
     17       2.00000          -0.951999          -25.90521
     18       2.00000          -0.949376          -25.83384
     19       2.00000          -0.889782          -24.21221
     20       2.00000          -0.861956          -23.45501
     21       2.00000          -0.846933          -23.04622
     22       2.00000          -0.754576          -20.53305
     23       2.00000          -0.724391          -19.71168
     24       2.00000          -0.684818          -18.63485
     25       2.00000          -0.663571          -18.05670
     26       2.00000          -0.640136          -17.41898
     27       2.00000          -0.615867          -16.75859
     28       2.00000          -0.574725          -15.63907
     29       2.00000          -0.559563          -15.22647
     30       2.00000          -0.541223          -14.72743
     31       2.00000          -0.529284          -14.40256
     32       2.00000          -0.498512          -13.56520
     33       2.00000          -0.466213          -12.68630
     34       2.00000          -0.460500          -12.53085
     35       2.00000          -0.441486          -12.01344
     36       2.00000          -0.438715          -11.93805
     37       2.00000          -0.427604          -11.63570
     38       2.00000          -0.419129          -11.40508
     39       2.00000          -0.416050          -11.32131
     40       2.00000          -0.404310          -11.00184
     41       2.00000          -0.398325          -10.83898
     42       2.00000          -0.397770          -10.82388
     43       2.00000          -0.386245          -10.51027
     44       2.00000          -0.376113          -10.23456
     45       2.00000          -0.371024          -10.09608
     46       2.00000          -0.366405           -9.97038
     47       2.00000          -0.360534           -9.81064
     48       2.00000          -0.353457           -9.61806
     49       2.00000          -0.351920           -9.57624
     50       2.00000          -0.351306           -9.55952
     51       2.00000          -0.334063           -9.09032
     52       2.00000          -0.326592           -8.88701
     53       2.00000          -0.266035           -7.23919
     54       2.00000          -0.249722           -6.79528
     55       2.00000          -0.228458           -6.21665
     56       2.00000          -0.220545           -6.00132
     57       2.00000          -0.205387           -5.58888
     58       2.00000          -0.204185           -5.55616
     59       0.00000          -0.070657           -1.92267
     60       0.00000          -0.043780           -1.19132
     61       0.00000          -0.035902           -0.97695
     62       0.00000          -0.033524           -0.91224
     63       0.00000          -0.024595           -0.66926
     64       0.00000          -0.009769           -0.26583
     65       0.00000          -0.006644           -0.18080
     66       0.00000           0.004778            0.13002
     67       0.00000           0.012537            0.34116
     68       0.00000           0.016102            0.43817
     69       0.00000           0.024620            0.66994
     70       0.00000           0.030862            0.83979
     71       0.00000           0.036139            0.98340
     72       0.00000           0.039307            1.06959
     73       0.00000           0.043893            1.19440
     74       0.00000           0.046022            1.25231
     75       0.00000           0.050898            1.38501
     76       0.00000           0.055627            1.51370
     77       0.00000           0.062284            1.69482
     78       0.00000           0.065967            1.79505
     79       0.00000           0.079730            2.16957
     80       0.00000           0.084960            2.31187
     81       0.00000           0.088726            2.41435
     82       0.00000           0.092049            2.50479
     83       0.00000           0.098301            2.67492
     84       0.00000           0.106459            2.89689
     85       0.00000           0.108270            2.94618
     86       0.00000           0.112913            3.07252
     87       0.00000           0.113743            3.09509
     88       0.00000           0.116185            3.16155
     89       0.00000           0.123852            3.37019
     90       0.00000           0.125544            3.41623
     91       0.00000           0.132944            3.61758
     92       0.00000           0.134073            3.64831
     93       0.00000           0.152398            4.14697
     94       0.00000           0.160070            4.35573
     95       0.00000           0.164206            4.46827
     96       0.00000           0.166083            4.51934
     97       0.00000           0.176749            4.80959
     98       0.00000           0.177958            4.84248
     99       0.00000           0.183530            4.99409
    100       0.00000           0.187670            5.10676
    101       0.00000           0.193926            5.27699
    102       0.00000           0.195651            5.32394
    103       0.00000           0.202442            5.50873
    104       0.00000           0.204470            5.56392
    105       0.00000           0.211473            5.75448
    106       0.00000           0.212905            5.79344
    107       0.00000           0.217373            5.91502
    108       0.00000           0.220935            6.01193
    109       0.00000           0.225033            6.12346
    110       0.00000           0.231787            6.30724
    111       0.00000           0.237695            6.46801
    112       0.00000           0.240176            6.53551
    113       0.00000           0.242805            6.60705
    114       0.00000           0.245910            6.69155
    115       0.00000           0.250976            6.82939
    116       0.00000           0.255582            6.95475
    117       0.00000           0.257546            7.00819
    118       0.00000           0.267137            7.26916
    119       0.00000           0.271854            7.39753
    120       0.00000           0.278910            7.58952
    121       0.00000           0.282621            7.69051
    122       0.00000           0.288835            7.85960
    123       0.00000           0.294721            8.01977
    124       0.00000           0.299001            8.13623
    125       0.00000           0.306474            8.33958
    126       0.00000           0.310822            8.45790
    127       0.00000           0.323600            8.80559
    128       0.00000           0.328467            8.93803
    129       0.00000           0.332908            9.05890

  Highest occupied state (VBM) at     -5.55616448 eV
  | Occupation number:      2.00000000

  Lowest unoccupied state (CBM) at    -1.92267102 eV
  | Occupation number:      0.00000000

  Overall HOMO-LUMO gap:      3.63349346 eV.

  Total energy components:
  | Sum of eigenvalues            :        -417.68925821 Ha      -11365.90300679 eV
  | XC energy correction          :        -100.75444256 Ha       -2741.66787663 eV
  | XC potential correction       :         129.52960093 Ha        3524.67977508 eV
  | Free-atom electrostatic energy:        -333.60001520 Ha       -9077.71828276 eV
  | Hartree energy correction     :         -20.21411832 Ha        -550.05414599 eV
  | MBD@rsSCS energy              :           0.00000000 Ha           0.00000000 eV
  | Entropy correction            :          -0.00000000 Ha          -0.00000000 eV
  | ---------------------------
  | Total energy                  :        -742.72823336 Ha      -20210.66353710 eV
  | Total energy, T -> 0          :        -742.72823336 Ha      -20210.66353710 eV  <-- do not rely on this value for anything but (periodic) metals
  | Electronic free energy        :        -742.72823336 Ha      -20210.66353710 eV

  Derived energy quantities:
  | Kinetic energy                :         744.03090324 Ha       20246.11098782 eV
  | Electrostatic energy          :       -1386.00469404 Ha      -37715.10664828 eV
  | Energy correction for multipole
  | error in Hartree potential    :          -0.04109645 Ha          -1.11829126 eV
  | Sum of eigenvalues per atom                           :        -355.18446896 eV
  | Total energy (T->0) per atom                          :        -631.58323553 eV  <-- do not rely on this value for anything but (periodic) metals
  | Electronic free energy per atom                       :        -631.58323553 eV

  Self-consistency convergence accuracy:
  | Change of charge density      :  0.9011E+00
  | Change of sum of eigenvalues  :  0.5500E+03 eV
  | Change of total energy        :  0.1562E+02 eV

  End self-consistency iteration #     1       :  max(cpu_time)    wall_clock(cpu1)
  | Time for this iteration                    :        1.436 s           1.434 s
[...]
   Multipole                     : -0.200947E+00  0.300536E+00 -0.495757E+00
   Pulay + GGA                   : -0.525061E+01  0.707817E+01 -0.983648E+01
   MBD@rsSCS                     : -0.131729E-01  0.101020E-01 -0.129961E-01
   ----------------------------------------------------------------
   Total forces(  20)            : -0.340317E-02  0.268803E-02 -0.869084E-02
  atom #   21
   Hellmann-Feynman              :  0.618349E-02 -0.948186E-02 -0.320130E-01
   Ionic forces                  :  0.000000E+00  0.000000E+00  0.000000E+00
   Multipole                     : -0.527399E-03 -0.250458E-01 -0.288630E-02
   Pulay + GGA                   : -0.686779E-02  0.470105E-01  0.436300E-01
   MBD@rsSCS                     : -0.286427E-02 -0.829494E-03 -0.600956E-02
   ----------------------------------------------------------------
   Total forces(  21)            : -0.407597E-02  0.116533E-01  0.272119E-02
  atom #   22
   Hellmann-Feynman              :  0.188368E-01 -0.358716E-01 -0.441128E-01
   Ionic forces                  :  0.000000E+00  0.000000E+00  0.000000E+00
   Multipole                     : -0.537422E-02 -0.131923E-02 -0.130122E-01
   Pulay + GGA                   : -0.201121E-01  0.300246E-01  0.640639E-01
   MBD@rsSCS                     : -0.115198E-02  0.423608E-03 -0.538906E-02
   ----------------------------------------------------------------
   Total forces(  22)            : -0.780147E-02 -0.674258E-02  0.154978E-02
  atom #   23
   Hellmann-Feynman              : -0.873571E+00 -0.660187E+00 -0.581225E+00
   Ionic forces                  :  0.000000E+00  0.000000E+00  0.000000E+00
   Multipole                     :  0.224326E+00  0.177670E+00  0.219095E+00
   Pulay + GGA                   :  0.665750E+00  0.490535E+00  0.353214E+00
   MBD@rsSCS                     :  0.125273E-01  0.112946E-01 -0.726490E-02
   ----------------------------------------------------------------
   Total forces(  23)            :  0.290325E-01  0.193127E-01 -0.161808E-01
  atom #   24
   Hellmann-Feynman              :  0.329061E-01  0.319263E-01  0.273346E-01
   Ionic forces                  :  0.000000E+00  0.000000E+00  0.000000E+00
   Multipole                     : -0.128374E-01 -0.632776E-02  0.231457E-01
   Pulay + GGA                   : -0.577681E-02 -0.103251E-01 -0.504117E-01
   MBD@rsSCS                     :  0.143144E-01  0.120063E-01 -0.175179E-02
   ----------------------------------------------------------------
   Total forces(  24)            :  0.286063E-01  0.272798E-01 -0.168316E-02
  atom #   25
   Hellmann-Feynman              :  0.505582E-01  0.959556E-03  0.117963E-01
   Ionic forces                  :  0.000000E+00  0.000000E+00  0.000000E+00
   Multipole                     :  0.270197E-02 -0.254937E-01 -0.271470E-01
   Pulay + GGA                   : -0.557954E-01  0.220758E-01  0.222370E-01
   MBD@rsSCS                     :  0.765622E-02  0.934576E-02  0.361448E-03
   ----------------------------------------------------------------
   Total forces(  25)            :  0.512095E-02  0.688746E-02  0.724771E-02
  atom #   26
   Hellmann-Feynman              :  0.350291E-01  0.441174E-01  0.194407E-01
   Ionic forces                  :  0.000000E+00  0.000000E+00  0.000000E+00
   Multipole                     : -0.283800E-01  0.110283E-01 -0.293903E-01
   Pulay + GGA                   : -0.752174E-02 -0.566125E-01  0.145307E-01
   MBD@rsSCS                     :  0.975900E-02  0.542601E-02  0.159975E-02
   ----------------------------------------------------------------
   Total forces(  26)            :  0.888645E-02  0.395928E-02  0.618096E-02
  atom #   27
   Hellmann-Feynman              : -0.113521E+01  0.829161E+00  0.241526E+00
   Ionic forces                  :  0.000000E+00  0.000000E+00  0.000000E+00
   Multipole                     : -0.146196E+00 -0.415008E-01  0.142580E+00
   Pulay + GGA                   :  0.126522E+01 -0.775325E+00 -0.385726E+00
   MBD@rsSCS                     : -0.268362E-01  0.128694E-01  0.902834E-02
   ----------------------------------------------------------------
   Total forces(  27)            : -0.430181E-01  0.252047E-01  0.740908E-02
  atom #   28
   Hellmann-Feynman              :  0.199799E+01 -0.108295E+01 -0.355217E+00
   Ionic forces                  :  0.000000E+00  0.000000E+00  0.000000E+00
   Multipole                     : -0.138366E+00  0.784535E-01  0.424633E-01
   Pulay + GGA                   : -0.184638E+01  0.995111E+00  0.314544E+00
   MBD@rsSCS                     : -0.885598E-02  0.353761E-02  0.641449E-02
   ----------------------------------------------------------------
   Total forces(  28)            :  0.438492E-02 -0.585174E-02  0.820560E-02
  atom #   29
   Hellmann-Feynman              : -0.568228E-02 -0.188787E-01  0.350828E-01
   Ionic forces                  :  0.000000E+00  0.000000E+00  0.000000E+00
   Multipole                     :  0.446642E-01 -0.229884E-01 -0.927798E-02
   Pulay + GGA                   : -0.416897E-01  0.370187E-01 -0.244672E-01
   MBD@rsSCS                     : -0.219116E-02 -0.212119E-02  0.751034E-02
   ----------------------------------------------------------------
   Total forces(  29)            : -0.489899E-02 -0.696960E-02  0.884795E-02
  atom #   30
   Hellmann-Feynman              : -0.483014E-01 -0.527742E-02  0.238445E-01
   Ionic forces                  :  0.000000E+00  0.000000E+00  0.000000E+00
   Multipole                     : -0.311411E-02 -0.337657E-01 -0.136205E-02
   Pulay + GGA                   :  0.519679E-01  0.390741E-01 -0.267243E-01
   MBD@rsSCS                     : -0.627391E-02  0.222628E-02  0.288327E-02
   ----------------------------------------------------------------
   Total forces(  30)            : -0.572148E-02  0.225726E-02 -0.135863E-02
  atom #   31
   Hellmann-Feynman              : -0.303938E-01  0.275502E-01  0.378936E-01
   Ionic forces                  :  0.000000E+00  0.000000E+00  0.000000E+00
   Multipole                     :  0.269577E-01  0.161198E-01  0.144189E-01
   Pulay + GGA                   :  0.402548E-02 -0.431227E-01 -0.555475E-01
   MBD@rsSCS                     : -0.561948E-02  0.293831E-02  0.356707E-02
   ----------------------------------------------------------------
   Total forces(  31)            : -0.503013E-02  0.348564E-02  0.332031E-03
  atom #   32
   Hellmann-Feynman              : -0.633013E-01  0.297468E-01  0.186349E-01
   Ionic forces                  :  0.000000E+00  0.000000E+00  0.000000E+00
   Multipole                     :  0.230633E-01  0.231724E-02 -0.455008E-01
   Pulay + GGA                   :  0.418368E-01 -0.337890E-01  0.297233E-01
   MBD@rsSCS                     : -0.605606E-02  0.353538E-02 -0.165789E-03
   ----------------------------------------------------------------
   Total forces(  32)            : -0.445726E-02  0.181048E-02  0.269164E-02

  Removing unitary transformations (pure translations, rotations) from forces on atoms.
  Atomic forces before filtering:
  | Net force on center of mass :  -0.121044E-03  0.297445E-03 -0.540220E-04 eV/A
  | Net torque on center of mass:  -0.678266E-03  0.240765E-02 -0.282181E-02 eV
  Atomic forces after filtering:
  | Net force on center of mass :   0.216039E-16  0.209070E-17  0.243915E-16 eV/A
  | Net torque on center of mass:   0.103259E-16 -0.413037E-16 -0.383534E-16 eV

  Energy and forces in a compact form:
  | Total energy uncorrected      :         -0.202093197645829E+05 eV
  | Total energy corrected        :         -0.202093197645829E+05 eV  <-- do not rely on this value for anything but (periodic) metals
  | Electronic free energy        :         -0.202093197645829E+05 eV
  Total atomic forces (unitary forces cleaned) [eV/Ang]:
  |   1          0.925391472930478E-03         -0.221358234657109E-02         -0.632960339476316E-02
  |   2         -0.166293253983294E-01         -0.115433227759791E-01          0.184255216510870E-01
  |   3         -0.336292281813701E-02         -0.887115148088661E-02         -0.111111226229497E-01
  |   4         -0.460472621631086E-02         -0.681547322096069E-02          0.844783953136853E-02
  |   5         -0.522843771425521E-02          0.236963956392417E-02          0.694738012024011E-02
  |   6         -0.619850650443070E-03         -0.134962016200236E-03          0.797645462963835E-02
  |   7         -0.113674036659545E-01          0.722159989663850E-02         -0.623664705792758E-02
  |   8          0.245511504416805E-02          0.369895869373720E-02          0.221396733460972E-02
  |   9         -0.641727549100762E-02         -0.474527517003576E-01          0.937040387726465E-02
  |  10          0.101335183800151E-04         -0.153579070726866E-01          0.227499246516324E-01
  |  11          0.487104888597237E-03          0.429993083395090E-02         -0.306388464344191E-03
  |  12         -0.938009254095703E-02         -0.575435014651029E-03          0.281691509590675E-02
  |  13          0.238330326482828E-01         -0.508413254676949E-02         -0.766089994902723E-02
  |  14          0.227868974600340E-01          0.409765518102454E-02         -0.589280946867286E-02
  |  15          0.175871876059269E-01         -0.904929709935565E-02          0.315722971073679E-02
  |  16          0.959697285071155E-02         -0.363225911231542E-02         -0.340341741734324E-02
  |  17         -0.785064281030205E-02         -0.491406337608893E-02         -0.302533872152541E-01
  |  18          0.480626446546830E-03          0.615665891172479E-02         -0.106175626658882E-01
  |  19         -0.106203087918600E-01          0.286730619856304E-02         -0.176454128301479E-01
  |  20         -0.340510526287079E-02          0.269140398530957E-02         -0.866743689262098E-02
  |  21         -0.412240657894788E-02          0.116294552709598E-01          0.271370079346485E-02
  |  22         -0.783267785634115E-02         -0.676849561558617E-02          0.153478667452742E-02
  |  23          0.290492447812861E-01          0.192781955957292E-01         -0.162226602894478E-01
  |  24          0.286471211525913E-01          0.272498987149376E-01         -0.172452375286950E-02
  |  25          0.512466065002269E-02          0.683835919009603E-02          0.718617791008233E-02
  |  26          0.890997989484736E-02          0.392449679917702E-02          0.613667437841676E-02
  |  27         -0.429851252785632E-01          0.252158093186891E-01          0.743515539144817E-02
  |  28          0.443561943862892E-02         -0.582157152700899E-02          0.825694964402546E-02
  |  29         -0.485944103190209E-02         -0.696361660768564E-02          0.886397041594486E-02
  |  30         -0.567444056532139E-02          0.229857498922092E-02         -0.128855649865259E-02
  |  31         -0.495134280284115E-02          0.351680834692223E-02          0.377165722940905E-03
  |  32         -0.441756237860993E-02          0.184327002249862E-02          0.275021098657401E-02

  ------------------------------------ 
  Start decomposition of the XC Energy 
  ------------------------------------ 
  Hartree-Fock part   :          0.000000000 Ha              0.000000000 eV
  ------------------------------------ 
  X Energy            :        -96.994390376 Ha          -2639.351650877 eV
  C Energy GGA        :         -3.868910428 Ha           -105.278409254 eV
  Total XC Energy     :       -100.863300805 Ha          -2744.630060131 eV
  LDA X and C from self-consistent density 
  X Energy LDA        :        -88.010929293 Ha          -2394.899237195 eV
  C Energy LDA        :         -7.532300583 Ha           -204.964327344 eV
  ------------------------------------ 
  End decomposition of the XC Energy 
  ------------------------------------ 
   
  ESP charge fitting starts.
  | Calculation :  00000001  of  00000001
  | Full density
  Computing multipole expansion for total density.
  Generating points for esp charges.
  Partitioning the integration grid into batches with parallel hashing+maxmin method.
  | Number of batches:     3859
  | Maximal batch size:     199
  | Minimal batch size:      51
  | Average batch size:     126.170
  | Standard deviation of batch sizes:      18.153

  Integration load balanced across    32 MPI tasks.
  Work distribution over tasks is as follows:
  Initializing partition tables, free-atom densities, potentials, etc. across the integration grid (initialize_grid_storage).
  | Original list of interatomic distances with          32 x         32 entries is created.
  | Net number of integration points:   486891
  | of which are non-zero points    :   486891
  Summing up potential from multipole expanded  density.
  Summing up the Hartree potential.
  Time summed over all CPUs for potential: real work        6.356 s, elapsed        6.594 s
  Fitting esp charges to potential.
  |
  | ESP charges fitted to the electrostatic potential :
  |
  | Atom         1: C, ESP charge:      0.95964952
  |
  | Atom         2: C, ESP charge:     -0.68862957
  |
  | Atom         3: O, ESP charge:      0.53556145
  |
  | Atom         4: H, ESP charge:     -0.25810356
  |
  | Atom         5: H, ESP charge:     -0.26619376
  |
  | Atom         6: H, ESP charge:     -0.27125509
  |
  | Atom         7: N, ESP charge:      0.43339059
  |
  | Atom         8: C, ESP charge:     -0.40706117
  |
  | Atom         9: C, ESP charge:     -0.34555945
  |
  | Atom        10: O, ESP charge:      0.40869700
  |
  | Atom        11: H, ESP charge:     -0.22446654
  |
  | Atom        12: H, ESP charge:      0.00258336
  |
  | Atom        13: C, ESP charge:      0.65700263
  |
  | Atom        14: H, ESP charge:     -0.19388954
  |
  | Atom        15: H, ESP charge:     -0.16441798
  |
  | Atom        16: H, ESP charge:     -0.19076777
  |
  | Atom        17: N, ESP charge:      0.71807863
  |
  | Atom        18: C, ESP charge:     -0.34202225
  |
  | Atom        19: C, ESP charge:     -0.20657084
  |
  | Atom        20: O, ESP charge:      0.48264636
  |
  | Atom        21: H, ESP charge:     -0.41014865
  |
  | Atom        22: H, ESP charge:     -0.05914819
  |
  | Atom        23: C, ESP charge:      0.53388435
  |
  | Atom        24: H, ESP charge:     -0.15280961
  |
  | Atom        25: H, ESP charge:     -0.16591669
  |
  | Atom        26: H, ESP charge:     -0.15609730
  |
  | Atom        27: N, ESP charge:     -0.05323395
  |
  | Atom        28: C, ESP charge:      0.30659340
  |
  | Atom        29: H, ESP charge:     -0.14188098
  |
  | Atom        30: H, ESP charge:     -0.09845067
  |
  | Atom        31: H, ESP charge:     -0.09933053
  |
  | Atom        32: H, ESP charge:     -0.14213321

  RRMS:       0.00902813

  Done.

------------------------------------------------------------------------------
  Final output of selected total energy values:

  The following output summarizes some interesting total energy values
  at the end of a run (AFTER all relaxation, molecular dynamics, etc.).

  | Total energy of the DFT / Hartree-Fock s.c.f. calculation      :         -20209.319764583 eV
  | Final zero-broadening corrected energy (caution - metals only) :         -20209.319764583 eV
  | For reference only, the value of 1 Hartree used in FHI-aims is :             27.211384500 eV

  Before relying on these values, please be sure to understand exactly which
  total energy value is referred to by a given number. Different objects may
  all carry the same name 'total energy'. Definitions:

  Total energy of the DFT / Hartree-Fock s.c.f. calculation:
  | Note that this energy does not include ANY quantities calculated after the
  | s.c.f. cycle, in particular not ANY RPA, MP2, etc. many-body perturbation terms.

  Final zero-broadening corrected energy:
  | For metallic systems only, a broadening of the occupation numbers at the Fermi
  | level can be extrapolated back to zero broadening by an electron-gas inspired
  | formula. For all systems that are not real metals, this value can be
  | meaningless and should be avoided.

------------------------------------------------------------------------------
  Methods described in the following list of references were used in this FHI-aims run.
  If you publish the results, please make sure to cite these reference if they apply.
  FHI-aims is an academic code, and for our developers (often, Ph.D. students
  and postdocs), scientific credit in the community is essential.
  Thank you for helping us!

  For any use of FHI-aims, please cite:

    Volker Blum, Ralf Gehrke, Felix Hanke, Paula Havu, Ville Havu,
    Xinguo Ren, Karsten Reuter, and Matthias Scheffler
    'Ab initio molecular simulations with numeric atom-centered orbitals'
    Computer Physics Communications 180, 2175-2196 (2009)
    http://dx.doi.org/10.1016/j.cpc.2009.06.022


  The scalable eigensolver library ELPA was used in your run.
  ELPA is essential especially for large systems on hundreds or thousands of CPUs.
  For ELPA, please cite:

    Andreas Marek, Volker Blum, Rainer Johanni, Ville Havu, Bruno Lang,
    Thomas Auckenthaler, Alexander Heinecke, Hans-Joachim Bungartz, and Hermann Lederer,
    'The ELPA Library - Scalable Parallel Eigenvalue Solutions
    for Electronic Structure Theory and Computational Science'
    The Journal of Physics: Condensed Matter 26, 213201 (2014).
    http://dx.doi.org/10.1088/0953-8984/26/21/213201


  For ELPA's efficient two-stage tridiagonalization used in your run, please cite:

    T. Auckenthaler, V. Blum, H.-J. Bungartz, T. Huckle, R. Johanni, L. Kraemer,
    B. Lang, H. Lederer, and P. R. Willems,
    'Parallel solution of partial symmetric eigenvalue problems'
    'from  electronic structure calculations'
    Parallel Computing 37, 783-794 (2011).
    http://dx.doi.org/10.1016/j.parco.2011.05.002


  For the real-space grid partitioning and parallelization used in this calculation, please cite:

    Ville Havu, Volker Blum, Paula Havu, and Matthias Scheffler,
    'Efficient O(N) integration for all-electron electronic structure calculation'
    'using numerically tabulated basis functions'
    Journal of Computational Physics 228, 8367-8379 (2009).
    http://dx.doi.org/10.1016/j.jcp.2009.08.008

  Of course, there are many other important community references, e.g., those cited in the
  above references. Our list is limited to references that describe implementations in the
  FHI-aims code. The reason is purely practical (length of this list) - please credit others as well.

------------------------------------------------------------
          Leaving FHI-aims.
          Date     :  20170309, Time     :  162542.629

          Computational steps:
          | Number of self-consistency cycles          :           14

          Detailed time accounting                     :  max(cpu_time)    wall_clock(cpu1)
          | Total time                                 :       31.922 s          32.090 s
          | Preparation time                           :        0.240 s           0.240 s
          | Grid partitioning                          :        0.332 s           0.327 s
          | Preloading free-atom quantities on grid    :        0.028 s           0.027 s
          | Free-atom superposition energy             :        0.040 s           0.037 s
          | Total time for integrations                :       10.017 s           9.983 s
          | Total time for solution of K.-S. equations :        0.536 s           0.500 s
          | Total time for density & force components  :        9.277 s           9.255 s
          | Total time for mixing                      :        0.124 s           0.107 s
          | Total time for Hartree multipole update    :        0.056 s           0.056 s
          | Total time for Hartree multipole sum       :        6.480 s           6.452 s
          | Total time for total energy evaluation     :        0.032 s           0.018 s

          Have a nice day.
------------------------------------------------------------
