  MPI-parallelism will be employed.
------------------------------------------------------------
          Invoking FHI-aims ...
          Version 150427
          Git rev.: 9dd23e0 BL: Update Version stamp
          Compiled on 2015/11/03 at 22:05:20 on host eos03.

          When using FHI-aims, please cite the following reference:

          Volker Blum, Ralf Gehrke, Felix Hanke, Paula Havu,
          Ville Havu, Xinguo Ren, Karsten Reuter, and Matthias Scheffler,
          'Ab Initio Molecular Simulations with Numeric Atom-Centered Orbitals: FHI-aims',
          Computer Physics Communications 180, 2175-2196 (2009)

          For any questions about FHI-aims, please visit the aimsclub website
          with its forums and wiki. Contributions to both the forums and the
          wiki are warmly encouraged - they are for you, and everyone is welcome there.

------------------------------------------------------------

  Date     :  20170309, Time     :  160741.026
  Time zero on CPU 1             :   0.408025000000000E+00  s.
  Internal wall clock time zero  :           258307661.026  s.

  Using       32 parallel tasks.
  Task        0 on host eos057 reporting.
  Task        1 on host eos057 reporting.
  Task        2 on host eos057 reporting.
  Task        3 on host eos057 reporting.
  Task        4 on host eos057 reporting.
  Task        5 on host eos057 reporting.
  Task        6 on host eos057 reporting.
  Task        7 on host eos057 reporting.
  Task        8 on host eos057 reporting.
  Task        9 on host eos057 reporting.
  Task       10 on host eos057 reporting.
  Task       11 on host eos057 reporting.
  Task       12 on host eos057 reporting.
  Task       13 on host eos057 reporting.
  Task       14 on host eos057 reporting.
  Task       15 on host eos057 reporting.
  Task       16 on host eos057 reporting.
  Task       17 on host eos057 reporting.
  Task       18 on host eos057 reporting.
  Task       19 on host eos057 reporting.
  Task       20 on host eos057 reporting.
  Task       21 on host eos057 reporting.
  Task       22 on host eos057 reporting.
  Task       23 on host eos057 reporting.
  Task       24 on host eos057 reporting.
  Task       25 on host eos057 reporting.
  Task       26 on host eos057 reporting.
  Task       27 on host eos057 reporting.
  Task       28 on host eos057 reporting.
  Task       29 on host eos057 reporting.
  Task       30 on host eos057 reporting.
  Task       31 on host eos057 reporting.

  Performing system and environment tests:
  | Environment variable OMP_NUM_THREADS correctly set to 1.
  | Stacksize not measured: no C compiler
  | Checking for scalapack...
  | Testing pdtran()...
  | All pdtran() tests passed.

  Obtaining array dimensions for all initial allocations:
  
  -----------------------------------------------------------------------
  Parsing control.in (first pass over file, find array dimensions only).
  The contents of control.in will be repeated verbatim below
  unless switched off by setting 'verbatim_writeout .false.' .
  in the first line of control.in .
  -----------------------------------------------------------------------
  
  #########################################################################################
  #
  # Input for System
  #
  #########################################################################################
  #
  #
  #  Physical model
  #
    xc                 pbe
    many_body_dispersion
    spin               none
    charge             0.
  #
  #  SCF convergence
  #
    occupation_type    gaussian 0.05
    mixer              pulay
      n_max_pulay        10
      charge_mix_param   0.5
    sc_accuracy_rho    1E-4
    sc_accuracy_eev    1E-2
    sc_accuracy_etot   1E-5
    sc_accuracy_forces 1E-4
    sc_iter_limit      1000
  #
  #  ESP charge
  #
    output esp
    esp equal_grid_n 80 80 80
  #
  #
  ################################################################################
  #
  #  FHI-aims code project
  # Volker Blum, Fritz Haber Institute Berlin, 2009
  #
  #  Suggested "tight" defaults for H atom (to be pasted into control.in file)
  #
  ################################################################################
    species        H
  #     global species definitions
      nucleus             1
      mass                1.00794
  #
      l_hartree           6
  #
      cut_pot             4.0  2.0  1.0
      basis_dep_cutoff    1e-4
  #
      radial_base         24 7.0
      radial_multiplier   2
      angular_grids       specified
        division   0.1930   50
        division   0.3175  110
        division   0.4293  194
        division   0.5066  302
        division   0.5626  434
  #      division   0.5922  590
  #      division   0.6227  974
  #      division   0.6868 1202
  #      outer_grid  770
        outer_grid  434
  ################################################################################
  #
  #  Definition of "minimal" basis
  #
  ################################################################################
  #     valence basis states
      valence      1  s   1.
  #     ion occupancy
      ion_occ      1  s   0.5
  ################################################################################
  #
  #  Suggested additional basis functions. For production calculations,
  #  uncomment them one after another (the most important basis functions are
  #  listed first).
  #
  #  Basis constructed for dimers: 0.5 A, 0.7 A, 1.0 A, 1.5 A, 2.5 A
  #
  ################################################################################
  #  "First tier" - improvements: -1014.90 meV to -62.69 meV
       hydro 2 s 2.1
       hydro 2 p 3.5
  #  "Second tier" - improvements: -12.89 meV to -1.83 meV
       hydro 1 s 0.85
       hydro 2 p 3.7
       hydro 2 s 1.2
       hydro 3 d 7
  #  "Third tier" - improvements: -0.25 meV to -0.12 meV
  #     hydro 4 f 11.2
  #     hydro 3 p 4.8
  #     hydro 4 d 9
  #     hydro 3 s 3.2
  ################################################################################
  #
  # For methods that use the localized form of the "resolution of identity" for
  # the two-electron Coulomb operator (RI_method LVL), particularly Hartree-Fock and
  # hybrid density functional calculations, the highest accuracy can be obtained by
  # uncommenting the line beginning with "for_aux"  below, thus adding an extra g radial
  # function to the construction of the product basis set for the expansion.
  # See Ref. New J. Phys. 17, 093020 (2015) for more information, particularly Figs. 1 and 6.
  #
  ################################################################################
  #
  # for_aux hydro 5 g 6.0
  ################################################################################
  #
  #  FHI-aims code project
  # Volker Blum, Fritz Haber Institute Berlin, 2009
  #
  #  Suggested "tight" defaults for C atom (to be pasted into control.in file)
  #
  ################################################################################
    species        C
  #     global species definitions
      nucleus             6
      mass                12.0107
  #
      l_hartree           6
  #
      cut_pot             4.0  2.0  1.0
      basis_dep_cutoff    1e-4
  #
      radial_base         34 7.0
      radial_multiplier   2
      angular_grids specified
        division   0.2187   50
        division   0.4416  110
        division   0.6335  194
        division   0.7727  302
        division   0.8772  434
  #      division   0.9334  590
  #      division   0.9924  770
  #      division   1.0230  974
  #      division   1.5020 1202
  #     outer_grid  974
        outer_grid  434
  ################################################################################
  #
  #  Definition of "minimal" basis
  #
  ################################################################################
  #     valence basis states
      valence      2  s   2.
      valence      2  p   2.
  #     ion occupancy
      ion_occ      2  s   1.
      ion_occ      2  p   1.
  ################################################################################
  #
  #  Suggested additional basis functions. For production calculations,
  #  uncomment them one after another (the most important basis functions are
  #  listed first).
  #
  #  Constructed for dimers: 1.0 A, 1.25 A, 1.5 A, 2.0 A, 3.0 A
  #
  ################################################################################
  #  "First tier" - improvements: -1214.57 meV to -155.61 meV
       hydro 2 p 1.7
       hydro 3 d 6
       hydro 2 s 4.9
  #  "Second tier" - improvements: -67.75 meV to -5.23 meV
       hydro 4 f 9.8
       hydro 3 p 5.2
       hydro 3 s 4.3
       hydro 5 g 14.4
       hydro 3 d 6.2
  #  "Third tier" - improvements: -2.43 meV to -0.60 meV
  #     hydro 2 p 5.6
  #     hydro 2 s 1.4
  #     hydro 3 d 4.9
  #     hydro 4 f 11.2
  #  "Fourth tier" - improvements: -0.39 meV to -0.18 meV
  #     hydro 2 p 2.1
  #     hydro 5 g 16.4
  #     hydro 4 d 13.2
  #     hydro 3 s 13.6
  #     hydro 4 f 17.6
  #  Further basis functions - improvements: -0.08 meV and below
  #     hydro 3 s 2
  #     hydro 3 p 6
  #     hydro 4 d 20
  ################################################################################
  #
  # For methods that use the localized form of the "resolution of identity" for
  # the two-electron Coulomb operator (RI_method LVL), particularly Hartree-Fock and
  # hybrid density functional calculations, the highest accuracy can be obtained by
  # uncommenting the line beginning with "for_aux"  below, thus adding an extra g radial
  # function to the construction of the product basis set for the expansion.
  # See Ref. New J. Phys. 17, 093020 (2015) for more information, particularly Figs. 1 and 6.
  #
  ################################################################################
  #
  # for_aux hydro 5 g 6.0
  ################################################################################
  #
  #  FHI-aims code project
  # Volker Blum, Fritz Haber Institute Berlin, 2009
  #
  #  Suggested "tight" defaults for N atom (to be pasted into control.in file)
  #
  ################################################################################
    species        N
  #     global species definitions
      nucleus             7
      mass                14.0067
  #
      l_hartree           6
  #
      cut_pot             4.0  2.0  1.0
      basis_dep_cutoff    1e-4
  #
      radial_base         35 7.0
      radial_multiplier   2
      angular_grids       specified
        division   0.1841   50
        division   0.3514  110
        division   0.5126  194
        division   0.6292  302
        division   0.6939  434
  #      division   0.7396  590
  #      division   0.7632  770
  #      division   0.8122  974
  #      division   1.1604 1202
  #      outer_grid  974
        outer_grid  434
  ################################################################################
  #
  #  Definition of "minimal" basis
  #
  ################################################################################
  #     valence basis states
      valence      2  s   2.
      valence      2  p   3.
  #     ion occupancy
      ion_occ      2  s   1.
      ion_occ      2  p   2.
  ################################################################################
  #
  #  Suggested additional basis functions. For production calculations,
  #  uncomment them one after another (the most important basis functions are
  #  listed first).
  #
  #  Constructed for dimers: 1.0 A, 1.1 A, 1.5 A, 2.0 A, 3.0 A
  #
  ################################################################################
  #  "First tier" - improvements: -1193.42 meV to -220.60 meV
       hydro 2 p 1.8
       hydro 3 d 6.8
       hydro 3 s 5.8
  #  "Second tier" - improvements: -80.21 meV to -6.86 meV
       hydro 4 f 10.8
       hydro 3 p 5.8
       hydro 1 s 0.8
       hydro 5 g 16
       hydro 3 d 4.9
  #  "Third tier" - improvements: -4.29 meV to -0.53 meV
  #     hydro 3 s 16
  #     ionic 2 p auto
  #     hydro 3 d 6.6
  #     hydro 4 f 11.6
  #  "Fourth tier" - improvements: -0.75 meV to -0.25 meV
  #     hydro 2 p 4.5
  #     hydro 2 s 2.4
  #     hydro 5 g 14.4
  #     hydro 4 d 14.4
  #     hydro 4 f 16.8
  # Further basis functions - -0.21 meV and below
  #     hydro 3 p 14.8
  #     hydro 3 s 4.4
  #     hydro 3 d 19.6
  #     hydro 5 g 12.8
  ################################################################################
  #
  # For methods that use the localized form of the "resolution of identity" for
  # the two-electron Coulomb operator (RI_method LVL), particularly Hartree-Fock and
  # hybrid density functional calculations, the highest accuracy can be obtained by
  # uncommenting the line beginning with "for_aux"  below, thus adding an extra g radial
  # function to the construction of the product basis set for the expansion.
  # See Ref. New J. Phys. 17, 093020 (2015) for more information, particularly Figs. 1 and 6.
  #
  ################################################################################
  #
  # for_aux hydro 5 g 6.0
  ################################################################################
  #
  #  FHI-aims code project
  # Volker Blum, Fritz Haber Institute Berlin, 2009
  #
  #  Suggested "tight" defaults for O atom (to be pasted into control.in file)
  #
  ################################################################################
    species        O
  #     global species definitions
      nucleus             8
      mass                15.9994
  #
      l_hartree           6
  #
      cut_pot             4.0  2.0  1.0
      basis_dep_cutoff    1e-4
  #
      radial_base         36 7.0
      radial_multiplier   2
       angular_grids specified
        division   0.1817   50
        division   0.3417  110
        division   0.4949  194
        division   0.6251  302
        division   0.8014  434
  #      division   0.8507  590
  #      division   0.8762  770
  #      division   0.9023  974
  #      division   1.2339 1202
  #      outer_grid 974
        outer_grid  434
  ################################################################################
  #
  #  Definition of "minimal" basis
  #
  ################################################################################
  #     valence basis states
      valence      2  s   2.
      valence      2  p   4.
  #     ion occupancy
      ion_occ      2  s   1.
      ion_occ      2  p   3.
  ################################################################################
  #
  #  Suggested additional basis functions. For production calculations,
  #  uncomment them one after another (the most important basis functions are
  #  listed first).
  #
  #  Constructed for dimers: 1.0 A, 1.208 A, 1.5 A, 2.0 A, 3.0 A
  #
  ################################################################################
  #  "First tier" - improvements: -699.05 meV to -159.38 meV
       hydro 2 p 1.8
       hydro 3 d 7.6
       hydro 3 s 6.4
  #  "Second tier" - improvements: -49.91 meV to -5.39 meV
       hydro 4 f 11.6
       hydro 3 p 6.2
       hydro 3 d 5.6
       hydro 5 g 17.6
       hydro 1 s 0.75
  #  "Third tier" - improvements: -2.83 meV to -0.50 meV
  #     ionic 2 p auto
  #     hydro 4 f 10.8
  #     hydro 4 d 4.7
  #     hydro 2 s 6.8
  #  "Fourth tier" - improvements: -0.40 meV to -0.12 meV
  #     hydro 3 p 5
  #     hydro 3 s 3.3
  #     hydro 5 g 15.6
  #     hydro 4 f 17.6
  #     hydro 4 d 14
  # Further basis functions - -0.08 meV and below
  #     hydro 3 s 2.1
  #     hydro 4 d 11.6
  #     hydro 3 p 16
  #     hydro 2 s 17.2
  ################################################################################
  #
  # For methods that use the localized form of the "resolution of identity" for
  # the two-electron Coulomb operator (RI_method LVL), particularly Hartree-Fock and
  # hybrid density functional calculations, the highest accuracy can be obtained by
  # uncommenting the line beginning with "for_aux"  below, thus adding an extra g radial
  # function to the construction of the product basis set for the expansion.
  # See Ref. New J. Phys. 17, 093020 (2015) for more information, particularly Figs. 1 and 6.
  #
  ################################################################################
  #
  # for_aux hydro 5 g 6.0
  
  -----------------------------------------------------------------------
  Completed first pass over input file control.in .
  -----------------------------------------------------------------------
  
  
  -----------------------------------------------------------------------
  Parsing geometry.in (first pass over file, find array dimensions only).
  The contents of geometry.in will be repeated verbatim below
  unless switched off by setting 'verbatim_writeout .false.' .
  in the first line of geometry.in .
  -----------------------------------------------------------------------
  
  #
  # This is the geometry file that corresponds to the current relaxation step.
  # If you do not want this file to be written, set the "write_restart_geometry" flag to .false.
  #
  atom       0.41507427     -0.60797057     -0.10512774 C
  atom       0.07813705     -0.34361966      1.35026581 C
  atom       0.80101708      0.31885906      2.08748149 O
  atom      -0.44730215     -0.92456320     -0.70603428 H
  atom       1.17557544     -1.40050579     -0.14778527 H
  atom       0.85073967      0.29821119     -0.53872813 H
  atom      -1.07620603     -0.94407059      1.79949370 N
  atom      -1.54654968     -0.81850675      3.16984064 C
  atom      -1.11891143     -1.98150643      4.09543979 C
  atom      -1.45151095     -1.99671752      5.28080576 O
  atom      -1.66947463     -1.41974851      1.12886362 H
  atom      -1.03819771      0.06626254      3.58294435 H
  atom      -3.06190580     -0.62426776      3.22354588 C
  atom      -3.38781511     -0.57386690      4.26808710 H
  atom      -3.58741496     -1.46606546      2.74748601 H
  atom      -3.35055060      0.30234721      2.71215295 H
  atom      -0.36639548     -2.94724363      3.51393039 N
  atom       0.24993041     -4.01904808      4.26590734 C
  atom       1.50878525     -4.43143792      3.48320822 C
  atom       1.60870115     -4.22069677      2.27344308 O
  atom      -0.03198162     -2.83948253      2.55787327 H
  atom       0.52529634     -3.62449072      5.25775899 H
  atom      -0.69884438     -5.21663638      4.45415294 C
  atom      -0.22793427     -6.00949115      5.05088640 H
  atom      -0.98206435     -5.63518953      3.47962249 H
  atom      -1.60334277     -4.88225815      4.97583184 H
  atom       2.45977101     -5.06486450      4.21905231 N
  atom       3.69254000     -5.57706934      3.64937578 C
  atom       2.31090538     -5.14928161      5.21767810 H
  atom       3.78023480     -6.66170618      3.80223501 H
  atom       4.56853969     -5.08212983      4.09075414 H
  atom       3.67184335     -5.36791348      2.57495403 H
  
  -----------------------------------------------------------------------
  Completed first pass over input file geometry.in .
  -----------------------------------------------------------------------
  

  Basic array size parameters:
  | Number of species                 :        4
  | Number of atoms                   :       32
  | Max. basis fn. angular momentum   :        4
  | Max. atomic/ionic basis occupied n:        2
  | Max. number of basis fn. types    :        2
  | Max. radial fns per species/type  :        8
  | Max. logarithmic grid size        :     1301
  | Max. radial integration grid size :       73
  | Max. angular integration grid size:      434
  | Max. angular grid division number :        8
  | Radial grid for Hartree potential :     1301
  | Number of spin channels           :        1

------------------------------------------------------------
          Reading file control.in.
------------------------------------------------------------
  XC: Using PBE gradient-corrected functionals.
  Self-consistent screening and van der Waals energy (TS, TS+SCS,MBD) module
  Spin treatment: No spin polarisation.
  Charge =   0.000000E+00: Neutral system requested explicitly.
  Occupation type: Gaussian broadening, width =   0.500000E-01 eV.
  Using pulay charge density mixing.
  Pulay mixing - number of memorized iterations:   10
  Charge density mixing - mixing parameter:     0.5000
  Convergence accuracy of self-consistent charge density:  0.1000E-03
  Convergence accuracy of sum of eigenvalues:  0.1000E-01
  Convergence accuracy of total energy:  0.1000E-04
  Convergence accuracy of forces:  0.1000E-03
  Maximum number of s.-c. iterations  :  1000
  Fitting ESP-charges to Potential. 
  | Esp charge output options: 
  | ESP Grid method: 3, cubic grid
  | Number of points in x, ,y, z:  0080 0080 0080
  |
 
  Reading configuration options for species H                   .
  | Found nuclear charge :   1.0000
  | Found atomic mass :    1.00794000000000      amu
  | Found l_max for Hartree potential  :   6
  | Found cutoff potl. onset [A], width [A], scale factor :    4.00000    2.00000    1.00000
  | Threshold for basis-dependent cutoff potential is   0.100000E-03
  | Found data for basic radial integration grid :    24 points, outermost radius =    7.000 A
  | Found multiplier for basic radial grid :   2
  | Found angular grid specification: user-specified.
  | Specified grid contains     6 separate shells.
  | Check grid settings after all constraints further below.
  | Found free-atom valence shell :  1 s   1.000
  | No ionic wave fns used. Skipping ion_occ.
  | Found hydrogenic basis function :  2 s   2.100
  | Found hydrogenic basis function :  2 p   3.500
  | Found hydrogenic basis function :  1 s   0.850
  | Found hydrogenic basis function :  2 p   3.700
  | Found hydrogenic basis function :  2 s   1.200
  | Found hydrogenic basis function :  3 d   7.000
  Species H                   : Missing cutoff potential type.
  Defaulting to exp(1/x)/(1-x)^2 type cutoff potential.
  Species H : No 'logarithmic' tag. Using default grid for free atom:
  | Default logarithmic grid data [bohr] : 0.1000E-03 0.1000E+03 0.1012E+01
  Species H : On-site basis accuracy parameter (for Gram-Schmidt orthonormalisation) not specified.
  Using default value basis_acc =  0.1000000E-03.
  Species H                   : Using default innermost maximum threshold i_radial=  2 for radial functions.
  Species H                   : Default cutoff onset for free atom density etc. : 0.40000000E+01 AA.
  Species H                   : Basic radial grid will be enhanced according to radial_multiplier =   2, to contain    49 grid points.
 
  Reading configuration options for species C                   .
  | Found nuclear charge :   6.0000
  | Found atomic mass :    12.0107000000000      amu
  | Found l_max for Hartree potential  :   6
  | Found cutoff potl. onset [A], width [A], scale factor :    4.00000    2.00000    1.00000
  | Threshold for basis-dependent cutoff potential is   0.100000E-03
  | Found data for basic radial integration grid :    34 points, outermost radius =    7.000 A
  | Found multiplier for basic radial grid :   2
  | Found angular grid specification: user-specified.
  | Specified grid contains     6 separate shells.
  | Check grid settings after all constraints further below.
  | Found free-atom valence shell :  2 s   2.000
  | Found free-atom valence shell :  2 p   2.000
  | No ionic wave fns used. Skipping ion_occ.
  | No ionic wave fns used. Skipping ion_occ.
  | Found hydrogenic basis function :  2 p   1.700
  | Found hydrogenic basis function :  3 d   6.000
  | Found hydrogenic basis function :  2 s   4.900
  | Found hydrogenic basis function :  4 f   9.800
  | Found hydrogenic basis function :  3 p   5.200
  | Found hydrogenic basis function :  3 s   4.300
  | Found hydrogenic basis function :  5 g  14.400
  | Found hydrogenic basis function :  3 d   6.200
  Species C                   : Missing cutoff potential type.
  Defaulting to exp(1/x)/(1-x)^2 type cutoff potential.
  Species C : No 'logarithmic' tag. Using default grid for free atom:
  | Default logarithmic grid data [bohr] : 0.1000E-03 0.1000E+03 0.1012E+01
  Species C : On-site basis accuracy parameter (for Gram-Schmidt orthonormalisation) not specified.
  Using default value basis_acc =  0.1000000E-03.
  Species C                   : Using default innermost maximum threshold i_radial=  2 for radial functions.
  Species C                   : Default cutoff onset for free atom density etc. : 0.40000000E+01 AA.
  Species C                   : Basic radial grid will be enhanced according to radial_multiplier =   2, to contain    69 grid points.
 
  Reading configuration options for species N                   .
  | Found nuclear charge :   7.0000
  | Found atomic mass :    14.0067000000000      amu
  | Found l_max for Hartree potential  :   6
  | Found cutoff potl. onset [A], width [A], scale factor :    4.00000    2.00000    1.00000
  | Threshold for basis-dependent cutoff potential is   0.100000E-03
  | Found data for basic radial integration grid :    35 points, outermost radius =    7.000 A
  | Found multiplier for basic radial grid :   2
  | Found angular grid specification: user-specified.
  | Specified grid contains     6 separate shells.
  | Check grid settings after all constraints further below.
  | Found free-atom valence shell :  2 s   2.000
  | Found free-atom valence shell :  2 p   3.000
  | No ionic wave fns used. Skipping ion_occ.
  | No ionic wave fns used. Skipping ion_occ.
  | Found hydrogenic basis function :  2 p   1.800
  | Found hydrogenic basis function :  3 d   6.800
  | Found hydrogenic basis function :  3 s   5.800
  | Found hydrogenic basis function :  4 f  10.800
  | Found hydrogenic basis function :  3 p   5.800
  | Found hydrogenic basis function :  1 s   0.800
  | Found hydrogenic basis function :  5 g  16.000
  | Found hydrogenic basis function :  3 d   4.900
  Species N                   : Missing cutoff potential type.
  Defaulting to exp(1/x)/(1-x)^2 type cutoff potential.
  Species N : No 'logarithmic' tag. Using default grid for free atom:
  | Default logarithmic grid data [bohr] : 0.1000E-03 0.1000E+03 0.1012E+01
  Species N : On-site basis accuracy parameter (for Gram-Schmidt orthonormalisation) not specified.
  Using default value basis_acc =  0.1000000E-03.
  Species N                   : Using default innermost maximum threshold i_radial=  2 for radial functions.
  Species N                   : Default cutoff onset for free atom density etc. : 0.40000000E+01 AA.
  Species N                   : Basic radial grid will be enhanced according to radial_multiplier =   2, to contain    71 grid points.
 
  Reading configuration options for species O                   .
  | Found nuclear charge :   8.0000
  | Found atomic mass :    15.9994000000000      amu
  | Found l_max for Hartree potential  :   6
  | Found cutoff potl. onset [A], width [A], scale factor :    4.00000    2.00000    1.00000
  | Threshold for basis-dependent cutoff potential is   0.100000E-03
  | Found data for basic radial integration grid :    36 points, outermost radius =    7.000 A
  | Found multiplier for basic radial grid :   2
  | Found angular grid specification: user-specified.
  | Specified grid contains     6 separate shells.
  | Check grid settings after all constraints further below.
  | Found free-atom valence shell :  2 s   2.000
  | Found free-atom valence shell :  2 p   4.000
  | No ionic wave fns used. Skipping ion_occ.
  | No ionic wave fns used. Skipping ion_occ.
  | Found hydrogenic basis function :  2 p   1.800
  | Found hydrogenic basis function :  3 d   7.600
  | Found hydrogenic basis function :  3 s   6.400
  | Found hydrogenic basis function :  4 f  11.600
  | Found hydrogenic basis function :  3 p   6.200
  | Found hydrogenic basis function :  3 d   5.600
  | Found hydrogenic basis function :  5 g  17.600
  | Found hydrogenic basis function :  1 s   0.750
  Species O                   : Missing cutoff potential type.
  Defaulting to exp(1/x)/(1-x)^2 type cutoff potential.
  Species O : No 'logarithmic' tag. Using default grid for free atom:
  | Default logarithmic grid data [bohr] : 0.1000E-03 0.1000E+03 0.1012E+01
  Species O : On-site basis accuracy parameter (for Gram-Schmidt orthonormalisation) not specified.
  Using default value basis_acc =  0.1000000E-03.
  Species O                   : Using default innermost maximum threshold i_radial=  2 for radial functions.
  Species O                   : Default cutoff onset for free atom density etc. : 0.40000000E+01 AA.
  Species O                   : Basic radial grid will be enhanced according to radial_multiplier =   2, to contain    73 grid points.
 
  Finished reading input file 'control.in'. Consistency checks are next.
 
  Target number of points in a grid batch is not set. Defaulting to  100
  Method for grid partitioning is not set. Defaulting to parallel hash+maxmin partitioning.
  Batch size limit is not set. Defaulting to    200
  By default, will store active basis functions for each batch.
  If in need of memory, prune_basis_once .false. can be used to disable this option.
  communication_type for Hartree potential was not specified.
  Defaulting to calc_hartree .
  Pulay mixer: Number of initial linear mixing iterations not set.
  Defaulting to    0 iterations.
  Work space size for distributed Hartree potential not set.
  Defaulting to   0.200000E+03 MB.
  Algorithm-dependent basis array size parameters:
  | n_max_pulay                         :       10
  Geometry relaxation not requested: no relaxation will be performed.
  Handling of forces: Unphysical translation and rotation will be removed from forces.
  No accuracy limit for integral partition fn. given. Defaulting to  0.1000E-14.
  No threshold value for u(r) in integrations given. Defaulting to  0.1000E-05.
  No accuracy for occupation numbers given. Defaulting to  0.1000E-07.
  No threshold value for occupation numbers given. Defaulting to  0.0000E+00.
  No accuracy for fermi level given. Defaulting to  0.1000E-19.
  Maximum # of iterations to find E_F not set. Defaulting to  200.
  Preferred method for the eigenvalue solver ('KS_method') not specified in 'control.in'.
  Calling blacs routine to test compilation state
  Since scalapack support is enabled, defaulting to 'elpa'.
  Preferred method for the MBD eigenvalue solver ('mbd_eigensolver') not specified in 'control.in'.
  Calling blacs routine to test compilation state
  Since scalapack support is enabled, defaulting to 'scaLAPACK'.
  Will not use alltoall communication since running on < 1024 CPUs.
  Threshold for basis singularities not set.
  Default threshold for basis singularities:  0.1000E-04
  partition_type (choice of integration weights) for integrals was not specified.
  | Using a version of the partition function of Stratmann and coworkers ('stratmann_smoother').
  | At each grid point, the set of atoms used to build the partition table is smoothly restricted to
  | only those atoms whose free-atom density would be non-zero at that grid point.
  Partitioning for Hartree potential was not defined. Using partition_type for integrals.
  | Adjusted default value of keyword multip_moments_threshold to:       0.10000000E-11
  | This value may affect high angular momentum components of the Hartree potential in periodic systems.
  No q(lm)/r^(l+1) cutoff set for long-range Hartree potential.
  | Using default value of  0.100000E-09 .
  | Verify using the multipole_threshold keyword.
  Defaulting to new monopole extrapolation.
  Density update method: automatic selection selected.
------------------------------------------------------------


------------------------------------------------------------
          Reading geometry description geometry.in.
------------------------------------------------------------
 * Warning! You did not set the 'relativistic' flag in input file 'control.in'.
 * Since you are not attempting to treat any elements beyond Ca(Z=20), FHI-aims
 * will default to 'relativistic none'.
 * You must ensure that this is really what you want!!
 * For example, DO NOT compute total-energy differences between results from
 * different settings of the 'relativistic' flag.
  Input structure read successfully.
  The structure contains       32 atoms,  and a total of        116.000 electrons.

  Input geometry:
  | No unit cell requested.
  | Atomic structure:
  |       Atom                x [A]            y [A]            z [A]
  |    1: Species C              0.415074        -0.607971        -0.105128
  |    2: Species C              0.078137        -0.343620         1.350266
  |    3: Species O              0.801017         0.318859         2.087481
  |    4: Species H             -0.447302        -0.924563        -0.706034
  |    5: Species H              1.175575        -1.400506        -0.147785
  |    6: Species H              0.850740         0.298211        -0.538728
  |    7: Species N             -1.076206        -0.944071         1.799494
  |    8: Species C             -1.546550        -0.818507         3.169841
  |    9: Species C             -1.118911        -1.981506         4.095440
  |   10: Species O             -1.451511        -1.996718         5.280806
  |   11: Species H             -1.669475        -1.419749         1.128864
  |   12: Species H             -1.038198         0.066263         3.582944
  |   13: Species C             -3.061906        -0.624268         3.223546
  |   14: Species H             -3.387815        -0.573867         4.268087
  |   15: Species H             -3.587415        -1.466065         2.747486
  |   16: Species H             -3.350551         0.302347         2.712153
  |   17: Species N             -0.366395        -2.947244         3.513930
  |   18: Species C              0.249930        -4.019048         4.265907
  |   19: Species C              1.508785        -4.431438         3.483208
  |   20: Species O              1.608701        -4.220697         2.273443
  |   21: Species H             -0.031982        -2.839483         2.557873
  |   22: Species H              0.525296        -3.624491         5.257759
  |   23: Species C             -0.698844        -5.216636         4.454153
  |   24: Species H             -0.227934        -6.009491         5.050886
  |   25: Species H             -0.982064        -5.635190         3.479622
  |   26: Species H             -1.603343        -4.882258         4.975832
  |   27: Species N              2.459771        -5.064864         4.219052
  |   28: Species C              3.692540        -5.577069         3.649376
  |   29: Species H              2.310905        -5.149282         5.217678
  |   30: Species H              3.780235        -6.661706         3.802235
  |   31: Species H              4.568540        -5.082130         4.090754
  |   32: Species H              3.671843        -5.367913         2.574954
  |

  | The smallest distance between any two atoms is         1.01318344 AA.
  |
  | The first atom of this pair is atom number                     27 .
  | The second atom of this pair is atom number                    29 .

  Number of empty states per atom not set in control.in - providing a guess from actual geometry.
  | Total number of empty states used during s.c.f. cycle:       71
  If you use a very high smearing, use empty_states (per atom!) in control.in to increase this value.

  Structure-dependent array size parameters: 
  | Maximum number of distinct radial functions  :       40
  | Maximum number of basis functions            :      840
  | Number of Kohn-Sham states (occupied + empty):      129
------------------------------------------------------------

------------------------------------------------------------
          Preparing all fixed parts of the calculation.
------------------------------------------------------------
  Determining machine precision:
    2.225073858507201E-308
  Setting up grids for atomic and cluster calculations.

  Creating wave function, potential, and density for free atoms.

  Species: H

  List of occupied orbitals and eigenvalues:
    n    l              occ      energy [Ha]    energy [eV]
    1    0           1.0000        -0.238382        -6.4867


  Species: C

  List of occupied orbitals and eigenvalues:
    n    l              occ      energy [Ha]    energy [eV]
    1    0           2.0000       -10.041232      -273.2358
    2    0           2.0000        -0.504327       -13.7234
    2    1           2.0000        -0.193750        -5.2722


  Species: N

  List of occupied orbitals and eigenvalues:
    n    l              occ      energy [Ha]    energy [eV]
    1    0           2.0000       -14.129007      -384.4699
    2    0           2.0000        -0.681802       -18.5528
    2    1           3.0000        -0.260543        -7.0897


  Species: O

  List of occupied orbitals and eigenvalues:
    n    l              occ      energy [Ha]    energy [eV]
    1    0           2.0000       -18.898576      -514.2564
    2    0           2.0000        -0.878795       -23.9132
    2    1           4.0000        -0.332075        -9.0362

  Creating fixed part of basis set: Ionic, confined, hydrogenic.
 
  H                    hydrogenic:
 
  List of hydrogenic basis orbitals: 
    n    l      effective z      eigenvalue [eV]  inner max. [A]     outer max. [A]     outer radius [A]   
    2    0         2.100000       -14.9965           0.193243           1.317208           5.373006
    2    1         3.500000       -41.6672           0.602369           0.602369           4.056063
    1    0         0.850000        -9.8292           0.624871           0.624871           5.373006
    2    1         3.700000       -46.5653           0.573622           0.573622           3.910002
    2    0         1.200000        -4.5995           0.334980           2.228188           5.505995
    3    2         7.000000       -74.0753           0.680699           0.680699           3.769201
 
 
  C                    hydrogenic:
 
  List of hydrogenic basis orbitals: 
    n    l      effective z      eigenvalue [eV]  inner max. [A]     outer max. [A]     outer radius [A]   
    2    1         1.700000        -9.8152           1.245706           1.245706           5.401630
    3    2         6.000000       -54.4226           0.792453           0.792453           4.178599
    2    0         4.900000       -81.6681           0.082559           0.562749           3.353238
    4    3         9.800000       -81.6681           0.863254           0.863254           4.028125
    3    1         5.200000       -40.8774           0.305389           1.215618           4.898362
    3    0         4.300000       -27.9508           0.091041           1.610311           5.401630
    5    4        14.400000      -112.8510           0.917666           0.917666           3.883070
    3    2         6.200000       -58.1113           0.763917           0.763917           4.077671
 
 
  N                    hydrogenic:
 
  List of hydrogenic basis orbitals: 
    n    l      effective z      eigenvalue [eV]  inner max. [A]     outer max. [A]     outer radius [A]   
    2    1         1.800000       -11.0118           1.177451           1.177451           5.427479
    3    2         6.800000       -69.9029           0.704619           0.704619           3.854246
    3    0         5.800000       -50.8549           0.067388           1.191934           4.629968
    4    3        10.800000       -99.1854           0.786571           0.786571           3.761152
    3    1         5.800000       -50.8549           0.274880           1.094176           4.518138
    1    0         0.800000        -8.7059           0.662839           0.662839           5.361532
    5    4        16.000000      -139.3222           0.825990           0.825990           3.625711
    3    2         4.900000       -36.2967           0.968267           0.968267           4.862000
 
 
  O                    hydrogenic:
 
  List of hydrogenic basis orbitals: 
    n    l      effective z      eigenvalue [eV]  inner max. [A]     outer max. [A]     outer radius [A]   
    2    1         1.800000       -11.0118           1.178562           1.178562           5.432602
    3    2         7.600000       -87.3182           0.624125           0.624125           3.541477
    3    0         6.400000       -61.9209           0.061167           1.081902           4.306578
    4    3        11.600000      -114.4238           0.731631           0.731631           3.585037
    3    1         6.200000       -58.1113           0.255680           1.030270           4.306578
    3    2         5.600000       -47.4081           0.847233           0.847233           4.413171
    5    4        17.600000      -168.5799           0.749740           0.749740           3.372465
    1    0         0.750000        -7.6499           0.705284           0.705284           5.366593
 

  Adding cutoff potential to free-atom effective potential.
  Creating atomic-like basis functions for current effective potential.

  Species H                   :

  List of atomic basis orbitals and eigenvalues:
    n    l      energy [Ha]    energy [eV]    outer radius [A]
    1    0        -0.238382        -6.4867       5.373006


  Species C                   :

  List of atomic basis orbitals and eigenvalues:
    n    l      energy [Ha]    energy [eV]    outer radius [A]
    1    0       -10.041232      -273.2358       1.934409
    2    0        -0.504327       -13.7234       5.271162
    2    1        -0.193750        -5.2722       5.401630


  Species N                   :

  List of atomic basis orbitals and eigenvalues:
    n    l      energy [Ha]    energy [eV]    outer radius [A]
    1    0       -14.129007      -384.4699       1.637919
    2    0        -0.681802       -18.5528       5.168461
    2    1        -0.260543        -7.0897       5.361532


  Species O                   :

  List of atomic basis orbitals and eigenvalues:
    n    l      energy [Ha]    energy [eV]    outer radius [A]
    1    0       -18.898576      -514.2564       1.415765
    2    0        -0.878795       -23.9132       5.048385
    2    1        -0.332075        -9.0362       5.301386

  Assembling full basis from fixed parts.
  | Species H :   atomic orbital   1 s accepted.
  | Species H :    hydro orbital   2 s accepted.
  | Species H :    hydro orbital   1 s accepted.
  | Species H :    hydro orbital   2 s accepted.
  | Species H :    hydro orbital   2 p accepted.
  | Species H :    hydro orbital   2 p accepted.
  | Species H :    hydro orbital   3 d accepted.
  | Species C :   atomic orbital   1 s accepted.
  | Species C :    hydro orbital   2 s accepted.
  | Species C :   atomic orbital   2 s accepted.
  | Species C :    hydro orbital   3 s accepted.
  | Species C :    hydro orbital   3 p accepted.
  | Species C :   atomic orbital   2 p accepted.
  | Species C :    hydro orbital   2 p accepted.
  | Species C :    hydro orbital   3 d accepted.
  | Species C :    hydro orbital   3 d accepted.
  | Species C :    hydro orbital   4 f accepted.
  | Species C :    hydro orbital   5 g accepted.
  | Species N :   atomic orbital   1 s accepted.
  | Species N :    hydro orbital   3 s accepted.
  | Species N :   atomic orbital   2 s accepted.
  | Species N :    hydro orbital   1 s accepted.
  | Species N :    hydro orbital   3 p accepted.
  | Species N :   atomic orbital   2 p accepted.
  | Species N :    hydro orbital   2 p accepted.
  | Species N :    hydro orbital   3 d accepted.
  | Species N :    hydro orbital   3 d accepted.
  | Species N :    hydro orbital   4 f accepted.
  | Species N :    hydro orbital   5 g accepted.
  | Species O :   atomic orbital   1 s accepted.
  | Species O :    hydro orbital   3 s accepted.
  | Species O :   atomic orbital   2 s accepted.
  | Species O :    hydro orbital   1 s accepted.
  | Species O :    hydro orbital   3 p accepted.
  | Species O :   atomic orbital   2 p accepted.
  | Species O :    hydro orbital   2 p accepted.
  | Species O :    hydro orbital   3 d accepted.
  | Species O :    hydro orbital   3 d accepted.
  | Species O :    hydro orbital   4 f accepted.
  | Species O :    hydro orbital   5 g accepted.
 
  Basis size parameters after reduction:
  | Total number of radial functions:       40
  | Total number of basis functions :      840
 
  Testing on-site integration grid accuracy.
  |  Species  Function  <phi|h_atom|phi> (log., in eV)  <phi|h_atom|phi> (rad., in eV)
           1        1                 -6.4869821809                 -6.4870742227
           1        2                 13.5044133542                 13.5041049177
           1        3                 32.7854418792                 32.7779770519
           1        4                 33.7995553101                 33.7152624900 ***
           1        5                 28.8558651799                 28.8558652046
           1        6                 59.6361831893                 59.6362535845
           1        7                 60.2733718049                 60.2733715484
           2        8               -273.2358277112               -273.2358261765
           2        9                -10.7624923123                -10.7625144012
           2       10                 17.4634079027                 17.4634252127
           2       11                 53.0363661832                 53.0366180446
           2       12                 15.0981351967                 15.0981317714
           2       13                  3.8522181899                  3.8522770949
           2       14                 12.1181835661                 12.1206868578
           2       15                 29.4320778347                 29.4320780959
           2       16                 54.8753777694                 54.8752901936
           2       17                 59.3533975461                 59.3533974833
           2       18                 93.4537491195                 93.4537492066
           3       19               -384.4698526889               -384.4698499465
           3       20                 12.5691022037                 12.5690910168
           3       21                -15.7489097511                -15.7489165588
           3       22                 27.0978334940                 27.0985589490
           3       23                 18.5949116966                 18.5949125562
           3       24                  1.2212828291                  1.2212855301
           3       25                 13.4428926797                 13.4434051125
           3       26                 35.9380614500                 35.9380613666
           3       27                 39.9231532098                 39.9231654735
           3       28                 72.9957335806                 72.9957336833
           3       29                116.4231321147                116.4231321431
           4       30               -514.2564144315               -514.2564099626
           4       31                 15.1726678541                 15.1726530877
           4       32                -21.5447785304                -21.5447874973
           4       33                 14.4944558459                 14.4944698284
           4       34                 20.8882174564                 20.8882178906
           4       35                 -2.4850315908                 -2.4850322289
           4       36                 13.8600193195                 13.8599826966
           4       37                 45.8243383616                 45.8243383675
           4       38                 52.1840606465                 52.1840622440
           4       39                 85.4074185510                 85.4074185819
           4       40                142.0983717302                142.0983717339
 * Note: Onsite integrals marked "***" above are less accurate than
 * onsite_accuracy_threshold =    0.03000 eV. Usually, this is harmless.
 * When in doubt, tighten the "radial" and/or "radial_multiplier" flags to check.

  Preparing densities etc. for the partition functions (integrals / Hartree potential).

  Preparations completed.
  max(cpu_time)          :      0.240 s.
  Wall clock time (cpu1) :      0.238 s.
------------------------------------------------------------

------------------------------------------------------------
          Begin self-consistency loop: Initialization.

          Date     :  20170309, Time     :  160742.079
------------------------------------------------------------

  Initializing index lists of integration centers etc. from given atomic structure:
  | Number of centers in hartree potential         :        32
  | Number of centers in hartree multipole         :        32
  | Number of centers in electron density summation:        32
  | Number of centers in basis integrals           :        32
  | Number of centers in integrals                 :        32
  | Number of centers in hamiltonian               :        32
  Using modified Scalapack Eigenvalue solver (ELPA)
  * Using 32 tasks for Scalapack Eigenvalue solver.
  Detailed listing of tasks and assigned k-points:
  (for non-periodic systems, the "k-point" denotes an internal label only)
   Task     0 k-point     1 on eos057
   Task     1 k-point     1 on eos057
   Task     2 k-point     1 on eos057
   Task     3 k-point     1 on eos057
   Task     4 k-point     1 on eos057
   Task     5 k-point     1 on eos057
   Task     6 k-point     1 on eos057
   Task     7 k-point     1 on eos057
   Task     8 k-point     1 on eos057
   Task     9 k-point     1 on eos057
   Task    10 k-point     1 on eos057
   Task    11 k-point     1 on eos057
   Task    12 k-point     1 on eos057
   Task    13 k-point     1 on eos057
   Task    14 k-point     1 on eos057
   Task    15 k-point     1 on eos057
   Task    16 k-point     1 on eos057
   Task    17 k-point     1 on eos057
   Task    18 k-point     1 on eos057
   Task    19 k-point     1 on eos057
   Task    20 k-point     1 on eos057
   Task    21 k-point     1 on eos057
   Task    22 k-point     1 on eos057
   Task    23 k-point     1 on eos057
   Task    24 k-point     1 on eos057
   Task    25 k-point     1 on eos057
   Task    26 k-point     1 on eos057
   Task    27 k-point     1 on eos057
   Task    28 k-point     1 on eos057
   Task    29 k-point     1 on eos057
   Task    30 k-point     1 on eos057
   Task    31 k-point     1 on eos057
  Tasks:    32 split into      8 X      4 BLACS grid
  Calculating blocksize based on n_basis =          840 max_nprow =            8 max_npcol =            4
  Scalapack blocksize set to:           16
  Required Scalapack workspace - INTEGER:            1 REAL:             1
  Partitioning the integration grid into batches with parallel hashing+maxmin method.
  | Number of batches:     4939
  | Maximal batch size:     200
  | Minimal batch size:      19
  | Average batch size:     106.849
  | Standard deviation of batch sizes:      32.488

  Integration load balanced across    32 MPI tasks.
  Work distribution over tasks is as follows:
  Task     0 has      16494 integration points.
  Task     1 has      16472 integration points.
  Task     2 has      16539 integration points.
  Task     3 has      16530 integration points.
  Task     4 has      16523 integration points.
  Task     5 has      16446 integration points.
  Task     6 has      16528 integration points.
  Task     7 has      16516 integration points.
  Task     8 has      16410 integration points.
  Task     9 has      16394 integration points.
  Task    10 has      16462 integration points.
  Task    11 has      16513 integration points.
  Task    12 has      16521 integration points.
  Task    13 has      16469 integration points.
  Task    14 has      16483 integration points.
  Task    15 has      16512 integration points.
  Task    16 has      16523 integration points.
  Task    17 has      16484 integration points.
  Task    18 has      16476 integration points.
  Task    19 has      16531 integration points.
  Task    20 has      16500 integration points.
  Task    21 has      16469 integration points.
  Task    22 has      16472 integration points.
  Task    23 has      16456 integration points.
  Task    24 has      16468 integration points.
  Task    25 has      16517 integration points.
  Task    26 has      16500 integration points.
  Task    27 has      16500 integration points.
  Task    28 has      16511 integration points.
  Task    29 has      16496 integration points.
  Task    30 has      16493 integration points.
  Task    31 has      16520 integration points.
  Initializing partition tables, free-atom densities, potentials, etc. across the integration grid (initialize_grid_storage).
  | initialize_grid_storage: Actual outermost partition radius vs. multipole_radius_free
  | (-- VB: in principle, multipole_radius_free should be larger, hence this output)
  | Species        1: Confinement radius =              6.000000000000000 AA, multipole_radius_free =              6.071692442739658 AA.
  | Species        1: outer_partition_radius set to              6.071692442739658 AA .
  | Species        2: Confinement radius =              6.000000000000000 AA, multipole_radius_free =              6.029870734432609 AA.
  | Species        2: outer_partition_radius set to              6.029870734432609 AA .
  | Species        3: Confinement radius =              6.000000000000000 AA, multipole_radius_free =              6.058726835495003 AA.
  | Species        3: outer_partition_radius set to              6.058726835495003 AA .
  | Species        4: Confinement radius =              6.000000000000000 AA, multipole_radius_free =              6.064445521808699 AA.
  | Species        4: outer_partition_radius set to              6.064445521808699 AA .
  | Original list of interatomic distances with          32 x         32 entries is created.
  | Net number of integration points:   527728
  | of which are non-zero points    :   417255
  Obtaining max. number of non-zero basis functions in each batch (get_n_compute_maxes).
  | Maximal number of non-zero basis functions:      744 in task     0
  | Maximal number of non-zero basis functions:      743 in task     1
  | Maximal number of non-zero basis functions:      739 in task     2
  | Maximal number of non-zero basis functions:      745 in task     3
  | Maximal number of non-zero basis functions:      740 in task     4
  | Maximal number of non-zero basis functions:      751 in task     5
  | Maximal number of non-zero basis functions:      744 in task     6
  | Maximal number of non-zero basis functions:      738 in task     7
  | Maximal number of non-zero basis functions:      737 in task     8
  | Maximal number of non-zero basis functions:      738 in task     9
  | Maximal number of non-zero basis functions:      737 in task    10
  | Maximal number of non-zero basis functions:      750 in task    11
  | Maximal number of non-zero basis functions:      744 in task    12
  | Maximal number of non-zero basis functions:      758 in task    13
  | Maximal number of non-zero basis functions:      746 in task    14
  | Maximal number of non-zero basis functions:      745 in task    15
  | Maximal number of non-zero basis functions:      751 in task    16
  | Maximal number of non-zero basis functions:      739 in task    17
  | Maximal number of non-zero basis functions:      732 in task    18
  | Maximal number of non-zero basis functions:      740 in task    19
  | Maximal number of non-zero basis functions:      746 in task    20
  | Maximal number of non-zero basis functions:      759 in task    21
  | Maximal number of non-zero basis functions:      761 in task    22
  | Maximal number of non-zero basis functions:      741 in task    23
  | Maximal number of non-zero basis functions:      751 in task    24
  | Maximal number of non-zero basis functions:      753 in task    25
  | Maximal number of non-zero basis functions:      738 in task    26
  | Maximal number of non-zero basis functions:      747 in task    27
  | Maximal number of non-zero basis functions:      747 in task    28
  | Maximal number of non-zero basis functions:      737 in task    29
  | Maximal number of non-zero basis functions:      755 in task    30
  | Maximal number of non-zero basis functions:      750 in task    31
  Selecting the method for density update.
  Loop over occupied states selected for charge density update.
  Integrating Hamiltonian matrix: batch-based integration.
  Time summed over all CPUs for integration: real work       19.345 s, elapsed       20.254 s
  Integrating overlap matrix.
  Time summed over all CPUs for integration: real work       11.457 s, elapsed       11.805 s
  Deallocating overlap matrix.

  Updating Kohn-Sham eigenvalues, eigenvectors, occupation numbers, and Fermi level.
  Solving generalized eigenproblem
  Solving real symmetric generalised eigenvalue problem by standard ScaLAPACK.
  Transforming overlap matrix with ScaLAPACK and checking for singularities.
  : Overlap matrix is nonsingular, using Cholesky decomposition
  | Lowest eigenvalue:  0.796714E-04
  Factoring overlap matrix with Cholesky decomposition
  Using Cholesky factor for transformation
  Using 1-stage real ELPA solver
  Determining occupation numbers for Kohn-Sham eigenstates.
  | Chemical potential (Fermi level) in eV                 : -.90063598E+01
  | Error in electron count due to remaining E_F inaccuracy: 0.00000000E+00
  | Maximum occupation number of highest empty state:  0.00E+00

  Writing Kohn-Sham eigenvalues.

  State    Occupation    Eigenvalue [Ha]    Eigenvalue [eV]
      1       2.00000         -18.974717         -516.32832
      2       2.00000         -18.974087         -516.31117
      3       2.00000         -18.973580         -516.29739
      4       2.00000         -14.257505         -387.96646
      5       2.00000         -14.256899         -387.94996
      6       2.00000         -14.254390         -387.88167
      7       2.00000         -10.171054         -276.76845
      8       2.00000         -10.170847         -276.76284
      9       2.00000         -10.170077         -276.74188
     10       2.00000         -10.166835         -276.65366
     11       2.00000         -10.149314         -276.17688
     12       2.00000         -10.148948         -276.16691
     13       2.00000         -10.135940         -275.81296
     14       2.00000         -10.135392         -275.79805
     15       2.00000         -10.134942         -275.78580
     16       2.00000          -1.134551          -30.87270
     17       2.00000          -1.132028          -30.80404
     18       2.00000          -1.128089          -30.69686
     19       2.00000          -1.024848          -27.88753
     20       2.00000          -1.015196          -27.62490
     21       2.00000          -1.008470          -27.44186
     22       2.00000          -0.890054          -24.21959
     23       2.00000          -0.876362          -23.84701
     24       2.00000          -0.841541          -22.89951
     25       2.00000          -0.819831          -22.30874
     26       2.00000          -0.780917          -21.24983
     27       2.00000          -0.746967          -20.32602
     28       2.00000          -0.697295          -18.97435
     29       2.00000          -0.691750          -18.82347
     30       2.00000          -0.684362          -18.62243
     31       2.00000          -0.655598          -17.83973
     32       2.00000          -0.630069          -17.14504
     33       2.00000          -0.604163          -16.44012
     34       2.00000          -0.597054          -16.24668
     35       2.00000          -0.594067          -16.16539
     36       2.00000          -0.578419          -15.73960
     37       2.00000          -0.572373          -15.57507
     38       2.00000          -0.562698          -15.31178
     39       2.00000          -0.556318          -15.13817
     40       2.00000          -0.554062          -15.07679
     41       2.00000          -0.546415          -14.86872
     42       2.00000          -0.544691          -14.82181
     43       2.00000          -0.541907          -14.74605
     44       2.00000          -0.530011          -14.42235
     45       2.00000          -0.518695          -14.11442
     46       2.00000          -0.514586          -14.00259
     47       2.00000          -0.512557          -13.94737
     48       2.00000          -0.499008          -13.57869
     49       2.00000          -0.497730          -13.54392
     50       2.00000          -0.486204          -13.23029
     51       2.00000          -0.479362          -13.04411
     52       2.00000          -0.470212          -12.79511
     53       2.00000          -0.419196          -11.40690
     54       2.00000          -0.404313          -11.00191
     55       2.00000          -0.403281          -10.97384
     56       2.00000          -0.393476          -10.70704
     57       2.00000          -0.383941          -10.44757
     58       2.00000          -0.378247          -10.29263
     59       0.00000          -0.164420           -4.47409
     60       0.00000          -0.156102           -4.24775
     61       0.00000          -0.152276           -4.14365
     62       0.00000          -0.077921           -2.12034
     63       0.00000          -0.069582           -1.89342
     64       0.00000          -0.052824           -1.43741
     65       0.00000          -0.049624           -1.35033
     66       0.00000          -0.042260           -1.14996
     67       0.00000          -0.040349           -1.09795
     68       0.00000          -0.036291           -0.98754
     69       0.00000          -0.029963           -0.81534
     70       0.00000          -0.024895           -0.67742
     71       0.00000          -0.021107           -0.57434
     72       0.00000          -0.017543           -0.47736
     73       0.00000          -0.005636           -0.15336
     74       0.00000          -0.004133           -0.11246
     75       0.00000          -0.001903           -0.05180
     76       0.00000          -0.000987           -0.02685
     77       0.00000          -0.000228           -0.00620
     78       0.00000           0.006677            0.18170
     79       0.00000           0.008981            0.24440
     80       0.00000           0.017071            0.46451
     81       0.00000           0.019864            0.54054
     82       0.00000           0.024013            0.65344
     83       0.00000           0.032214            0.87658
     84       0.00000           0.035802            0.97423
     85       0.00000           0.039798            1.08295
     86       0.00000           0.045324            1.23334
     87       0.00000           0.048359            1.31590
     88       0.00000           0.056995            1.55092
     89       0.00000           0.058636            1.59557
     90       0.00000           0.062981            1.71381
     91       0.00000           0.071805            1.95391
     92       0.00000           0.076228            2.07427
     93       0.00000           0.081601            2.22048
     94       0.00000           0.089576            2.43750
     95       0.00000           0.092767            2.52432
     96       0.00000           0.101228            2.75456
     97       0.00000           0.102037            2.77656
     98       0.00000           0.109997            2.99317
     99       0.00000           0.114017            3.10256
    100       0.00000           0.119148            3.24219
    101       0.00000           0.121372            3.30269
    102       0.00000           0.132402            3.60285
    103       0.00000           0.137832            3.75059
    104       0.00000           0.141386            3.84730
    105       0.00000           0.143311            3.89969
    106       0.00000           0.145210            3.95136
    107       0.00000           0.152617            4.15293
    108       0.00000           0.159284            4.33434
    109       0.00000           0.167207            4.54992
    110       0.00000           0.169157            4.60300
    111       0.00000           0.175114            4.76509
    112       0.00000           0.179902            4.89539
    113       0.00000           0.186975            5.08784
    114       0.00000           0.189498            5.15650
    115       0.00000           0.192317            5.23322
    116       0.00000           0.194681            5.29755
    117       0.00000           0.199869            5.43871
    118       0.00000           0.204029            5.55191
    119       0.00000           0.208510            5.67383
    120       0.00000           0.213705            5.81520
    121       0.00000           0.218566            5.94749
    122       0.00000           0.221714            6.03316
    123       0.00000           0.224274            6.10280
    124       0.00000           0.235509            6.40853
    125       0.00000           0.239183            6.50851
    126       0.00000           0.243815            6.63455
    127       0.00000           0.246926            6.71921
    128       0.00000           0.255302            6.94711
    129       0.00000           0.257066            6.99511

  Highest occupied state (VBM) at    -10.29262668 eV
  | Occupation number:      2.00000000

  Lowest unoccupied state (CBM) at    -4.47409048 eV
  | Occupation number:      0.00000000

  Overall HOMO-LUMO gap:      5.81853620 eV.
  Calculating total energy contributions from superposition of free atom densities.

  Total energy components:
  | Sum of eigenvalues            :        -437.95088187 Ha      -11917.24983861 eV
  | XC energy correction          :         -98.81627497 Ha       -2688.92765305 eV
  | XC potential correction       :         127.01464738 Ha        3456.24440702 eV
  | Free-atom electrostatic energy:        -333.55518984 Ha       -9076.49852272 eV
  | Hartree energy correction     :           0.00000000 Ha           0.00000000 eV
  | MBD@rsSCS energy              :           0.00000000 Ha           0.00000000 eV
  | Entropy correction            :          -0.00000000 Ha          -0.00000000 eV
  | ---------------------------
  | Total energy                  :        -743.30769930 Ha      -20226.43160736 eV
  | Total energy, T -> 0          :        -743.30769930 Ha      -20226.43160736 eV  <-- do not rely on this value for anything but (periodic) metals
  | Electronic free energy        :        -743.30769930 Ha      -20226.43160736 eV

  Derived energy quantities:
  | Kinetic energy                :         735.14881903 Ha       20004.41717923 eV
  | Electrostatic energy          :       -1379.64024335 Ha      -37541.92113354 eV
  | Energy correction for multipole
  | error in Hartree potential    :           0.00000000 Ha           0.00000000 eV
  | Sum of eigenvalues per atom                           :        -372.41405746 eV
  | Total energy (T->0) per atom                          :        -632.07598773 eV  <-- do not rely on this value for anything but (periodic) metals
  | Electronic free energy per atom                       :        -632.07598773 eV
  Initialize hartree_potential_storage
  Max. number of atoms included in rho_multipole:           32

  End scf initialization - timings             :  max(cpu_time)    wall_clock(cpu1)
  | Time for scf. initialization               :        1.784 s           1.786 s
  | Boundary condition initialization          :        0.004 s           0.001 s
  | Integration                                :        1.024 s           1.022 s
  | Solution of K.-S. eqns.                    :        0.076 s           0.076 s
  | Grid partitioning                          :        0.368 s           0.366 s
  | Preloading free-atom quantities on grid    :        0.028 s           0.028 s
  | Free-atom superposition energy             :        0.040 s           0.036 s
  | Total energy evaluation                    :        0.004 s           0.001 s
------------------------------------------------------------

------------------------------------------------------------
          Begin self-consistency iteration #    1

  Date     :  20170309, Time     :  160743.865
------------------------------------------------------------
  Evaluating new KS density.
  Integration grid: deviation in total charge (<rho> - N_e) =   4.263256E-14
  Pulay mixing of updated and previous charge densities.

  Evaluating partitioned Hartree potential by multipole expansion.
  | Analytical far-field extrapolation by fixed multipoles:
  | Hartree multipole sum: apparent total charge =  -0.105023E-04
  Summing up the Hartree potential.
  Time summed over all CPUs for potential: real work        9.436 s, elapsed        9.592 s
  | RMS charge density error from multipole expansion :   0.107135E-01

  Integrating Hamiltonian matrix: batch-based integration.
  Time summed over all CPUs for integration: real work       19.439 s, elapsed       20.218 s

  Updating Kohn-Sham eigenvalues, eigenvectors, occupation numbers, and Fermi level.
  Solving generalized eigenproblem
  Solving real symmetric generalised eigenvalue problem by standard ScaLAPACK.
  Using Cholesky factor for transformation
  Using 2-stage real ELPA solver
  K-Point:    1, Trafo times: 1-stage=     0.021 s, 2-stage=     0.019 s ==> Using 2-stage solver
  Determining occupation numbers for Kohn-Sham eigenstates.
  | Chemical potential (Fermi level) in eV                 : -.38638450E+01
  | Error in electron count due to remaining E_F inaccuracy: 0.00000000E+00
  | Maximum occupation number of highest empty state:  0.00E+00

  Writing Kohn-Sham eigenvalues.

  State    Occupation    Eigenvalue [Ha]    Eigenvalue [eV]
      1       2.00000         -18.628060         -506.89531
      2       2.00000         -18.608344         -506.35881
      3       2.00000         -18.606653         -506.31278
      4       2.00000         -13.993333         -380.77797
      5       2.00000         -13.992318         -380.75034
      6       2.00000         -13.977667         -380.35168
      7       2.00000         -10.055043         -273.61163
      8       2.00000         -10.049389         -273.45778
      9       2.00000         -10.042135         -273.26041
     10       2.00000          -9.956628         -270.93363
     11       2.00000          -9.951375         -270.79070
     12       2.00000          -9.885415         -268.99583
     13       2.00000          -9.847160         -267.95485
     14       2.00000          -9.832211         -267.54808
     15       2.00000          -9.832168         -267.54690
     16       2.00000          -0.968043          -26.34179
     17       2.00000          -0.956696          -26.03303
     18       2.00000          -0.947110          -25.77217
     19       2.00000          -0.868258          -23.62650
     20       2.00000          -0.865429          -23.54953
     21       2.00000          -0.853675          -23.22968
     22       2.00000          -0.741152          -20.16778
     23       2.00000          -0.721839          -19.64223
     24       2.00000          -0.683322          -18.59415
     25       2.00000          -0.671259          -18.26589
     26       2.00000          -0.630183          -17.14815
     27       2.00000          -0.602273          -16.38869
     28       2.00000          -0.564806          -15.36915
     29       2.00000          -0.563894          -15.34433
     30       2.00000          -0.548281          -14.91949
     31       2.00000          -0.522862          -14.22780
     32       2.00000          -0.487033          -13.25284
     33       2.00000          -0.460003          -12.51732
     34       2.00000          -0.450719          -12.26469
     35       2.00000          -0.448924          -12.21584
     36       2.00000          -0.434604          -11.82617
     37       2.00000          -0.429026          -11.67438
     38       2.00000          -0.422278          -11.49078
     39       2.00000          -0.409512          -11.14338
     40       2.00000          -0.398199          -10.83554
     41       2.00000          -0.393440          -10.70604
     42       2.00000          -0.385402          -10.48733
     43       2.00000          -0.376330          -10.24047
     44       2.00000          -0.374681          -10.19558
     45       2.00000          -0.371498          -10.10898
     46       2.00000          -0.362858           -9.87387
     47       2.00000          -0.355689           -9.67878
     48       2.00000          -0.353585           -9.62154
     49       2.00000          -0.344186           -9.36579
     50       2.00000          -0.342982           -9.33302
     51       2.00000          -0.333305           -9.06969
     52       2.00000          -0.320377           -8.71791
     53       2.00000          -0.245813           -6.68891
     54       2.00000          -0.238631           -6.49348
     55       2.00000          -0.228158           -6.20850
     56       2.00000          -0.220718           -6.00605
     57       2.00000          -0.205310           -5.58676
     58       2.00000          -0.198636           -5.40517
     59       0.00000          -0.046492           -1.26512
     60       0.00000          -0.038179           -1.03890
     61       0.00000          -0.035210           -0.95810
     62       0.00000          -0.035025           -0.95308
     63       0.00000          -0.028384           -0.77236
     64       0.00000          -0.006714           -0.18271
     65       0.00000          -0.001726           -0.04696
     66       0.00000           0.006474            0.17617
     67       0.00000           0.008203            0.22321
     68       0.00000           0.016396            0.44614
     69       0.00000           0.029361            0.79895
     70       0.00000           0.031318            0.85220
     71       0.00000           0.035954            0.97835
     72       0.00000           0.039692            1.08008
     73       0.00000           0.044448            1.20948
     74       0.00000           0.047367            1.28892
     75       0.00000           0.058129            1.58177
     76       0.00000           0.059208            1.61112
     77       0.00000           0.064110            1.74453
     78       0.00000           0.065925            1.79391
     79       0.00000           0.074245            2.02032
     80       0.00000           0.086774            2.36125
     81       0.00000           0.091843            2.49919
     82       0.00000           0.094864            2.58138
     83       0.00000           0.097729            2.65934
     84       0.00000           0.103340            2.81204
     85       0.00000           0.105352            2.86677
     86       0.00000           0.110825            3.01571
     87       0.00000           0.116187            3.16162
     88       0.00000           0.122760            3.34048
     89       0.00000           0.127010            3.45610
     90       0.00000           0.133435            3.63096
     91       0.00000           0.141676            3.85520
     92       0.00000           0.146114            3.97596
     93       0.00000           0.149783            4.07581
     94       0.00000           0.155425            4.22933
     95       0.00000           0.161656            4.39888
     96       0.00000           0.165804            4.51175
     97       0.00000           0.170640            4.64334
     98       0.00000           0.179743            4.89105
     99       0.00000           0.183115            4.98281
    100       0.00000           0.194006            5.27918
    101       0.00000           0.196753            5.35393
    102       0.00000           0.204336            5.56026
    103       0.00000           0.205860            5.60174
    104       0.00000           0.209150            5.69127
    105       0.00000           0.211528            5.75598
    106       0.00000           0.214413            5.83447
    107       0.00000           0.217286            5.91267
    108       0.00000           0.222316            6.04953
    109       0.00000           0.225923            6.14767
    110       0.00000           0.230182            6.26357
    111       0.00000           0.235283            6.40238
    112       0.00000           0.241737            6.57800
    113       0.00000           0.248879            6.77234
    114       0.00000           0.252193            6.86252
    115       0.00000           0.255042            6.94005
    116       0.00000           0.263898            7.18103
    117       0.00000           0.264907            7.20850
    118       0.00000           0.265939            7.23656
    119       0.00000           0.272146            7.40546
    120       0.00000           0.273278            7.43627
    121       0.00000           0.282325            7.68245
    122       0.00000           0.292376            7.95596
    123       0.00000           0.296705            8.07376
    124       0.00000           0.302804            8.23972
    125       0.00000           0.307918            8.37886
    126       0.00000           0.319036            8.68141
    127       0.00000           0.324305            8.82480
    128       0.00000           0.332920            9.05922
    129       0.00000           0.342030            9.30711

  Highest occupied state (VBM) at     -5.40516943 eV
  | Occupation number:      2.00000000

  Lowest unoccupied state (CBM) at    -1.26512309 eV
  | Occupation number:      0.00000000

  Overall HOMO-LUMO gap:      4.14004635 eV.

  Total energy components:
  | Sum of eigenvalues            :        -417.11775577 Ha      -11350.35163393 eV
  | XC energy correction          :        -100.76447764 Ha       -2741.94094507 eV
  | XC potential correction       :         129.54245016 Ha        3525.02942050 eV
  | Free-atom electrostatic energy:        -333.55518984 Ha       -9076.49852272 eV
  | Hartree energy correction     :         -20.83554262 Ha        -566.96396140 eV
  | MBD@rsSCS energy              :           0.00000000 Ha           0.00000000 eV
  | Entropy correction            :           0.00000000 Ha           0.00000000 eV
  | ---------------------------
  | Total energy                  :        -742.73051570 Ha      -20210.72564261 eV
  | Total energy, T -> 0          :        -742.73051570 Ha      -20210.72564261 eV  <-- do not rely on this value for anything but (periodic) metals
  | Electronic free energy        :        -742.73051570 Ha      -20210.72564261 eV

  Derived energy quantities:
  | Kinetic energy                :         744.08908923 Ha       20247.69430934 eV
  | Electrostatic energy          :       -1386.05512729 Ha      -37716.47900689 eV
  | Energy correction for multipole
  | error in Hartree potential    :          -0.04144884 Ha          -1.12788039 eV
  | Sum of eigenvalues per atom                           :        -354.69848856 eV
  | Total energy (T->0) per atom                          :        -631.58517633 eV  <-- do not rely on this value for anything but (periodic) metals
  | Electronic free energy per atom                       :        -631.58517633 eV

  Self-consistency convergence accuracy:
  | Change of charge density      :  0.9025E+00
  | Change of sum of eigenvalues  :  0.5669E+03 eV
  | Change of total energy        :  0.1571E+02 eV

  End self-consistency iteration #     1       :  max(cpu_time)    wall_clock(cpu1)
  | Time for this iteration                    :        1.444 s           1.443 s
[...]
   Multipole                     : -0.732206E-01 -0.101739E+00  0.644047E+00
   Pulay + GGA                   : -0.127867E+01 -0.226568E+01  0.129946E+02
   MBD@rsSCS                     : -0.903506E-02  0.519560E-02  0.119586E-01
   ----------------------------------------------------------------
   Total forces(  20)            :  0.339002E-02 -0.486138E-02  0.588240E-02
  atom #   21
   Hellmann-Feynman              :  0.794605E-02 -0.159333E-01  0.435731E-01
   Ionic forces                  :  0.000000E+00  0.000000E+00  0.000000E+00
   Multipole                     : -0.215093E-01  0.645931E-02  0.598143E-02
   Pulay + GGA                   :  0.101576E-01  0.821846E-02 -0.524957E-01
   MBD@rsSCS                     : -0.934768E-03  0.411852E-02 -0.934083E-03
   ----------------------------------------------------------------
   Total forces(  21)            : -0.434044E-02  0.286297E-02 -0.387521E-02
  atom #   22
   Hellmann-Feynman              : -0.604018E-01  0.271124E-01 -0.589372E-01
   Ionic forces                  :  0.000000E+00  0.000000E+00  0.000000E+00
   Multipole                     :  0.408934E-02 -0.265033E-01  0.617198E-02
   Pulay + GGA                   :  0.519398E-01 -0.697277E-02  0.545942E-01
   MBD@rsSCS                     : -0.633607E-03 -0.173823E-02 -0.222952E-02
   ----------------------------------------------------------------
   Total forces(  22)            : -0.500618E-02 -0.810186E-02 -0.400546E-03
  atom #   23
   Hellmann-Feynman              : -0.787687E+00 -0.645086E+00  0.137563E+00
   Ionic forces                  :  0.000000E+00  0.000000E+00  0.000000E+00
   Multipole                     :  0.167316E+00  0.271479E+00 -0.133247E-01
   Pulay + GGA                   :  0.626633E+00  0.381498E+00 -0.126985E+00
   MBD@rsSCS                     :  0.772523E-02  0.118904E-01 -0.495883E-02
   ----------------------------------------------------------------
   Total forces(  23)            :  0.139862E-01  0.197816E-01 -0.770576E-02
  atom #   24
   Hellmann-Feynman              : -0.470281E-02  0.404417E-01 -0.228302E-01
   Ionic forces                  :  0.000000E+00  0.000000E+00  0.000000E+00
   Multipole                     : -0.250854E-01  0.315079E-03 -0.155204E-01
   Pulay + GGA                   :  0.375857E-01 -0.376969E-01  0.389599E-01
   MBD@rsSCS                     :  0.112455E-01  0.716986E-02 -0.236859E-02
   ----------------------------------------------------------------
   Total forces(  24)            :  0.190431E-01  0.102297E-01 -0.175939E-02
  atom #   25
   Hellmann-Feynman              :  0.261220E-01  0.384036E-01  0.215939E-01
   Ionic forces                  :  0.000000E+00  0.000000E+00  0.000000E+00
   Multipole                     : -0.615812E-02 -0.822992E-02  0.276505E-01
   Pulay + GGA                   : -0.205275E-01 -0.329974E-01 -0.499006E-01
   MBD@rsSCS                     :  0.725792E-02  0.961185E-02 -0.331437E-02
   ----------------------------------------------------------------
   Total forces(  25)            :  0.669428E-02  0.678812E-02 -0.397049E-02
  atom #   26
   Hellmann-Feynman              :  0.537473E-01  0.525769E-01 -0.101449E-01
   Ionic forces                  :  0.000000E+00  0.000000E+00  0.000000E+00
   Multipole                     :  0.295240E-02 -0.352680E-01 -0.116497E-01
   Pulay + GGA                   : -0.548595E-01 -0.686429E-02  0.235330E-01
   MBD@rsSCS                     :  0.487110E-02  0.141265E-01 -0.266437E-02
   ----------------------------------------------------------------
   Total forces(  26)            :  0.671133E-02  0.245711E-01 -0.926004E-03
  atom #   27
   Hellmann-Feynman              : -0.979772E+00  0.466374E+00  0.170426E+00
   Ionic forces                  :  0.000000E+00  0.000000E+00  0.000000E+00
   Multipole                     : -0.156368E+00  0.654029E-01 -0.192544E+00
   Pulay + GGA                   :  0.113576E+01 -0.536003E+00  0.273809E-01
   MBD@rsSCS                     : -0.252161E-01  0.944044E-02 -0.131142E-02
   ----------------------------------------------------------------
   Total forces(  27)            : -0.255943E-01  0.521360E-02  0.395082E-02
  atom #   28
   Hellmann-Feynman              :  0.195027E+01 -0.742892E+00 -0.123627E+01
   Ionic forces                  :  0.000000E+00  0.000000E+00  0.000000E+00
   Multipole                     : -0.150630E+00  0.679032E-01  0.787282E-01
   Pulay + GGA                   : -0.179119E+01  0.672354E+00  0.115150E+01
   MBD@rsSCS                     : -0.666779E-02  0.314767E-02 -0.420420E-02
   ----------------------------------------------------------------
   Total forces(  28)            :  0.178097E-02  0.513003E-03 -0.102475E-01
  atom #   29
   Hellmann-Feynman              : -0.690916E-02  0.147844E-01 -0.345259E-01
   Ionic forces                  :  0.000000E+00  0.000000E+00  0.000000E+00
   Multipole                     :  0.277570E-01 -0.128914E-01 -0.255688E-01
   Pulay + GGA                   : -0.180123E-01 -0.457270E-02  0.626312E-01
   MBD@rsSCS                     : -0.656530E-02  0.802137E-03 -0.398429E-02
   ----------------------------------------------------------------
   Total forces(  29)            : -0.372974E-02 -0.187765E-02 -0.144782E-02
  atom #   30
   Hellmann-Feynman              : -0.348021E-01  0.369216E-01  0.117885E-02
   Ionic forces                  :  0.000000E+00  0.000000E+00  0.000000E+00
   Multipole                     :  0.209352E-01  0.267441E-01 -0.876324E-02
   Pulay + GGA                   :  0.159002E-01 -0.654879E-01  0.111497E-01
   MBD@rsSCS                     : -0.572736E-02  0.398904E-02  0.107850E-02
   ----------------------------------------------------------------
   Total forces(  30)            : -0.369405E-02  0.216682E-02  0.464383E-02
  atom #   31
   Hellmann-Feynman              : -0.511473E-01  0.740013E-02 -0.622330E-02
   Ionic forces                  :  0.000000E+00  0.000000E+00  0.000000E+00
   Multipole                     : -0.703237E-02 -0.283425E-01 -0.182681E-01
   Pulay + GGA                   :  0.595096E-01  0.190148E-01  0.280638E-01
   MBD@rsSCS                     : -0.672428E-02  0.179336E-02  0.637444E-03
   ----------------------------------------------------------------
   Total forces(  31)            : -0.539431E-02 -0.134186E-03  0.420979E-02
  atom #   32
   Hellmann-Feynman              : -0.570852E-01  0.258165E-01  0.342440E-01
   Ionic forces                  :  0.000000E+00  0.000000E+00  0.000000E+00
   Multipole                     :  0.387396E-01 -0.249510E-01  0.219625E-01
   Pulay + GGA                   :  0.178765E-01 -0.473492E-03 -0.592855E-01
   MBD@rsSCS                     : -0.531160E-02  0.182569E-02  0.408956E-02
   ----------------------------------------------------------------
   Total forces(  32)            : -0.578077E-02  0.221769E-02  0.101051E-02

  Removing unitary transformations (pure translations, rotations) from forces on atoms.
  Atomic forces before filtering:
  | Net force on center of mass :   0.109475E-03 -0.271610E-03  0.656350E-05 eV/A
  | Net torque on center of mass:  -0.833068E-03  0.235818E-02 -0.912335E-03 eV
  Atomic forces after filtering:
  | Net force on center of mass :  -0.627209E-17  0.592364E-17  0.487829E-17 eV/A
  | Net torque on center of mass:  -0.184392E-17  0.663809E-17  0.206518E-16 eV

  Energy and forces in a compact form:
  | Total energy uncorrected      :         -0.202093256163487E+05 eV
  | Total energy corrected        :         -0.202093256163487E+05 eV  <-- do not rely on this value for anything but (periodic) metals
  | Electronic free energy        :         -0.202093256163487E+05 eV
  Total atomic forces (unitary forces cleaned) [eV/Ang]:
  |   1         -0.324117766873489E-02         -0.421259480913669E-03         -0.700784069213590E-02
  |   2         -0.479099445352694E-02         -0.111482816332806E-01          0.221503678855905E-01
  |   3         -0.178702809787487E-02         -0.165968082293209E-02         -0.111638815209570E-01
  |   4         -0.572329116625537E-02         -0.143656910642827E-02          0.100374480216469E-01
  |   5          0.998424982891138E-03          0.583858557175498E-02          0.576947892019093E-02
  |   6          0.134661140260607E-02          0.232189022910398E-02          0.651204914502232E-02
  |   7         -0.634093679812116E-02         -0.232000513849881E-02         -0.541611362866037E-02
  |   8          0.804589715826641E-02          0.246480345634021E-02          0.635592586974769E-03
  |   9         -0.364450668944739E-02         -0.255349400874536E-01         -0.818541923898045E-02
  |  10         -0.304651176043421E-02          0.670924707876636E-04         -0.136520938900505E-01
  |  11         -0.235738832448249E-02         -0.452863823147327E-02          0.948030329393930E-02
  |  12         -0.873424601553791E-02         -0.336334386423098E-02          0.300836294572048E-02
  |  13          0.496501398088010E-03         -0.433617074497316E-02          0.475517880619278E-02
  |  14          0.167081883363784E-01         -0.516522739411128E-02          0.405980604234639E-02
  |  15          0.177398456651279E-01         -0.321927409909276E-02         -0.736285886200584E-02
  |  16          0.113832659474009E-01         -0.868610320891886E-03         -0.379262067208234E-02
  |  17         -0.147484764641368E-01          0.888426545317665E-02         -0.371207094825360E-02
  |  18          0.928000391303046E-04          0.914071346800906E-03          0.529595203402719E-02
  |  19         -0.421684003522083E-03         -0.159794281394885E-01         -0.794702024114536E-03
  |  20          0.340771428884225E-02         -0.483602801311772E-02          0.589316798450608E-02
  |  21         -0.433623442799848E-02          0.287499396119057E-02         -0.387745704473073E-02
  |  22         -0.503846284454531E-02         -0.811021330561564E-02         -0.401186333148000E-03
  |  23          0.139768021761022E-01          0.197723865514360E-01         -0.773946302023604E-02
  |  24          0.190296815044480E-01          0.102182576843938E-01         -0.179288669707417E-02
  |  25          0.670267227543600E-02          0.678567875533813E-02         -0.401229576580893E-02
  |  26          0.669167701678478E-02          0.245512267714548E-01         -0.970692354120396E-03
  |  27         -0.256010617210161E-01          0.522722875994124E-02          0.396720239910504E-02
  |  28          0.178635424269368E-02          0.539819212639106E-03         -0.102166882726753E-01
  |  29         -0.375137484899730E-02         -0.187389023271406E-02         -0.143447993671205E-02
  |  30         -0.368388380320281E-02          0.219285492690835E-02          0.466636896112880E-02
  |  31         -0.539899557762179E-02         -0.105534097431961E-03          0.425856548211863E-02
  |  32         -0.576018176874011E-02          0.225393956138188E-02          0.104290639323607E-02

  ------------------------------------ 
  Start decomposition of the XC Energy 
  ------------------------------------ 
  Hartree-Fock part   :          0.000000000 Ha              0.000000000 eV
  ------------------------------------ 
  X Energy            :        -96.995680233 Ha          -2639.386749667 eV
  C Energy GGA        :         -3.868035837 Ha           -105.254610432 eV
  Total XC Energy     :       -100.863716071 Ha          -2744.641360099 eV
  LDA X and C from self-consistent density 
  X Energy LDA        :        -88.010433759 Ha          -2394.885753015 eV
  C Energy LDA        :         -7.531896849 Ha           -204.953341182 eV
  ------------------------------------ 
  End decomposition of the XC Energy 
  ------------------------------------ 
   
  ESP charge fitting starts.
  | Calculation :  00000001  of  00000001
  | Full density
  Computing multipole expansion for total density.
  Generating points for esp charges.
  Partitioning the integration grid into batches with parallel hashing+maxmin method.
  | Number of batches:     3851
  | Maximal batch size:     198
  | Minimal batch size:      58
  | Average batch size:     126.517
  | Standard deviation of batch sizes:      17.288

  Integration load balanced across    32 MPI tasks.
  Work distribution over tasks is as follows:
  Initializing partition tables, free-atom densities, potentials, etc. across the integration grid (initialize_grid_storage).
  | Original list of interatomic distances with          32 x         32 entries is created.
  | Net number of integration points:   487216
  | of which are non-zero points    :   487216
  Summing up potential from multipole expanded  density.
  Summing up the Hartree potential.
  Time summed over all CPUs for potential: real work        6.336 s, elapsed        6.568 s
  Fitting esp charges to potential.
  |
  | ESP charges fitted to the electrostatic potential :
  |
  | Atom         1: C, ESP charge:      0.70760326
  |
  | Atom         2: C, ESP charge:     -0.72811674
  |
  | Atom         3: O, ESP charge:      0.55858231
  |
  | Atom         4: H, ESP charge:     -0.16915169
  |
  | Atom         5: H, ESP charge:     -0.21500629
  |
  | Atom         6: H, ESP charge:     -0.19859170
  |
  | Atom         7: N, ESP charge:      0.49681261
  |
  | Atom         8: C, ESP charge:     -0.15556220
  |
  | Atom         9: C, ESP charge:     -0.22115216
  |
  | Atom        10: O, ESP charge:      0.47087980
  |
  | Atom        11: H, ESP charge:     -0.29778726
  |
  | Atom        12: H, ESP charge:     -0.14511837
  |
  | Atom        13: C, ESP charge:      0.53420444
  |
  | Atom        14: H, ESP charge:     -0.17742200
  |
  | Atom        15: H, ESP charge:     -0.15283841
  |
  | Atom        16: H, ESP charge:     -0.14349645
  |
  | Atom        17: N, ESP charge:      0.13172177
  |
  | Atom        18: C, ESP charge:     -0.43909899
  |
  | Atom        19: C, ESP charge:     -0.33134950
  |
  | Atom        20: O, ESP charge:      0.46724237
  |
  | Atom        21: H, ESP charge:     -0.05694113
  |
  | Atom        22: H, ESP charge:      0.07654562
  |
  | Atom        23: C, ESP charge:      0.31870031
  |
  | Atom        24: H, ESP charge:     -0.04568576
  |
  | Atom        25: H, ESP charge:     -0.07073945
  |
  | Atom        26: H, ESP charge:     -0.10773135
  |
  | Atom        27: N, ESP charge:      0.25395733
  |
  | Atom        28: C, ESP charge:      0.34148739
  |
  | Atom        29: H, ESP charge:     -0.27316678
  |
  | Atom        30: H, ESP charge:     -0.12833561
  |
  | Atom        31: H, ESP charge:     -0.13126351
  |
  | Atom        32: H, ESP charge:     -0.16918185

  RRMS:       0.00473245

  Done.

------------------------------------------------------------------------------
  Final output of selected total energy values:

  The following output summarizes some interesting total energy values
  at the end of a run (AFTER all relaxation, molecular dynamics, etc.).

  | Total energy of the DFT / Hartree-Fock s.c.f. calculation      :         -20209.325616349 eV
  | Final zero-broadening corrected energy (caution - metals only) :         -20209.325616349 eV
  | For reference only, the value of 1 Hartree used in FHI-aims is :             27.211384500 eV

  Before relying on these values, please be sure to understand exactly which
  total energy value is referred to by a given number. Different objects may
  all carry the same name 'total energy'. Definitions:

  Total energy of the DFT / Hartree-Fock s.c.f. calculation:
  | Note that this energy does not include ANY quantities calculated after the
  | s.c.f. cycle, in particular not ANY RPA, MP2, etc. many-body perturbation terms.

  Final zero-broadening corrected energy:
  | For metallic systems only, a broadening of the occupation numbers at the Fermi
  | level can be extrapolated back to zero broadening by an electron-gas inspired
  | formula. For all systems that are not real metals, this value can be
  | meaningless and should be avoided.

------------------------------------------------------------------------------
  Methods described in the following list of references were used in this FHI-aims run.
  If you publish the results, please make sure to cite these reference if they apply.
  FHI-aims is an academic code, and for our developers (often, Ph.D. students
  and postdocs), scientific credit in the community is essential.
  Thank you for helping us!

  For any use of FHI-aims, please cite:

    Volker Blum, Ralf Gehrke, Felix Hanke, Paula Havu, Ville Havu,
    Xinguo Ren, Karsten Reuter, and Matthias Scheffler
    'Ab initio molecular simulations with numeric atom-centered orbitals'
    Computer Physics Communications 180, 2175-2196 (2009)
    http://dx.doi.org/10.1016/j.cpc.2009.06.022


  The scalable eigensolver library ELPA was used in your run.
  ELPA is essential especially for large systems on hundreds or thousands of CPUs.
  For ELPA, please cite:

    Andreas Marek, Volker Blum, Rainer Johanni, Ville Havu, Bruno Lang,
    Thomas Auckenthaler, Alexander Heinecke, Hans-Joachim Bungartz, and Hermann Lederer,
    'The ELPA Library - Scalable Parallel Eigenvalue Solutions
    for Electronic Structure Theory and Computational Science'
    The Journal of Physics: Condensed Matter 26, 213201 (2014).
    http://dx.doi.org/10.1088/0953-8984/26/21/213201


  For ELPA's efficient two-stage tridiagonalization used in your run, please cite:

    T. Auckenthaler, V. Blum, H.-J. Bungartz, T. Huckle, R. Johanni, L. Kraemer,
    B. Lang, H. Lederer, and P. R. Willems,
    'Parallel solution of partial symmetric eigenvalue problems'
    'from  electronic structure calculations'
    Parallel Computing 37, 783-794 (2011).
    http://dx.doi.org/10.1016/j.parco.2011.05.002


  For the real-space grid partitioning and parallelization used in this calculation, please cite:

    Ville Havu, Volker Blum, Paula Havu, and Matthias Scheffler,
    'Efficient O(N) integration for all-electron electronic structure calculation'
    'using numerically tabulated basis functions'
    Journal of Computational Physics 228, 8367-8379 (2009).
    http://dx.doi.org/10.1016/j.jcp.2009.08.008

  Of course, there are many other important community references, e.g., those cited in the
  above references. Our list is limited to references that describe implementations in the
  FHI-aims code. The reason is purely practical (length of this list) - please credit others as well.

------------------------------------------------------------
          Leaving FHI-aims.
          Date     :  20170309, Time     :  160813.185

          Computational steps:
          | Number of self-consistency cycles          :           14

          Detailed time accounting                     :  max(cpu_time)    wall_clock(cpu1)
          | Total time                                 :       32.002 s          32.159 s
          | Preparation time                           :        0.240 s           0.238 s
          | Grid partitioning                          :        0.368 s           0.366 s
          | Preloading free-atom quantities on grid    :        0.028 s           0.028 s
          | Free-atom superposition energy             :        0.040 s           0.036 s
          | Total time for integrations                :       10.033 s          10.011 s
          | Total time for solution of K.-S. equations :        0.532 s           0.505 s
          | Total time for density & force components  :        9.297 s           9.272 s
          | Total time for mixing                      :        0.128 s           0.106 s
          | Total time for Hartree multipole update    :        0.064 s           0.060 s
          | Total time for Hartree multipole sum       :        6.432 s           6.394 s
          | Total time for total energy evaluation     :        0.036 s           0.021 s

          Have a nice day.
------------------------------------------------------------
