  MPI-parallelism will be employed.
------------------------------------------------------------
          Invoking FHI-aims ...
          Version 150427
          Git rev.: 9dd23e0 BL: Update Version stamp
          Compiled on 2015/11/03 at 22:05:20 on host eos03.

          When using FHI-aims, please cite the following reference:

          Volker Blum, Ralf Gehrke, Felix Hanke, Paula Havu,
          Ville Havu, Xinguo Ren, Karsten Reuter, and Matthias Scheffler,
          'Ab Initio Molecular Simulations with Numeric Atom-Centered Orbitals: FHI-aims',
          Computer Physics Communications 180, 2175-2196 (2009)

          For any questions about FHI-aims, please visit the aimsclub website
          with its forums and wiki. Contributions to both the forums and the
          wiki are warmly encouraged - they are for you, and everyone is welcome there.

------------------------------------------------------------

  Date     :  20170309, Time     :  183540.466
  Time zero on CPU 1             :   0.392024000000000E+00  s.
  Internal wall clock time zero  :           258316540.466  s.

  Using       32 parallel tasks.
  Task        0 on host eos162 reporting.
  Task        1 on host eos162 reporting.
  Task        2 on host eos162 reporting.
  Task        3 on host eos162 reporting.
  Task        4 on host eos162 reporting.
  Task        5 on host eos162 reporting.
  Task        6 on host eos162 reporting.
  Task        7 on host eos162 reporting.
  Task        8 on host eos162 reporting.
  Task        9 on host eos162 reporting.
  Task       10 on host eos162 reporting.
  Task       11 on host eos162 reporting.
  Task       12 on host eos162 reporting.
  Task       13 on host eos162 reporting.
  Task       14 on host eos162 reporting.
  Task       15 on host eos162 reporting.
  Task       16 on host eos162 reporting.
  Task       17 on host eos162 reporting.
  Task       18 on host eos162 reporting.
  Task       19 on host eos162 reporting.
  Task       20 on host eos162 reporting.
  Task       21 on host eos162 reporting.
  Task       22 on host eos162 reporting.
  Task       23 on host eos162 reporting.
  Task       24 on host eos162 reporting.
  Task       25 on host eos162 reporting.
  Task       26 on host eos162 reporting.
  Task       27 on host eos162 reporting.
  Task       28 on host eos162 reporting.
  Task       29 on host eos162 reporting.
  Task       30 on host eos162 reporting.
  Task       31 on host eos162 reporting.

  Performing system and environment tests:
  | Environment variable OMP_NUM_THREADS correctly set to 1.
  | Stacksize not measured: no C compiler
  | Checking for scalapack...
  | Testing pdtran()...
  | All pdtran() tests passed.

  Obtaining array dimensions for all initial allocations:
  
  -----------------------------------------------------------------------
  Parsing control.in (first pass over file, find array dimensions only).
  The contents of control.in will be repeated verbatim below
  unless switched off by setting 'verbatim_writeout .false.' .
  in the first line of control.in .
  -----------------------------------------------------------------------
  
  #########################################################################################
  #
  # Input for System
  #
  #########################################################################################
  #
  #
  #  Physical model
  #
    xc                 pbe
    many_body_dispersion
    spin               none
    charge             0.
  #
  #  SCF convergence
  #
    occupation_type    gaussian 0.05
    mixer              pulay
      n_max_pulay        10
      charge_mix_param   0.5
    sc_accuracy_rho    1E-4
    sc_accuracy_eev    1E-2
    sc_accuracy_etot   1E-5
    sc_accuracy_forces 1E-4
    sc_iter_limit      1000
  #
  #  ESP charge
  #
    output esp
    esp equal_grid_n 80 80 80
  #
  #
  ################################################################################
  #
  #  FHI-aims code project
  # Volker Blum, Fritz Haber Institute Berlin, 2009
  #
  #  Suggested "tight" defaults for H atom (to be pasted into control.in file)
  #
  ################################################################################
    species        H
  #     global species definitions
      nucleus             1
      mass                1.00794
  #
      l_hartree           6
  #
      cut_pot             4.0  2.0  1.0
      basis_dep_cutoff    1e-4
  #
      radial_base         24 7.0
      radial_multiplier   2
      angular_grids       specified
        division   0.1930   50
        division   0.3175  110
        division   0.4293  194
        division   0.5066  302
        division   0.5626  434
  #      division   0.5922  590
  #      division   0.6227  974
  #      division   0.6868 1202
  #      outer_grid  770
        outer_grid  434
  ################################################################################
  #
  #  Definition of "minimal" basis
  #
  ################################################################################
  #     valence basis states
      valence      1  s   1.
  #     ion occupancy
      ion_occ      1  s   0.5
  ################################################################################
  #
  #  Suggested additional basis functions. For production calculations,
  #  uncomment them one after another (the most important basis functions are
  #  listed first).
  #
  #  Basis constructed for dimers: 0.5 A, 0.7 A, 1.0 A, 1.5 A, 2.5 A
  #
  ################################################################################
  #  "First tier" - improvements: -1014.90 meV to -62.69 meV
       hydro 2 s 2.1
       hydro 2 p 3.5
  #  "Second tier" - improvements: -12.89 meV to -1.83 meV
       hydro 1 s 0.85
       hydro 2 p 3.7
       hydro 2 s 1.2
       hydro 3 d 7
  #  "Third tier" - improvements: -0.25 meV to -0.12 meV
  #     hydro 4 f 11.2
  #     hydro 3 p 4.8
  #     hydro 4 d 9
  #     hydro 3 s 3.2
  ################################################################################
  #
  # For methods that use the localized form of the "resolution of identity" for
  # the two-electron Coulomb operator (RI_method LVL), particularly Hartree-Fock and
  # hybrid density functional calculations, the highest accuracy can be obtained by
  # uncommenting the line beginning with "for_aux"  below, thus adding an extra g radial
  # function to the construction of the product basis set for the expansion.
  # See Ref. New J. Phys. 17, 093020 (2015) for more information, particularly Figs. 1 and 6.
  #
  ################################################################################
  #
  # for_aux hydro 5 g 6.0
  ################################################################################
  #
  #  FHI-aims code project
  # Volker Blum, Fritz Haber Institute Berlin, 2009
  #
  #  Suggested "tight" defaults for C atom (to be pasted into control.in file)
  #
  ################################################################################
    species        C
  #     global species definitions
      nucleus             6
      mass                12.0107
  #
      l_hartree           6
  #
      cut_pot             4.0  2.0  1.0
      basis_dep_cutoff    1e-4
  #
      radial_base         34 7.0
      radial_multiplier   2
      angular_grids specified
        division   0.2187   50
        division   0.4416  110
        division   0.6335  194
        division   0.7727  302
        division   0.8772  434
  #      division   0.9334  590
  #      division   0.9924  770
  #      division   1.0230  974
  #      division   1.5020 1202
  #     outer_grid  974
        outer_grid  434
  ################################################################################
  #
  #  Definition of "minimal" basis
  #
  ################################################################################
  #     valence basis states
      valence      2  s   2.
      valence      2  p   2.
  #     ion occupancy
      ion_occ      2  s   1.
      ion_occ      2  p   1.
  ################################################################################
  #
  #  Suggested additional basis functions. For production calculations,
  #  uncomment them one after another (the most important basis functions are
  #  listed first).
  #
  #  Constructed for dimers: 1.0 A, 1.25 A, 1.5 A, 2.0 A, 3.0 A
  #
  ################################################################################
  #  "First tier" - improvements: -1214.57 meV to -155.61 meV
       hydro 2 p 1.7
       hydro 3 d 6
       hydro 2 s 4.9
  #  "Second tier" - improvements: -67.75 meV to -5.23 meV
       hydro 4 f 9.8
       hydro 3 p 5.2
       hydro 3 s 4.3
       hydro 5 g 14.4
       hydro 3 d 6.2
  #  "Third tier" - improvements: -2.43 meV to -0.60 meV
  #     hydro 2 p 5.6
  #     hydro 2 s 1.4
  #     hydro 3 d 4.9
  #     hydro 4 f 11.2
  #  "Fourth tier" - improvements: -0.39 meV to -0.18 meV
  #     hydro 2 p 2.1
  #     hydro 5 g 16.4
  #     hydro 4 d 13.2
  #     hydro 3 s 13.6
  #     hydro 4 f 17.6
  #  Further basis functions - improvements: -0.08 meV and below
  #     hydro 3 s 2
  #     hydro 3 p 6
  #     hydro 4 d 20
  ################################################################################
  #
  # For methods that use the localized form of the "resolution of identity" for
  # the two-electron Coulomb operator (RI_method LVL), particularly Hartree-Fock and
  # hybrid density functional calculations, the highest accuracy can be obtained by
  # uncommenting the line beginning with "for_aux"  below, thus adding an extra g radial
  # function to the construction of the product basis set for the expansion.
  # See Ref. New J. Phys. 17, 093020 (2015) for more information, particularly Figs. 1 and 6.
  #
  ################################################################################
  #
  # for_aux hydro 5 g 6.0
  ################################################################################
  #
  #  FHI-aims code project
  # Volker Blum, Fritz Haber Institute Berlin, 2009
  #
  #  Suggested "tight" defaults for N atom (to be pasted into control.in file)
  #
  ################################################################################
    species        N
  #     global species definitions
      nucleus             7
      mass                14.0067
  #
      l_hartree           6
  #
      cut_pot             4.0  2.0  1.0
      basis_dep_cutoff    1e-4
  #
      radial_base         35 7.0
      radial_multiplier   2
      angular_grids       specified
        division   0.1841   50
        division   0.3514  110
        division   0.5126  194
        division   0.6292  302
        division   0.6939  434
  #      division   0.7396  590
  #      division   0.7632  770
  #      division   0.8122  974
  #      division   1.1604 1202
  #      outer_grid  974
        outer_grid  434
  ################################################################################
  #
  #  Definition of "minimal" basis
  #
  ################################################################################
  #     valence basis states
      valence      2  s   2.
      valence      2  p   3.
  #     ion occupancy
      ion_occ      2  s   1.
      ion_occ      2  p   2.
  ################################################################################
  #
  #  Suggested additional basis functions. For production calculations,
  #  uncomment them one after another (the most important basis functions are
  #  listed first).
  #
  #  Constructed for dimers: 1.0 A, 1.1 A, 1.5 A, 2.0 A, 3.0 A
  #
  ################################################################################
  #  "First tier" - improvements: -1193.42 meV to -220.60 meV
       hydro 2 p 1.8
       hydro 3 d 6.8
       hydro 3 s 5.8
  #  "Second tier" - improvements: -80.21 meV to -6.86 meV
       hydro 4 f 10.8
       hydro 3 p 5.8
       hydro 1 s 0.8
       hydro 5 g 16
       hydro 3 d 4.9
  #  "Third tier" - improvements: -4.29 meV to -0.53 meV
  #     hydro 3 s 16
  #     ionic 2 p auto
  #     hydro 3 d 6.6
  #     hydro 4 f 11.6
  #  "Fourth tier" - improvements: -0.75 meV to -0.25 meV
  #     hydro 2 p 4.5
  #     hydro 2 s 2.4
  #     hydro 5 g 14.4
  #     hydro 4 d 14.4
  #     hydro 4 f 16.8
  # Further basis functions - -0.21 meV and below
  #     hydro 3 p 14.8
  #     hydro 3 s 4.4
  #     hydro 3 d 19.6
  #     hydro 5 g 12.8
  ################################################################################
  #
  # For methods that use the localized form of the "resolution of identity" for
  # the two-electron Coulomb operator (RI_method LVL), particularly Hartree-Fock and
  # hybrid density functional calculations, the highest accuracy can be obtained by
  # uncommenting the line beginning with "for_aux"  below, thus adding an extra g radial
  # function to the construction of the product basis set for the expansion.
  # See Ref. New J. Phys. 17, 093020 (2015) for more information, particularly Figs. 1 and 6.
  #
  ################################################################################
  #
  # for_aux hydro 5 g 6.0
  ################################################################################
  #
  #  FHI-aims code project
  # Volker Blum, Fritz Haber Institute Berlin, 2009
  #
  #  Suggested "tight" defaults for O atom (to be pasted into control.in file)
  #
  ################################################################################
    species        O
  #     global species definitions
      nucleus             8
      mass                15.9994
  #
      l_hartree           6
  #
      cut_pot             4.0  2.0  1.0
      basis_dep_cutoff    1e-4
  #
      radial_base         36 7.0
      radial_multiplier   2
       angular_grids specified
        division   0.1817   50
        division   0.3417  110
        division   0.4949  194
        division   0.6251  302
        division   0.8014  434
  #      division   0.8507  590
  #      division   0.8762  770
  #      division   0.9023  974
  #      division   1.2339 1202
  #      outer_grid 974
        outer_grid  434
  ################################################################################
  #
  #  Definition of "minimal" basis
  #
  ################################################################################
  #     valence basis states
      valence      2  s   2.
      valence      2  p   4.
  #     ion occupancy
      ion_occ      2  s   1.
      ion_occ      2  p   3.
  ################################################################################
  #
  #  Suggested additional basis functions. For production calculations,
  #  uncomment them one after another (the most important basis functions are
  #  listed first).
  #
  #  Constructed for dimers: 1.0 A, 1.208 A, 1.5 A, 2.0 A, 3.0 A
  #
  ################################################################################
  #  "First tier" - improvements: -699.05 meV to -159.38 meV
       hydro 2 p 1.8
       hydro 3 d 7.6
       hydro 3 s 6.4
  #  "Second tier" - improvements: -49.91 meV to -5.39 meV
       hydro 4 f 11.6
       hydro 3 p 6.2
       hydro 3 d 5.6
       hydro 5 g 17.6
       hydro 1 s 0.75
  #  "Third tier" - improvements: -2.83 meV to -0.50 meV
  #     ionic 2 p auto
  #     hydro 4 f 10.8
  #     hydro 4 d 4.7
  #     hydro 2 s 6.8
  #  "Fourth tier" - improvements: -0.40 meV to -0.12 meV
  #     hydro 3 p 5
  #     hydro 3 s 3.3
  #     hydro 5 g 15.6
  #     hydro 4 f 17.6
  #     hydro 4 d 14
  # Further basis functions - -0.08 meV and below
  #     hydro 3 s 2.1
  #     hydro 4 d 11.6
  #     hydro 3 p 16
  #     hydro 2 s 17.2
  ################################################################################
  #
  # For methods that use the localized form of the "resolution of identity" for
  # the two-electron Coulomb operator (RI_method LVL), particularly Hartree-Fock and
  # hybrid density functional calculations, the highest accuracy can be obtained by
  # uncommenting the line beginning with "for_aux"  below, thus adding an extra g radial
  # function to the construction of the product basis set for the expansion.
  # See Ref. New J. Phys. 17, 093020 (2015) for more information, particularly Figs. 1 and 6.
  #
  ################################################################################
  #
  # for_aux hydro 5 g 6.0
  
  -----------------------------------------------------------------------
  Completed first pass over input file control.in .
  -----------------------------------------------------------------------
  
  
  -----------------------------------------------------------------------
  Parsing geometry.in (first pass over file, find array dimensions only).
  The contents of geometry.in will be repeated verbatim below
  unless switched off by setting 'verbatim_writeout .false.' .
  in the first line of geometry.in .
  -----------------------------------------------------------------------
  
  #
  # This is the geometry file that corresponds to the current relaxation step.
  # If you do not want this file to be written, set the "write_restart_geometry" flag to .false.
  #
  atom       0.68310920     -1.02787226      1.01160194 C
  atom       0.09002194     -0.13866327      2.09018750 C
  atom       0.78495638      0.58889165      2.79871080 O
  atom       1.48551910     -1.63025825      1.45412268 H
  atom       1.13816372     -0.39181947      0.24124360 H
  atom      -0.04925941     -1.69174919      0.53568386 H
  atom      -1.26904505     -0.19440746      2.20743205 N
  atom      -1.99409120      0.55669448      3.21252961 C
  atom      -3.26745652     -0.24055352      3.52105809 C
  atom      -3.72968963     -1.04122200      2.70401748 O
  atom      -1.83110940     -0.84792254      1.66728801 H
  atom      -1.34405917      0.63984151      4.09656429 H
  atom      -2.35022823      1.97626915      2.72789205 C
  atom      -1.42494387      2.51043865      2.48311883 H
  atom      -2.88173361      2.54889570      3.49932679 H
  atom      -2.98397935      1.92380598      1.83320853 H
  atom      -3.89793931     -0.01264250      4.70990754 N
  atom      -3.43745170      0.75460443      5.86265329 C
  atom      -2.13290819      0.27638625      6.54828582 C
  atom      -1.38490895      1.12653437      7.02576486 O
  atom      -4.75092822     -0.55626437      4.81532132 H
  atom      -3.18577759      1.77727195      5.54906724 H
  atom      -4.56333553      0.84229490      6.89775711 C
  atom      -4.22903003      1.43354553      7.75745968 H
  atom      -4.85633051     -0.15307234      7.26166244 H
  atom      -5.44696677      1.32829018      6.46328073 H
  atom      -1.84178690     -1.05506148      6.63607532 N
  atom      -2.62002552     -2.22907892      6.26396408 C
  atom      -0.94851303     -1.21502426      7.09210984 H
  atom      -3.66312236     -2.15168678      6.59702848 H
  atom      -2.18326279     -3.09672165      6.77128464 H
  atom      -2.61047050     -2.42490246      5.18283855 H
  
  -----------------------------------------------------------------------
  Completed first pass over input file geometry.in .
  -----------------------------------------------------------------------
  

  Basic array size parameters:
  | Number of species                 :        4
  | Number of atoms                   :       32
  | Max. basis fn. angular momentum   :        4
  | Max. atomic/ionic basis occupied n:        2
  | Max. number of basis fn. types    :        2
  | Max. radial fns per species/type  :        8
  | Max. logarithmic grid size        :     1301
  | Max. radial integration grid size :       73
  | Max. angular integration grid size:      434
  | Max. angular grid division number :        8
  | Radial grid for Hartree potential :     1301
  | Number of spin channels           :        1

------------------------------------------------------------
          Reading file control.in.
------------------------------------------------------------
  XC: Using PBE gradient-corrected functionals.
  Self-consistent screening and van der Waals energy (TS, TS+SCS,MBD) module
  Spin treatment: No spin polarisation.
  Charge =   0.000000E+00: Neutral system requested explicitly.
  Occupation type: Gaussian broadening, width =   0.500000E-01 eV.
  Using pulay charge density mixing.
  Pulay mixing - number of memorized iterations:   10
  Charge density mixing - mixing parameter:     0.5000
  Convergence accuracy of self-consistent charge density:  0.1000E-03
  Convergence accuracy of sum of eigenvalues:  0.1000E-01
  Convergence accuracy of total energy:  0.1000E-04
  Convergence accuracy of forces:  0.1000E-03
  Maximum number of s.-c. iterations  :  1000
  Fitting ESP-charges to Potential. 
  | Esp charge output options: 
  | ESP Grid method: 3, cubic grid
  | Number of points in x, ,y, z:  0080 0080 0080
  |
 
  Reading configuration options for species H                   .
  | Found nuclear charge :   1.0000
  | Found atomic mass :    1.00794000000000      amu
  | Found l_max for Hartree potential  :   6
  | Found cutoff potl. onset [A], width [A], scale factor :    4.00000    2.00000    1.00000
  | Threshold for basis-dependent cutoff potential is   0.100000E-03
  | Found data for basic radial integration grid :    24 points, outermost radius =    7.000 A
  | Found multiplier for basic radial grid :   2
  | Found angular grid specification: user-specified.
  | Specified grid contains     6 separate shells.
  | Check grid settings after all constraints further below.
  | Found free-atom valence shell :  1 s   1.000
  | No ionic wave fns used. Skipping ion_occ.
  | Found hydrogenic basis function :  2 s   2.100
  | Found hydrogenic basis function :  2 p   3.500
  | Found hydrogenic basis function :  1 s   0.850
  | Found hydrogenic basis function :  2 p   3.700
  | Found hydrogenic basis function :  2 s   1.200
  | Found hydrogenic basis function :  3 d   7.000
  Species H                   : Missing cutoff potential type.
  Defaulting to exp(1/x)/(1-x)^2 type cutoff potential.
  Species H : No 'logarithmic' tag. Using default grid for free atom:
  | Default logarithmic grid data [bohr] : 0.1000E-03 0.1000E+03 0.1012E+01
  Species H : On-site basis accuracy parameter (for Gram-Schmidt orthonormalisation) not specified.
  Using default value basis_acc =  0.1000000E-03.
  Species H                   : Using default innermost maximum threshold i_radial=  2 for radial functions.
  Species H                   : Default cutoff onset for free atom density etc. : 0.40000000E+01 AA.
  Species H                   : Basic radial grid will be enhanced according to radial_multiplier =   2, to contain    49 grid points.
 
  Reading configuration options for species C                   .
  | Found nuclear charge :   6.0000
  | Found atomic mass :    12.0107000000000      amu
  | Found l_max for Hartree potential  :   6
  | Found cutoff potl. onset [A], width [A], scale factor :    4.00000    2.00000    1.00000
  | Threshold for basis-dependent cutoff potential is   0.100000E-03
  | Found data for basic radial integration grid :    34 points, outermost radius =    7.000 A
  | Found multiplier for basic radial grid :   2
  | Found angular grid specification: user-specified.
  | Specified grid contains     6 separate shells.
  | Check grid settings after all constraints further below.
  | Found free-atom valence shell :  2 s   2.000
  | Found free-atom valence shell :  2 p   2.000
  | No ionic wave fns used. Skipping ion_occ.
  | No ionic wave fns used. Skipping ion_occ.
  | Found hydrogenic basis function :  2 p   1.700
  | Found hydrogenic basis function :  3 d   6.000
  | Found hydrogenic basis function :  2 s   4.900
  | Found hydrogenic basis function :  4 f   9.800
  | Found hydrogenic basis function :  3 p   5.200
  | Found hydrogenic basis function :  3 s   4.300
  | Found hydrogenic basis function :  5 g  14.400
  | Found hydrogenic basis function :  3 d   6.200
  Species C                   : Missing cutoff potential type.
  Defaulting to exp(1/x)/(1-x)^2 type cutoff potential.
  Species C : No 'logarithmic' tag. Using default grid for free atom:
  | Default logarithmic grid data [bohr] : 0.1000E-03 0.1000E+03 0.1012E+01
  Species C : On-site basis accuracy parameter (for Gram-Schmidt orthonormalisation) not specified.
  Using default value basis_acc =  0.1000000E-03.
  Species C                   : Using default innermost maximum threshold i_radial=  2 for radial functions.
  Species C                   : Default cutoff onset for free atom density etc. : 0.40000000E+01 AA.
  Species C                   : Basic radial grid will be enhanced according to radial_multiplier =   2, to contain    69 grid points.
 
  Reading configuration options for species N                   .
  | Found nuclear charge :   7.0000
  | Found atomic mass :    14.0067000000000      amu
  | Found l_max for Hartree potential  :   6
  | Found cutoff potl. onset [A], width [A], scale factor :    4.00000    2.00000    1.00000
  | Threshold for basis-dependent cutoff potential is   0.100000E-03
  | Found data for basic radial integration grid :    35 points, outermost radius =    7.000 A
  | Found multiplier for basic radial grid :   2
  | Found angular grid specification: user-specified.
  | Specified grid contains     6 separate shells.
  | Check grid settings after all constraints further below.
  | Found free-atom valence shell :  2 s   2.000
  | Found free-atom valence shell :  2 p   3.000
  | No ionic wave fns used. Skipping ion_occ.
  | No ionic wave fns used. Skipping ion_occ.
  | Found hydrogenic basis function :  2 p   1.800
  | Found hydrogenic basis function :  3 d   6.800
  | Found hydrogenic basis function :  3 s   5.800
  | Found hydrogenic basis function :  4 f  10.800
  | Found hydrogenic basis function :  3 p   5.800
  | Found hydrogenic basis function :  1 s   0.800
  | Found hydrogenic basis function :  5 g  16.000
  | Found hydrogenic basis function :  3 d   4.900
  Species N                   : Missing cutoff potential type.
  Defaulting to exp(1/x)/(1-x)^2 type cutoff potential.
  Species N : No 'logarithmic' tag. Using default grid for free atom:
  | Default logarithmic grid data [bohr] : 0.1000E-03 0.1000E+03 0.1012E+01
  Species N : On-site basis accuracy parameter (for Gram-Schmidt orthonormalisation) not specified.
  Using default value basis_acc =  0.1000000E-03.
  Species N                   : Using default innermost maximum threshold i_radial=  2 for radial functions.
  Species N                   : Default cutoff onset for free atom density etc. : 0.40000000E+01 AA.
  Species N                   : Basic radial grid will be enhanced according to radial_multiplier =   2, to contain    71 grid points.
 
  Reading configuration options for species O                   .
  | Found nuclear charge :   8.0000
  | Found atomic mass :    15.9994000000000      amu
  | Found l_max for Hartree potential  :   6
  | Found cutoff potl. onset [A], width [A], scale factor :    4.00000    2.00000    1.00000
  | Threshold for basis-dependent cutoff potential is   0.100000E-03
  | Found data for basic radial integration grid :    36 points, outermost radius =    7.000 A
  | Found multiplier for basic radial grid :   2
  | Found angular grid specification: user-specified.
  | Specified grid contains     6 separate shells.
  | Check grid settings after all constraints further below.
  | Found free-atom valence shell :  2 s   2.000
  | Found free-atom valence shell :  2 p   4.000
  | No ionic wave fns used. Skipping ion_occ.
  | No ionic wave fns used. Skipping ion_occ.
  | Found hydrogenic basis function :  2 p   1.800
  | Found hydrogenic basis function :  3 d   7.600
  | Found hydrogenic basis function :  3 s   6.400
  | Found hydrogenic basis function :  4 f  11.600
  | Found hydrogenic basis function :  3 p   6.200
  | Found hydrogenic basis function :  3 d   5.600
  | Found hydrogenic basis function :  5 g  17.600
  | Found hydrogenic basis function :  1 s   0.750
  Species O                   : Missing cutoff potential type.
  Defaulting to exp(1/x)/(1-x)^2 type cutoff potential.
  Species O : No 'logarithmic' tag. Using default grid for free atom:
  | Default logarithmic grid data [bohr] : 0.1000E-03 0.1000E+03 0.1012E+01
  Species O : On-site basis accuracy parameter (for Gram-Schmidt orthonormalisation) not specified.
  Using default value basis_acc =  0.1000000E-03.
  Species O                   : Using default innermost maximum threshold i_radial=  2 for radial functions.
  Species O                   : Default cutoff onset for free atom density etc. : 0.40000000E+01 AA.
  Species O                   : Basic radial grid will be enhanced according to radial_multiplier =   2, to contain    73 grid points.
 
  Finished reading input file 'control.in'. Consistency checks are next.
 
  Target number of points in a grid batch is not set. Defaulting to  100
  Method for grid partitioning is not set. Defaulting to parallel hash+maxmin partitioning.
  Batch size limit is not set. Defaulting to    200
  By default, will store active basis functions for each batch.
  If in need of memory, prune_basis_once .false. can be used to disable this option.
  communication_type for Hartree potential was not specified.
  Defaulting to calc_hartree .
  Pulay mixer: Number of initial linear mixing iterations not set.
  Defaulting to    0 iterations.
  Work space size for distributed Hartree potential not set.
  Defaulting to   0.200000E+03 MB.
  Algorithm-dependent basis array size parameters:
  | n_max_pulay                         :       10
  Geometry relaxation not requested: no relaxation will be performed.
  Handling of forces: Unphysical translation and rotation will be removed from forces.
  No accuracy limit for integral partition fn. given. Defaulting to  0.1000E-14.
  No threshold value for u(r) in integrations given. Defaulting to  0.1000E-05.
  No accuracy for occupation numbers given. Defaulting to  0.1000E-07.
  No threshold value for occupation numbers given. Defaulting to  0.0000E+00.
  No accuracy for fermi level given. Defaulting to  0.1000E-19.
  Maximum # of iterations to find E_F not set. Defaulting to  200.
  Preferred method for the eigenvalue solver ('KS_method') not specified in 'control.in'.
  Calling blacs routine to test compilation state
  Since scalapack support is enabled, defaulting to 'elpa'.
  Preferred method for the MBD eigenvalue solver ('mbd_eigensolver') not specified in 'control.in'.
  Calling blacs routine to test compilation state
  Since scalapack support is enabled, defaulting to 'scaLAPACK'.
  Will not use alltoall communication since running on < 1024 CPUs.
  Threshold for basis singularities not set.
  Default threshold for basis singularities:  0.1000E-04
  partition_type (choice of integration weights) for integrals was not specified.
  | Using a version of the partition function of Stratmann and coworkers ('stratmann_smoother').
  | At each grid point, the set of atoms used to build the partition table is smoothly restricted to
  | only those atoms whose free-atom density would be non-zero at that grid point.
  Partitioning for Hartree potential was not defined. Using partition_type for integrals.
  | Adjusted default value of keyword multip_moments_threshold to:       0.10000000E-11
  | This value may affect high angular momentum components of the Hartree potential in periodic systems.
  No q(lm)/r^(l+1) cutoff set for long-range Hartree potential.
  | Using default value of  0.100000E-09 .
  | Verify using the multipole_threshold keyword.
  Defaulting to new monopole extrapolation.
  Density update method: automatic selection selected.
------------------------------------------------------------


------------------------------------------------------------
          Reading geometry description geometry.in.
------------------------------------------------------------
 * Warning! You did not set the 'relativistic' flag in input file 'control.in'.
 * Since you are not attempting to treat any elements beyond Ca(Z=20), FHI-aims
 * will default to 'relativistic none'.
 * You must ensure that this is really what you want!!
 * For example, DO NOT compute total-energy differences between results from
 * different settings of the 'relativistic' flag.
  Input structure read successfully.
  The structure contains       32 atoms,  and a total of        116.000 electrons.

  Input geometry:
  | No unit cell requested.
  | Atomic structure:
  |       Atom                x [A]            y [A]            z [A]
  |    1: Species C              0.683109        -1.027872         1.011602
  |    2: Species C              0.090022        -0.138663         2.090187
  |    3: Species O              0.784956         0.588892         2.798711
  |    4: Species H              1.485519        -1.630258         1.454123
  |    5: Species H              1.138164        -0.391819         0.241244
  |    6: Species H             -0.049259        -1.691749         0.535684
  |    7: Species N             -1.269045        -0.194407         2.207432
  |    8: Species C             -1.994091         0.556694         3.212530
  |    9: Species C             -3.267457        -0.240554         3.521058
  |   10: Species O             -3.729690        -1.041222         2.704017
  |   11: Species H             -1.831109        -0.847923         1.667288
  |   12: Species H             -1.344059         0.639842         4.096564
  |   13: Species C             -2.350228         1.976269         2.727892
  |   14: Species H             -1.424944         2.510439         2.483119
  |   15: Species H             -2.881734         2.548896         3.499327
  |   16: Species H             -2.983979         1.923806         1.833209
  |   17: Species N             -3.897939        -0.012642         4.709908
  |   18: Species C             -3.437452         0.754604         5.862653
  |   19: Species C             -2.132908         0.276386         6.548286
  |   20: Species O             -1.384909         1.126534         7.025765
  |   21: Species H             -4.750928        -0.556264         4.815321
  |   22: Species H             -3.185778         1.777272         5.549067
  |   23: Species C             -4.563336         0.842295         6.897757
  |   24: Species H             -4.229030         1.433546         7.757460
  |   25: Species H             -4.856331        -0.153072         7.261662
  |   26: Species H             -5.446967         1.328290         6.463281
  |   27: Species N             -1.841787        -1.055061         6.636075
  |   28: Species C             -2.620026        -2.229079         6.263964
  |   29: Species H             -0.948513        -1.215024         7.092110
  |   30: Species H             -3.663122        -2.151687         6.597028
  |   31: Species H             -2.183263        -3.096722         6.771285
  |   32: Species H             -2.610470        -2.424902         5.182839
  |

  | The smallest distance between any two atoms is         1.01562482 AA.
  |
  | The first atom of this pair is atom number                     27 .
  | The second atom of this pair is atom number                    29 .

  Number of empty states per atom not set in control.in - providing a guess from actual geometry.
  | Total number of empty states used during s.c.f. cycle:       71
  If you use a very high smearing, use empty_states (per atom!) in control.in to increase this value.

  Structure-dependent array size parameters: 
  | Maximum number of distinct radial functions  :       40
  | Maximum number of basis functions            :      840
  | Number of Kohn-Sham states (occupied + empty):      129
------------------------------------------------------------

------------------------------------------------------------
          Preparing all fixed parts of the calculation.
------------------------------------------------------------
  Determining machine precision:
    2.225073858507201E-308
  Setting up grids for atomic and cluster calculations.

  Creating wave function, potential, and density for free atoms.

  Species: H

  List of occupied orbitals and eigenvalues:
    n    l              occ      energy [Ha]    energy [eV]
    1    0           1.0000        -0.238382        -6.4867


  Species: C

  List of occupied orbitals and eigenvalues:
    n    l              occ      energy [Ha]    energy [eV]
    1    0           2.0000       -10.041232      -273.2358
    2    0           2.0000        -0.504327       -13.7234
    2    1           2.0000        -0.193750        -5.2722


  Species: N

  List of occupied orbitals and eigenvalues:
    n    l              occ      energy [Ha]    energy [eV]
    1    0           2.0000       -14.129007      -384.4699
    2    0           2.0000        -0.681802       -18.5528
    2    1           3.0000        -0.260543        -7.0897


  Species: O

  List of occupied orbitals and eigenvalues:
    n    l              occ      energy [Ha]    energy [eV]
    1    0           2.0000       -18.898576      -514.2564
    2    0           2.0000        -0.878795       -23.9132
    2    1           4.0000        -0.332075        -9.0362

  Creating fixed part of basis set: Ionic, confined, hydrogenic.
 
  H                    hydrogenic:
 
  List of hydrogenic basis orbitals: 
    n    l      effective z      eigenvalue [eV]  inner max. [A]     outer max. [A]     outer radius [A]   
    2    0         2.100000       -14.9965           0.193243           1.317208           5.373006
    2    1         3.500000       -41.6672           0.602369           0.602369           4.056063
    1    0         0.850000        -9.8292           0.624871           0.624871           5.373006
    2    1         3.700000       -46.5653           0.573622           0.573622           3.910002
    2    0         1.200000        -4.5995           0.334980           2.228188           5.505995
    3    2         7.000000       -74.0753           0.680699           0.680699           3.769201
 
 
  C                    hydrogenic:
 
  List of hydrogenic basis orbitals: 
    n    l      effective z      eigenvalue [eV]  inner max. [A]     outer max. [A]     outer radius [A]   
    2    1         1.700000        -9.8152           1.245706           1.245706           5.401630
    3    2         6.000000       -54.4226           0.792453           0.792453           4.178599
    2    0         4.900000       -81.6681           0.082559           0.562749           3.353238
    4    3         9.800000       -81.6681           0.863254           0.863254           4.028125
    3    1         5.200000       -40.8774           0.305389           1.215618           4.898362
    3    0         4.300000       -27.9508           0.091041           1.610311           5.401630
    5    4        14.400000      -112.8510           0.917666           0.917666           3.883070
    3    2         6.200000       -58.1113           0.763917           0.763917           4.077671
 
 
  N                    hydrogenic:
 
  List of hydrogenic basis orbitals: 
    n    l      effective z      eigenvalue [eV]  inner max. [A]     outer max. [A]     outer radius [A]   
    2    1         1.800000       -11.0118           1.177451           1.177451           5.427479
    3    2         6.800000       -69.9029           0.704619           0.704619           3.854246
    3    0         5.800000       -50.8549           0.067388           1.191934           4.629968
    4    3        10.800000       -99.1854           0.786571           0.786571           3.761152
    3    1         5.800000       -50.8549           0.274880           1.094176           4.518138
    1    0         0.800000        -8.7059           0.662839           0.662839           5.361532
    5    4        16.000000      -139.3222           0.825990           0.825990           3.625711
    3    2         4.900000       -36.2967           0.968267           0.968267           4.862000
 
 
  O                    hydrogenic:
 
  List of hydrogenic basis orbitals: 
    n    l      effective z      eigenvalue [eV]  inner max. [A]     outer max. [A]     outer radius [A]   
    2    1         1.800000       -11.0118           1.178562           1.178562           5.432602
    3    2         7.600000       -87.3182           0.624125           0.624125           3.541477
    3    0         6.400000       -61.9209           0.061167           1.081902           4.306578
    4    3        11.600000      -114.4238           0.731631           0.731631           3.585037
    3    1         6.200000       -58.1113           0.255680           1.030270           4.306578
    3    2         5.600000       -47.4081           0.847233           0.847233           4.413171
    5    4        17.600000      -168.5799           0.749740           0.749740           3.372465
    1    0         0.750000        -7.6499           0.705284           0.705284           5.366593
 

  Adding cutoff potential to free-atom effective potential.
  Creating atomic-like basis functions for current effective potential.

  Species H                   :

  List of atomic basis orbitals and eigenvalues:
    n    l      energy [Ha]    energy [eV]    outer radius [A]
    1    0        -0.238382        -6.4867       5.373006


  Species C                   :

  List of atomic basis orbitals and eigenvalues:
    n    l      energy [Ha]    energy [eV]    outer radius [A]
    1    0       -10.041232      -273.2358       1.934409
    2    0        -0.504327       -13.7234       5.271162
    2    1        -0.193750        -5.2722       5.401630


  Species N                   :

  List of atomic basis orbitals and eigenvalues:
    n    l      energy [Ha]    energy [eV]    outer radius [A]
    1    0       -14.129007      -384.4699       1.637919
    2    0        -0.681802       -18.5528       5.168461
    2    1        -0.260543        -7.0897       5.361532


  Species O                   :

  List of atomic basis orbitals and eigenvalues:
    n    l      energy [Ha]    energy [eV]    outer radius [A]
    1    0       -18.898576      -514.2564       1.415765
    2    0        -0.878795       -23.9132       5.048385
    2    1        -0.332075        -9.0362       5.301386

  Assembling full basis from fixed parts.
  | Species H :   atomic orbital   1 s accepted.
  | Species H :    hydro orbital   2 s accepted.
  | Species H :    hydro orbital   1 s accepted.
  | Species H :    hydro orbital   2 s accepted.
  | Species H :    hydro orbital   2 p accepted.
  | Species H :    hydro orbital   2 p accepted.
  | Species H :    hydro orbital   3 d accepted.
  | Species C :   atomic orbital   1 s accepted.
  | Species C :    hydro orbital   2 s accepted.
  | Species C :   atomic orbital   2 s accepted.
  | Species C :    hydro orbital   3 s accepted.
  | Species C :    hydro orbital   3 p accepted.
  | Species C :   atomic orbital   2 p accepted.
  | Species C :    hydro orbital   2 p accepted.
  | Species C :    hydro orbital   3 d accepted.
  | Species C :    hydro orbital   3 d accepted.
  | Species C :    hydro orbital   4 f accepted.
  | Species C :    hydro orbital   5 g accepted.
  | Species N :   atomic orbital   1 s accepted.
  | Species N :    hydro orbital   3 s accepted.
  | Species N :   atomic orbital   2 s accepted.
  | Species N :    hydro orbital   1 s accepted.
  | Species N :    hydro orbital   3 p accepted.
  | Species N :   atomic orbital   2 p accepted.
  | Species N :    hydro orbital   2 p accepted.
  | Species N :    hydro orbital   3 d accepted.
  | Species N :    hydro orbital   3 d accepted.
  | Species N :    hydro orbital   4 f accepted.
  | Species N :    hydro orbital   5 g accepted.
  | Species O :   atomic orbital   1 s accepted.
  | Species O :    hydro orbital   3 s accepted.
  | Species O :   atomic orbital   2 s accepted.
  | Species O :    hydro orbital   1 s accepted.
  | Species O :    hydro orbital   3 p accepted.
  | Species O :   atomic orbital   2 p accepted.
  | Species O :    hydro orbital   2 p accepted.
  | Species O :    hydro orbital   3 d accepted.
  | Species O :    hydro orbital   3 d accepted.
  | Species O :    hydro orbital   4 f accepted.
  | Species O :    hydro orbital   5 g accepted.
 
  Basis size parameters after reduction:
  | Total number of radial functions:       40
  | Total number of basis functions :      840
 
  Testing on-site integration grid accuracy.
  |  Species  Function  <phi|h_atom|phi> (log., in eV)  <phi|h_atom|phi> (rad., in eV)
           1        1                 -6.4869821809                 -6.4870742227
           1        2                 13.5044133542                 13.5041049177
           1        3                 32.7854418792                 32.7779770519
           1        4                 33.7995553101                 33.7152624900 ***
           1        5                 28.8558651799                 28.8558652046
           1        6                 59.6361831893                 59.6362535845
           1        7                 60.2733718049                 60.2733715484
           2        8               -273.2358277112               -273.2358261765
           2        9                -10.7624923123                -10.7625144012
           2       10                 17.4634079027                 17.4634252127
           2       11                 53.0363661832                 53.0366180446
           2       12                 15.0981351967                 15.0981317714
           2       13                  3.8522181899                  3.8522770949
           2       14                 12.1181835661                 12.1206868578
           2       15                 29.4320778347                 29.4320780959
           2       16                 54.8753777694                 54.8752901936
           2       17                 59.3533975461                 59.3533974833
           2       18                 93.4537491195                 93.4537492066
           3       19               -384.4698526889               -384.4698499465
           3       20                 12.5691022037                 12.5690910168
           3       21                -15.7489097511                -15.7489165588
           3       22                 27.0978334940                 27.0985589490
           3       23                 18.5949116966                 18.5949125562
           3       24                  1.2212828291                  1.2212855301
           3       25                 13.4428926797                 13.4434051125
           3       26                 35.9380614500                 35.9380613666
           3       27                 39.9231532098                 39.9231654735
           3       28                 72.9957335806                 72.9957336833
           3       29                116.4231321147                116.4231321431
           4       30               -514.2564144315               -514.2564099626
           4       31                 15.1726678541                 15.1726530877
           4       32                -21.5447785304                -21.5447874973
           4       33                 14.4944558459                 14.4944698284
           4       34                 20.8882174564                 20.8882178906
           4       35                 -2.4850315908                 -2.4850322289
           4       36                 13.8600193195                 13.8599826966
           4       37                 45.8243383616                 45.8243383675
           4       38                 52.1840606465                 52.1840622440
           4       39                 85.4074185510                 85.4074185819
           4       40                142.0983717302                142.0983717339
 * Note: Onsite integrals marked "***" above are less accurate than
 * onsite_accuracy_threshold =    0.03000 eV. Usually, this is harmless.
 * When in doubt, tighten the "radial" and/or "radial_multiplier" flags to check.

  Preparing densities etc. for the partition functions (integrals / Hartree potential).

  Preparations completed.
  max(cpu_time)          :      0.240 s.
  Wall clock time (cpu1) :      0.237 s.
------------------------------------------------------------

------------------------------------------------------------
          Begin self-consistency loop: Initialization.

          Date     :  20170309, Time     :  183541.519
------------------------------------------------------------

  Initializing index lists of integration centers etc. from given atomic structure:
  | Number of centers in hartree potential         :        32
  | Number of centers in hartree multipole         :        32
  | Number of centers in electron density summation:        32
  | Number of centers in basis integrals           :        32
  | Number of centers in integrals                 :        32
  | Number of centers in hamiltonian               :        32
  Using modified Scalapack Eigenvalue solver (ELPA)
  * Using 32 tasks for Scalapack Eigenvalue solver.
  Detailed listing of tasks and assigned k-points:
  (for non-periodic systems, the "k-point" denotes an internal label only)
   Task     0 k-point     1 on eos162
   Task     1 k-point     1 on eos162
   Task     2 k-point     1 on eos162
   Task     3 k-point     1 on eos162
   Task     4 k-point     1 on eos162
   Task     5 k-point     1 on eos162
   Task     6 k-point     1 on eos162
   Task     7 k-point     1 on eos162
   Task     8 k-point     1 on eos162
   Task     9 k-point     1 on eos162
   Task    10 k-point     1 on eos162
   Task    11 k-point     1 on eos162
   Task    12 k-point     1 on eos162
   Task    13 k-point     1 on eos162
   Task    14 k-point     1 on eos162
   Task    15 k-point     1 on eos162
   Task    16 k-point     1 on eos162
   Task    17 k-point     1 on eos162
   Task    18 k-point     1 on eos162
   Task    19 k-point     1 on eos162
   Task    20 k-point     1 on eos162
   Task    21 k-point     1 on eos162
   Task    22 k-point     1 on eos162
   Task    23 k-point     1 on eos162
   Task    24 k-point     1 on eos162
   Task    25 k-point     1 on eos162
   Task    26 k-point     1 on eos162
   Task    27 k-point     1 on eos162
   Task    28 k-point     1 on eos162
   Task    29 k-point     1 on eos162
   Task    30 k-point     1 on eos162
   Task    31 k-point     1 on eos162
  Tasks:    32 split into      8 X      4 BLACS grid
  Calculating blocksize based on n_basis =          840 max_nprow =            8 max_npcol =            4
  Scalapack blocksize set to:           16
  Required Scalapack workspace - INTEGER:            1 REAL:             1
  Partitioning the integration grid into batches with parallel hashing+maxmin method.
  | Number of batches:     5013
  | Maximal batch size:     200
  | Minimal batch size:      22
  | Average batch size:     105.272
  | Standard deviation of batch sizes:      31.244

  Integration load balanced across    32 MPI tasks.
  Work distribution over tasks is as follows:
  Task     0 has      16530 integration points.
  Task     1 has      16473 integration points.
  Task     2 has      16471 integration points.
  Task     3 has      16516 integration points.
  Task     4 has      16463 integration points.
  Task     5 has      16593 integration points.
  Task     6 has      16530 integration points.
  Task     7 has      16478 integration points.
  Task     8 has      16461 integration points.
  Task     9 has      16524 integration points.
  Task    10 has      16447 integration points.
  Task    11 has      16468 integration points.
  Task    12 has      16565 integration points.
  Task    13 has      16507 integration points.
  Task    14 has      16484 integration points.
  Task    15 has      16457 integration points.
  Task    16 has      16476 integration points.
  Task    17 has      16471 integration points.
  Task    18 has      16466 integration points.
  Task    19 has      16454 integration points.
  Task    20 has      16465 integration points.
  Task    21 has      16449 integration points.
  Task    22 has      16557 integration points.
  Task    23 has      16599 integration points.
  Task    24 has      16450 integration points.
  Task    25 has      16461 integration points.
  Task    26 has      16474 integration points.
  Task    27 has      16559 integration points.
  Task    28 has      16446 integration points.
  Task    29 has      16501 integration points.
  Task    30 has      16467 integration points.
  Task    31 has      16466 integration points.
  Initializing partition tables, free-atom densities, potentials, etc. across the integration grid (initialize_grid_storage).
  | initialize_grid_storage: Actual outermost partition radius vs. multipole_radius_free
  | (-- VB: in principle, multipole_radius_free should be larger, hence this output)
  | Species        1: Confinement radius =              6.000000000000000 AA, multipole_radius_free =              6.071692442739658 AA.
  | Species        1: outer_partition_radius set to              6.071692442739658 AA .
  | Species        2: Confinement radius =              6.000000000000000 AA, multipole_radius_free =              6.029870734432609 AA.
  | Species        2: outer_partition_radius set to              6.029870734432609 AA .
  | Species        3: Confinement radius =              6.000000000000000 AA, multipole_radius_free =              6.058726835495003 AA.
  | Species        3: outer_partition_radius set to              6.058726835495003 AA .
  | Species        4: Confinement radius =              6.000000000000000 AA, multipole_radius_free =              6.064445521808699 AA.
  | Species        4: outer_partition_radius set to              6.064445521808699 AA .
  | Original list of interatomic distances with          32 x         32 entries is created.
  | Net number of integration points:   527728
  | of which are non-zero points    :   414742
  Obtaining max. number of non-zero basis functions in each batch (get_n_compute_maxes).
  | Maximal number of non-zero basis functions:      786 in task     0
  | Maximal number of non-zero basis functions:      776 in task     1
  | Maximal number of non-zero basis functions:      779 in task     2
  | Maximal number of non-zero basis functions:      771 in task     3
  | Maximal number of non-zero basis functions:      785 in task     4
  | Maximal number of non-zero basis functions:      782 in task     5
  | Maximal number of non-zero basis functions:      781 in task     6
  | Maximal number of non-zero basis functions:      768 in task     7
  | Maximal number of non-zero basis functions:      770 in task     8
  | Maximal number of non-zero basis functions:      768 in task     9
  | Maximal number of non-zero basis functions:      768 in task    10
  | Maximal number of non-zero basis functions:      775 in task    11
  | Maximal number of non-zero basis functions:      782 in task    12
  | Maximal number of non-zero basis functions:      775 in task    13
  | Maximal number of non-zero basis functions:      761 in task    14
  | Maximal number of non-zero basis functions:      775 in task    15
  | Maximal number of non-zero basis functions:      779 in task    16
  | Maximal number of non-zero basis functions:      780 in task    17
  | Maximal number of non-zero basis functions:      783 in task    18
  | Maximal number of non-zero basis functions:      775 in task    19
  | Maximal number of non-zero basis functions:      774 in task    20
  | Maximal number of non-zero basis functions:      780 in task    21
  | Maximal number of non-zero basis functions:      760 in task    22
  | Maximal number of non-zero basis functions:      771 in task    23
  | Maximal number of non-zero basis functions:      785 in task    24
  | Maximal number of non-zero basis functions:      776 in task    25
  | Maximal number of non-zero basis functions:      780 in task    26
  | Maximal number of non-zero basis functions:      779 in task    27
  | Maximal number of non-zero basis functions:      763 in task    28
  | Maximal number of non-zero basis functions:      765 in task    29
  | Maximal number of non-zero basis functions:      744 in task    30
  | Maximal number of non-zero basis functions:      775 in task    31
  Selecting the method for density update.
  Loop over occupied states selected for charge density update.
  Integrating Hamiltonian matrix: batch-based integration.
  Time summed over all CPUs for integration: real work       22.035 s, elapsed       22.987 s
  Integrating overlap matrix.
  Time summed over all CPUs for integration: real work       13.505 s, elapsed       13.903 s
  Deallocating overlap matrix.

  Updating Kohn-Sham eigenvalues, eigenvectors, occupation numbers, and Fermi level.
  Solving generalized eigenproblem
  Solving real symmetric generalised eigenvalue problem by standard ScaLAPACK.
  Transforming overlap matrix with ScaLAPACK and checking for singularities.
  : Overlap matrix is nonsingular, using Cholesky decomposition
  | Lowest eigenvalue:  0.890570E-04
  Factoring overlap matrix with Cholesky decomposition
  Using Cholesky factor for transformation
  Using 1-stage real ELPA solver
  Determining occupation numbers for Kohn-Sham eigenstates.
  | Chemical potential (Fermi level) in eV                 : -.93413189E+01
  | Error in electron count due to remaining E_F inaccuracy: 0.00000000E+00
  | Maximum occupation number of highest empty state:  0.00E+00

  Writing Kohn-Sham eigenvalues.

  State    Occupation    Eigenvalue [Ha]    Eigenvalue [eV]
      1       2.00000         -18.974222         -516.31486
      2       2.00000         -18.973611         -516.29822
      3       2.00000         -18.973421         -516.29305
      4       2.00000         -14.255944         -387.92398
      5       2.00000         -14.254512         -387.88501
      6       2.00000         -14.254246         -387.87776
      7       2.00000         -10.170997         -276.76691
      8       2.00000         -10.170741         -276.75995
      9       2.00000         -10.170068         -276.74162
     10       2.00000         -10.166384         -276.64138
     11       2.00000         -10.149542         -276.18309
     12       2.00000         -10.148233         -276.14747
     13       2.00000         -10.136341         -275.82388
     14       2.00000         -10.134797         -275.78185
     15       2.00000         -10.134058         -275.76175
     16       2.00000          -1.134028          -30.85848
     17       2.00000          -1.132036          -30.80427
     18       2.00000          -1.128052          -30.69586
     19       2.00000          -1.018055          -27.70269
     20       2.00000          -1.016130          -27.65031
     21       2.00000          -1.004268          -27.32752
     22       2.00000          -0.887577          -24.15220
     23       2.00000          -0.876923          -23.86228
     24       2.00000          -0.841099          -22.88748
     25       2.00000          -0.817345          -22.24108
     26       2.00000          -0.770980          -20.97943
     27       2.00000          -0.766211          -20.84967
     28       2.00000          -0.708368          -19.27567
     29       2.00000          -0.688547          -18.73633
     30       2.00000          -0.683030          -18.58620
     31       2.00000          -0.641706          -17.46171
     32       2.00000          -0.617292          -16.79737
     33       2.00000          -0.611108          -16.62910
     34       2.00000          -0.597006          -16.24537
     35       2.00000          -0.588683          -16.01889
     36       2.00000          -0.579537          -15.77001
     37       2.00000          -0.573715          -15.61157
     38       2.00000          -0.564589          -15.36324
     39       2.00000          -0.559999          -15.23836
     40       2.00000          -0.553568          -15.06335
     41       2.00000          -0.548808          -14.93384
     42       2.00000          -0.538324          -14.64855
     43       2.00000          -0.533014          -14.50406
     44       2.00000          -0.531505          -14.46300
     45       2.00000          -0.524473          -14.27163
     46       2.00000          -0.516343          -14.05042
     47       2.00000          -0.512719          -13.95178
     48       2.00000          -0.501836          -13.65565
     49       2.00000          -0.497072          -13.52601
     50       2.00000          -0.484833          -13.19299
     51       2.00000          -0.478699          -13.02605
     52       2.00000          -0.472285          -12.85154
     53       2.00000          -0.412702          -11.23021
     54       2.00000          -0.406389          -11.05840
     55       2.00000          -0.400001          -10.88457
     56       2.00000          -0.390116          -10.61559
     57       2.00000          -0.383409          -10.43308
     58       2.00000          -0.376463          -10.24408
     59       0.00000          -0.168929           -4.59678
     60       0.00000          -0.163296           -4.44350
     61       0.00000          -0.152685           -4.15478
     62       0.00000          -0.082356           -2.24102
     63       0.00000          -0.065180           -1.77364
     64       0.00000          -0.060927           -1.65790
     65       0.00000          -0.055856           -1.51993
     66       0.00000          -0.040433           -1.10025
     67       0.00000          -0.039094           -1.06380
     68       0.00000          -0.036799           -1.00134
     69       0.00000          -0.028523           -0.77614
     70       0.00000          -0.024686           -0.67175
     71       0.00000          -0.021791           -0.59296
     72       0.00000          -0.019457           -0.52944
     73       0.00000          -0.013718           -0.37329
     74       0.00000          -0.008001           -0.21771
     75       0.00000          -0.004792           -0.13040
     76       0.00000           0.001686            0.04587
     77       0.00000           0.002196            0.05975
     78       0.00000           0.004557            0.12400
     79       0.00000           0.010413            0.28334
     80       0.00000           0.013997            0.38087
     81       0.00000           0.023348            0.63534
     82       0.00000           0.029708            0.80839
     83       0.00000           0.038593            1.05016
     84       0.00000           0.044051            1.19868
     85       0.00000           0.046963            1.27792
     86       0.00000           0.053172            1.44688
     87       0.00000           0.058143            1.58215
     88       0.00000           0.059529            1.61987
     89       0.00000           0.060438            1.64460
     90       0.00000           0.070096            1.90741
     91       0.00000           0.076334            2.07716
     92       0.00000           0.082615            2.24807
     93       0.00000           0.086517            2.35425
     94       0.00000           0.089634            2.43907
     95       0.00000           0.093322            2.53942
     96       0.00000           0.099350            2.70346
     97       0.00000           0.100808            2.74313
     98       0.00000           0.110593            3.00939
     99       0.00000           0.118144            3.21485
    100       0.00000           0.124350            3.38374
    101       0.00000           0.130633            3.55471
    102       0.00000           0.132511            3.60580
    103       0.00000           0.138659            3.77309
    104       0.00000           0.141173            3.84152
    105       0.00000           0.143810            3.91326
    106       0.00000           0.150494            4.09514
    107       0.00000           0.156932            4.27035
    108       0.00000           0.166609            4.53365
    109       0.00000           0.167298            4.55242
    110       0.00000           0.171800            4.67493
    111       0.00000           0.177318            4.82507
    112       0.00000           0.180259            4.90510
    113       0.00000           0.187350            5.09805
    114       0.00000           0.190893            5.19448
    115       0.00000           0.196719            5.35300
    116       0.00000           0.197359            5.37040
    117       0.00000           0.206250            5.61234
    118       0.00000           0.206646            5.62313
    119       0.00000           0.208255            5.66690
    120       0.00000           0.220313            5.99503
    121       0.00000           0.225184            6.12758
    122       0.00000           0.228241            6.21074
    123       0.00000           0.232618            6.32987
    124       0.00000           0.238541            6.49103
    125       0.00000           0.246362            6.70386
    126       0.00000           0.252381            6.86763
    127       0.00000           0.256769            6.98704
    128       0.00000           0.259927            7.07297
    129       0.00000           0.263706            7.17580

  Highest occupied state (VBM) at    -10.24407776 eV
  | Occupation number:      2.00000000

  Lowest unoccupied state (CBM) at    -4.59678394 eV
  | Occupation number:      0.00000000

  Overall HOMO-LUMO gap:      5.64729382 eV.
  Calculating total energy contributions from superposition of free atom densities.

  Total energy components:
  | Sum of eigenvalues            :        -437.87192268 Ha      -11915.10124990 eV
  | XC energy correction          :         -98.81900699 Ha       -2689.00199511 eV
  | XC potential correction       :         127.01978360 Ha        3456.38417057 eV
  | Free-atom electrostatic energy:        -333.61211702 Ha       -9078.04759004 eV
  | Hartree energy correction     :           0.00000000 Ha           0.00000000 eV
  | MBD@rsSCS energy              :           0.00000000 Ha           0.00000000 eV
  | Entropy correction            :          -0.00000000 Ha          -0.00000000 eV
  | ---------------------------
  | Total energy                  :        -743.28326309 Ha      -20225.76666448 eV
  | Total energy, T -> 0          :        -743.28326309 Ha      -20225.76666448 eV  <-- do not rely on this value for anything but (periodic) metals
  | Electronic free energy        :        -743.28326309 Ha      -20225.76666448 eV

  Derived energy quantities:
  | Kinetic energy                :         735.16344761 Ha       20004.81524320 eV
  | Electrostatic energy          :       -1379.62770371 Ha      -37541.57991256 eV
  | Energy correction for multipole
  | error in Hartree potential    :           0.00000000 Ha           0.00000000 eV
  | Sum of eigenvalues per atom                           :        -372.34691406 eV
  | Total energy (T->0) per atom                          :        -632.05520826 eV  <-- do not rely on this value for anything but (periodic) metals
  | Electronic free energy per atom                       :        -632.05520826 eV
  Initialize hartree_potential_storage
  Max. number of atoms included in rho_multipole:           32

  End scf initialization - timings             :  max(cpu_time)    wall_clock(cpu1)
  | Time for scf. initialization               :        1.924 s           1.920 s
  | Boundary condition initialization          :        0.000 s           0.000 s
  | Integration                                :        1.180 s           1.173 s
  | Solution of K.-S. eqns.                    :        0.076 s           0.075 s
  | Grid partitioning                          :        0.320 s           0.314 s
  | Preloading free-atom quantities on grid    :        0.032 s           0.028 s
  | Free-atom superposition energy             :        0.040 s           0.039 s
  | Total energy evaluation                    :        0.004 s           0.001 s
------------------------------------------------------------

------------------------------------------------------------
          Begin self-consistency iteration #    1

  Date     :  20170309, Time     :  183543.440
------------------------------------------------------------
  Evaluating new KS density.
  Integration grid: deviation in total charge (<rho> - N_e) =   7.105427E-14
  Pulay mixing of updated and previous charge densities.

  Evaluating partitioned Hartree potential by multipole expansion.
  | Analytical far-field extrapolation by fixed multipoles:
  | Hartree multipole sum: apparent total charge =   0.232471E-04
  Summing up the Hartree potential.
  Time summed over all CPUs for potential: real work        9.566 s, elapsed        9.732 s
  | RMS charge density error from multipole expansion :   0.107426E-01

  Integrating Hamiltonian matrix: batch-based integration.
  Time summed over all CPUs for integration: real work       21.865 s, elapsed       22.852 s

  Updating Kohn-Sham eigenvalues, eigenvectors, occupation numbers, and Fermi level.
  Solving generalized eigenproblem
  Solving real symmetric generalised eigenvalue problem by standard ScaLAPACK.
  Using Cholesky factor for transformation
  Using 2-stage real ELPA solver
  K-Point:    1, Trafo times: 1-stage=     0.021 s, 2-stage=     0.019 s ==> Using 2-stage solver
  Determining occupation numbers for Kohn-Sham eigenstates.
  | Chemical potential (Fermi level) in eV                 : -.38665841E+01
  | Error in electron count due to remaining E_F inaccuracy: 0.00000000E+00
  | Maximum occupation number of highest empty state:  0.00E+00

  Writing Kohn-Sham eigenvalues.

  State    Occupation    Eigenvalue [Ha]    Eigenvalue [eV]
      1       2.00000         -18.638705         -507.18496
      2       2.00000         -18.612235         -506.46469
      3       2.00000         -18.597854         -506.07336
      4       2.00000         -14.006201         -381.12812
      5       2.00000         -13.989535         -380.67463
      6       2.00000         -13.974963         -380.27809
      7       2.00000         -10.069316         -274.00004
      8       2.00000         -10.054747         -273.60358
      9       2.00000         -10.038769         -273.16880
     10       2.00000          -9.972895         -271.37627
     11       2.00000          -9.954847         -270.88516
     12       2.00000          -9.900678         -269.41117
     13       2.00000          -9.851881         -268.08333
     14       2.00000          -9.841009         -267.78747
     15       2.00000          -9.829736         -267.48072
     16       2.00000          -0.979813          -26.66206
     17       2.00000          -0.960887          -26.14708
     18       2.00000          -0.943141          -25.66417
     19       2.00000          -0.880652          -23.96377
     20       2.00000          -0.857501          -23.33378
     21       2.00000          -0.852931          -23.20942
     22       2.00000          -0.741851          -20.18679
     23       2.00000          -0.728209          -19.81558
     24       2.00000          -0.680200          -18.50917
     25       2.00000          -0.678477          -18.46230
     26       2.00000          -0.634836          -17.27477
     27       2.00000          -0.625962          -17.03329
     28       2.00000          -0.578482          -15.74129
     29       2.00000          -0.565433          -15.38621
     30       2.00000          -0.548354          -14.92148
     31       2.00000          -0.508684          -13.84199
     32       2.00000          -0.476999          -12.97980
     33       2.00000          -0.470623          -12.80631
     34       2.00000          -0.457862          -12.45906
     35       2.00000          -0.452962          -12.32572
     36       2.00000          -0.440076          -11.97507
     37       2.00000          -0.432848          -11.77840
     38       2.00000          -0.426151          -11.59615
     39       2.00000          -0.413889          -11.26250
     40       2.00000          -0.406393          -11.05851
     41       2.00000          -0.398157          -10.83440
     42       2.00000          -0.395127          -10.75196
     43       2.00000          -0.392037          -10.66788
     44       2.00000          -0.380603          -10.35674
     45       2.00000          -0.372075          -10.12469
     46       2.00000          -0.367029           -9.98738
     47       2.00000          -0.359860           -9.79230
     48       2.00000          -0.355037           -9.66104
     49       2.00000          -0.349136           -9.50047
     50       2.00000          -0.344632           -9.37792
     51       2.00000          -0.338772           -9.21846
     52       2.00000          -0.319124           -8.68381
     53       2.00000          -0.254251           -6.91852
     54       2.00000          -0.235078           -6.39679
     55       2.00000          -0.230369           -6.26866
     56       2.00000          -0.219886           -5.98341
     57       2.00000          -0.209302           -5.69540
     58       2.00000          -0.196021           -5.33400
     59       0.00000          -0.060623           -1.64965
     60       0.00000          -0.051204           -1.39333
     61       0.00000          -0.037093           -1.00935
     62       0.00000          -0.029339           -0.79836
     63       0.00000          -0.021145           -0.57540
     64       0.00000          -0.015394           -0.41890
     65       0.00000          -0.010893           -0.29641
     66       0.00000           0.004363            0.11872
     67       0.00000           0.013723            0.37342
     68       0.00000           0.018852            0.51300
     69       0.00000           0.020097            0.54688
     70       0.00000           0.024570            0.66858
     71       0.00000           0.033870            0.92165
     72       0.00000           0.040575            1.10410
     73       0.00000           0.045035            1.22548
     74       0.00000           0.050721            1.38018
     75       0.00000           0.057426            1.56263
     76       0.00000           0.060981            1.65939
     77       0.00000           0.065117            1.77191
     78       0.00000           0.073429            1.99810
     79       0.00000           0.077477            2.10827
     80       0.00000           0.083967            2.28487
     81       0.00000           0.090387            2.45954
     82       0.00000           0.096198            2.61769
     83       0.00000           0.099980            2.72058
     84       0.00000           0.102130            2.77911
     85       0.00000           0.110329            3.00220
     86       0.00000           0.116367            3.16650
     87       0.00000           0.122583            3.33567
     88       0.00000           0.126004            3.42875
     89       0.00000           0.131074            3.56671
     90       0.00000           0.135876            3.69738
     91       0.00000           0.138819            3.77744
     92       0.00000           0.144271            3.92582
     93       0.00000           0.153715            4.18281
     94       0.00000           0.158626            4.31643
     95       0.00000           0.165646            4.50747
     96       0.00000           0.168948            4.59730
     97       0.00000           0.170984            4.65271
     98       0.00000           0.177076            4.81850
     99       0.00000           0.178216            4.84949
    100       0.00000           0.187891            5.11277
    101       0.00000           0.195588            5.32222
    102       0.00000           0.199213            5.42085
    103       0.00000           0.199993            5.44209
    104       0.00000           0.207179            5.63763
    105       0.00000           0.212488            5.78209
    106       0.00000           0.216783            5.89897
    107       0.00000           0.217021            5.90544
    108       0.00000           0.223463            6.08074
    109       0.00000           0.225722            6.14220
    110       0.00000           0.233457            6.35268
    111       0.00000           0.237716            6.46858
    112       0.00000           0.242540            6.59985
    113       0.00000           0.251870            6.85373
    114       0.00000           0.252419            6.86866
    115       0.00000           0.254963            6.93790
    116       0.00000           0.265033            7.21192
    117       0.00000           0.265979            7.23766
    118       0.00000           0.268947            7.31842
    119       0.00000           0.274034            7.45683
    120       0.00000           0.280171            7.62384
    121       0.00000           0.288460            7.84940
    122       0.00000           0.292826            7.96821
    123       0.00000           0.297986            8.10860
    124       0.00000           0.303040            8.24615
    125       0.00000           0.316265            8.60600
    126       0.00000           0.322503            8.77575
    127       0.00000           0.325243            8.85031
    128       0.00000           0.329517            8.96660
    129       0.00000           0.341586            9.29504

  Highest occupied state (VBM) at     -5.33399766 eV
  | Occupation number:      2.00000000

  Lowest unoccupied state (CBM) at    -1.64964844 eV
  | Occupation number:      0.00000000

  Overall HOMO-LUMO gap:      3.68434922 eV.

  Total energy components:
  | Sum of eigenvalues            :        -417.58616567 Ha      -11363.09771598 eV
  | XC energy correction          :        -100.75329763 Ha       -2741.63672157 eV
  | XC potential correction       :         129.52834906 Ha        3524.64570993 eV
  | Free-atom electrostatic energy:        -333.61211702 Ha       -9078.04759004 eV
  | Hartree energy correction     :         -20.29187726 Ha        -552.17007422 eV
  | MBD@rsSCS energy              :           0.00000000 Ha           0.00000000 eV
  | Entropy correction            :           0.00000000 Ha           0.00000000 eV
  | ---------------------------
  | Total energy                  :        -742.71510852 Ha      -20210.30639188 eV
  | Total energy, T -> 0          :        -742.71510852 Ha      -20210.30639188 eV  <-- do not rely on this value for anything but (periodic) metals
  | Electronic free energy        :        -742.71510852 Ha      -20210.30639188 eV

  Derived energy quantities:
  | Kinetic energy                :         744.04365498 Ha       20246.45798054 eV
  | Electrostatic energy          :       -1386.00546587 Ha      -37715.12765085 eV
  | Energy correction for multipole
  | error in Hartree potential    :          -0.04174162 Ha          -1.13584720 eV
  | Sum of eigenvalues per atom                           :        -355.09680362 eV
  | Total energy (T->0) per atom                          :        -631.57207475 eV  <-- do not rely on this value for anything but (periodic) metals
  | Electronic free energy per atom                       :        -631.57207475 eV

  Self-consistency convergence accuracy:
  | Change of charge density      :  0.9032E+00
  | Change of sum of eigenvalues  :  0.5520E+03 eV
  | Change of total energy        :  0.1546E+02 eV

  End self-consistency iteration #     1       :  max(cpu_time)    wall_clock(cpu1)
  | Time for this iteration                    :        1.564 s           1.562 s
[...]
   Multipole                     : -0.308161E+00 -0.395732E+00 -0.181950E+00
   Pulay + GGA                   : -0.770474E+01 -0.936301E+01 -0.487887E+01
   MBD@rsSCS                     : -0.152606E-01 -0.552128E-02 -0.159953E-01
   ----------------------------------------------------------------
   Total forces(  20)            : -0.125440E-01  0.313292E-02 -0.133862E-02
  atom #   21
   Hellmann-Feynman              :  0.434599E-01  0.620560E-02 -0.439444E-01
   Ionic forces                  :  0.000000E+00  0.000000E+00  0.000000E+00
   Multipole                     : -0.676401E-03  0.185049E-01  0.338299E-01
   Pulay + GGA                   : -0.521369E-01 -0.267986E-01  0.203027E-01
   MBD@rsSCS                     :  0.739909E-02 -0.279649E-03  0.104003E-01
   ----------------------------------------------------------------
   Total forces(  21)            : -0.195424E-02 -0.236766E-02  0.205885E-01
  atom #   22
   Hellmann-Feynman              : -0.225899E-04 -0.510175E-01  0.357469E-01
   Ionic forces                  :  0.000000E+00  0.000000E+00  0.000000E+00
   Multipole                     : -0.170469E-02 -0.115232E-01 -0.120583E-01
   Pulay + GGA                   :  0.329724E-02  0.595728E-01 -0.351697E-01
   MBD@rsSCS                     :  0.511042E-02 -0.852559E-03 -0.127770E-01
   ----------------------------------------------------------------
   Total forces(  22)            :  0.668038E-02 -0.382049E-02 -0.242580E-01
  atom #   23
   Hellmann-Feynman              : -0.770334E+00  0.324206E+00  0.779328E+00
   Ionic forces                  :  0.000000E+00  0.000000E+00  0.000000E+00
   Multipole                     :  0.211205E+00  0.174933E-01 -0.176914E+00
   Pulay + GGA                   :  0.556373E+00 -0.333438E+00 -0.592796E+00
   MBD@rsSCS                     :  0.104351E-01 -0.107559E-01 -0.862488E-02
   ----------------------------------------------------------------
   Total forces(  23)            :  0.767895E-02 -0.249463E-02  0.993319E-03
  atom #   24
   Hellmann-Feynman              :  0.364282E-01 -0.787918E-02 -0.526406E-01
   Ionic forces                  :  0.000000E+00  0.000000E+00  0.000000E+00
   Multipole                     : -0.349294E-01 -0.181909E-01 -0.465362E-03
   Pulay + GGA                   :  0.380161E-02  0.302083E-01  0.524871E-01
   MBD@rsSCS                     :  0.882944E-02 -0.270547E-02 -0.580061E-02
   ----------------------------------------------------------------
   Total forces(  24)            :  0.141299E-01  0.143278E-02 -0.641952E-02
  atom #   25
   Hellmann-Feynman              :  0.202266E-01  0.377885E-01 -0.325387E-04
   Ionic forces                  :  0.000000E+00  0.000000E+00  0.000000E+00
   Multipole                     : -0.372536E-02  0.260501E-01 -0.636543E-02
   Pulay + GGA                   : -0.165388E-01 -0.640922E-01 -0.117927E-02
   MBD@rsSCS                     :  0.117642E-01 -0.932096E-02 -0.939335E-02
   ----------------------------------------------------------------
   Total forces(  25)            :  0.117266E-01 -0.957454E-02 -0.169706E-01
  atom #   26
   Hellmann-Feynman              :  0.504175E-01 -0.116912E-02 -0.107858E-01
   Ionic forces                  :  0.000000E+00  0.000000E+00  0.000000E+00
   Multipole                     :  0.213407E-02 -0.188887E-01  0.302120E-01
   Pulay + GGA                   : -0.513043E-01  0.177864E-01 -0.240972E-01
   MBD@rsSCS                     :  0.733460E-02 -0.352665E-02 -0.847389E-02
   ----------------------------------------------------------------
   Total forces(  26)            :  0.858190E-02 -0.579814E-02 -0.131449E-01
  atom #   27
   Hellmann-Feynman              :  0.101988E+01  0.115161E+01  0.294206E-01
   Ionic forces                  :  0.000000E+00  0.000000E+00  0.000000E+00
   Multipole                     :  0.235244E-01  0.150708E+00  0.778129E-01
   Pulay + GGA                   : -0.104528E+01 -0.130837E+01 -0.964986E-01
   MBD@rsSCS                     : -0.173035E-01  0.173373E-01 -0.193394E-01
   ----------------------------------------------------------------
   Total forces(  27)            : -0.191817E-01  0.112811E-01 -0.860444E-02
  atom #   28
   Hellmann-Feynman              : -0.961215E+00 -0.201444E+01 -0.570598E+00
   Ionic forces                  :  0.000000E+00  0.000000E+00  0.000000E+00
   Multipole                     :  0.717848E-01  0.121799E+00  0.545231E-01
   Pulay + GGA                   :  0.887960E+00  0.189472E+01  0.518840E+00
   MBD@rsSCS                     : -0.315141E-02  0.235315E-01 -0.102548E-01
   ----------------------------------------------------------------
   Total forces(  28)            : -0.462200E-02  0.256115E-01 -0.748989E-02
  atom #   29
   Hellmann-Feynman              : -0.326484E-01  0.595311E-01 -0.174791E-01
   Ionic forces                  :  0.000000E+00  0.000000E+00  0.000000E+00
   Multipole                     : -0.159463E-01 -0.400573E-01 -0.652251E-02
   Pulay + GGA                   :  0.545860E-01 -0.248174E-01  0.295533E-01
   MBD@rsSCS                     : -0.567661E-02  0.481657E-03 -0.498199E-02
   ----------------------------------------------------------------
   Total forces(  29)            :  0.314657E-03 -0.486190E-02  0.569674E-03
  atom #   30
   Hellmann-Feynman              :  0.580819E-01  0.155548E-01  0.555355E-02
   Ionic forces                  :  0.000000E+00  0.000000E+00  0.000000E+00
   Multipole                     :  0.117581E-01 -0.762448E-02 -0.249636E-01
   Pulay + GGA                   : -0.716316E-01  0.466701E-02  0.161777E-01
   MBD@rsSCS                     : -0.550991E-02  0.183877E-01 -0.416492E-02
   ----------------------------------------------------------------
   Total forces(  30)            : -0.730155E-02  0.309851E-01 -0.739729E-02
  atom #   31
   Hellmann-Feynman              :  0.489671E-02  0.577880E-01 -0.115810E-02
   Ionic forces                  :  0.000000E+00  0.000000E+00  0.000000E+00
   Multipole                     : -0.293603E-01 -0.126510E-01 -0.282720E-01
   Pulay + GGA                   :  0.277725E-01 -0.502228E-01  0.321416E-01
   MBD@rsSCS                     :  0.655438E-03  0.667619E-02 -0.694808E-03
   ----------------------------------------------------------------
   Total forces(  31)            :  0.396434E-02  0.159048E-02  0.201668E-02
  atom #   32
   Hellmann-Feynman              :  0.933651E-02  0.243990E-01  0.278430E-01
   Ionic forces                  :  0.000000E+00  0.000000E+00  0.000000E+00
   Multipole                     : -0.112158E-01  0.215666E-02  0.250301E-01
   Pulay + GGA                   : -0.228049E-02 -0.273847E-01 -0.517430E-01
   MBD@rsSCS                     : -0.273210E-02  0.168461E-01 -0.101901E-01
   ----------------------------------------------------------------
   Total forces(  32)            : -0.689191E-02  0.160170E-01 -0.906002E-02

  Removing unitary transformations (pure translations, rotations) from forces on atoms.
  Atomic forces before filtering:
  | Net force on center of mass :   0.212354E-03  0.509478E-04 -0.389840E-03 eV/A
  | Net torque on center of mass:  -0.771487E-03 -0.188670E-02 -0.551792E-03 eV
  Atomic forces after filtering:
  | Net force on center of mass :  -0.139380E-17  0.139380E-16  0.139380E-16 eV/A
  | Net torque on center of mass:   0.177016E-16  0.272899E-16 -0.177016E-16 eV

  Energy and forces in a compact form:
  | Total energy uncorrected      :         -0.202089814733703E+05 eV
  | Total energy corrected        :         -0.202089814733709E+05 eV  <-- do not rely on this value for anything but (periodic) metals
  | Electronic free energy        :         -0.202089814733714E+05 eV
  Total atomic forces (unitary forces cleaned) [eV/Ang]:
  |   1         -0.170896790848418E-02         -0.462515830325726E-02         -0.440465627451501E-02
  |   2         -0.202195519553517E-01          0.202141755438568E-01          0.125647786700281E-01
  |   3         -0.116990899804007E-01         -0.657841226395937E-02         -0.127750824441546E-01
  |   4         -0.134896592311787E-02          0.706024665394679E-02          0.373555036861724E-02
  |   5          0.671596854458402E-03          0.324436641852667E-02          0.886937208197807E-02
  |   6         -0.602934167724038E-02          0.520704545464102E-02          0.359422805886924E-02
  |   7          0.595499341947638E-02          0.723007089565033E-02         -0.184909885495154E-01
  |   8         -0.117353485399639E-01          0.103119734303270E-01          0.197693978606202E-01
  |   9          0.417515531958211E-02          0.105121078132165E-01          0.218036913718868E-01
  |  10          0.440079447452385E-02          0.191862436467089E-02         -0.165968298911170E-02
  |  11          0.407731168506695E-02          0.244243130891773E-02          0.280168524748013E-02
  |  12         -0.983686568778193E-02          0.125288708934931E-01          0.230646489924947E-01
  |  13          0.133760794126216E-02         -0.293914743753032E-01          0.121435524994462E-01
  |  14          0.141970363045419E-01         -0.187476881519300E-01         -0.165464838401303E-03
  |  15         -0.336868904518766E-02         -0.186893331395180E-01          0.161248384364177E-01
  |  16          0.251494518508381E-02         -0.100651870636590E-01         -0.744093215969046E-03
  |  17          0.323445374027934E-01         -0.912900136517700E-02          0.257312687168634E-01
  |  18          0.159743179423298E-01         -0.205903979978399E-01         -0.173739345450008E-01
  |  19         -0.204051385268355E-01         -0.238789144553183E-01         -0.243145821279670E-01
  |  20         -0.125342290401853E-01          0.312742498618240E-02         -0.132970384084195E-02
  |  21         -0.195624721966181E-02         -0.237565676086472E-02          0.206172751521398E-01
  |  22          0.667855400347934E-02         -0.382671697036694E-02         -0.242353036451076E-01
  |  23          0.768841905121403E-02         -0.250653496731920E-02          0.102364939319396E-02
  |  24          0.141440374055631E-01          0.141980099242245E-02         -0.639028156071523E-02
  |  25          0.117406877831672E-01         -0.958780564435646E-02         -0.169402939815442E-01
  |  26          0.858734398012537E-02         -0.581099776710700E-02         -0.131074757689141E-01
  |  27         -0.191701048609030E-01          0.112754972504475E-01         -0.859686239345020E-02
  |  28         -0.461046973033541E-02          0.256049932028428E-01         -0.747934701676244E-02
  |  29          0.329791529750564E-03         -0.486661845105527E-02          0.570738800922379E-03
  |  30         -0.728787592721444E-02          0.309756636009819E-01         -0.737937510225097E-02
  |  31          0.398120279240756E-02          0.158383070515761E-02          0.202240408019071E-02
  |  32         -0.688744705216211E-02          0.160127741617501E-01         -0.904995143692707E-02

  ------------------------------------ 
  Start decomposition of the XC Energy 
  ------------------------------------ 
  Hartree-Fock part   :          0.000000000 Ha              0.000000000 eV
  ------------------------------------ 
  X Energy            :        -96.985980498 Ha          -2639.122806437 eV
  C Energy GGA        :         -3.867981296 Ha           -105.253126278 eV
  Total XC Energy     :       -100.853961794 Ha          -2744.375932714 eV
  LDA X and C from self-consistent density 
  X Energy LDA        :        -88.001222853 Ha          -2394.635111531 eV
  C Energy LDA        :         -7.531707501 Ha           -204.948188751 eV
  ------------------------------------ 
  End decomposition of the XC Energy 
  ------------------------------------ 
   
  ESP charge fitting starts.
  | Calculation :  00000001  of  00000001
  | Full density
  Computing multipole expansion for total density.
  Generating points for esp charges.
  Partitioning the integration grid into batches with parallel hashing+maxmin method.
  | Number of batches:     3873
  | Maximal batch size:     197
  | Minimal batch size:      52
  | Average batch size:     125.871
  | Standard deviation of batch sizes:      18.100

  Integration load balanced across    32 MPI tasks.
  Work distribution over tasks is as follows:
  Initializing partition tables, free-atom densities, potentials, etc. across the integration grid (initialize_grid_storage).
  | Original list of interatomic distances with          32 x         32 entries is created.
  | Net number of integration points:   487500
  | of which are non-zero points    :   487500
  Summing up potential from multipole expanded  density.
  Summing up the Hartree potential.
  Time summed over all CPUs for potential: real work        6.320 s, elapsed        6.498 s
  Fitting esp charges to potential.
  |
  | ESP charges fitted to the electrostatic potential :
  |
  | Atom         1: C, ESP charge:      0.88790432
  |
  | Atom         2: C, ESP charge:     -0.67562525
  |
  | Atom         3: O, ESP charge:      0.54787607
  |
  | Atom         4: H, ESP charge:     -0.24672755
  |
  | Atom         5: H, ESP charge:     -0.25369608
  |
  | Atom         6: H, ESP charge:     -0.23055877
  |
  | Atom         7: N, ESP charge:      0.52946682
  |
  | Atom         8: C, ESP charge:     -0.63997079
  |
  | Atom         9: C, ESP charge:     -0.37567674
  |
  | Atom        10: O, ESP charge:      0.49767777
  |
  | Atom        11: H, ESP charge:     -0.25738036
  |
  | Atom        12: H, ESP charge:      0.01513304
  |
  | Atom        13: C, ESP charge:      0.68108967
  |
  | Atom        14: H, ESP charge:     -0.18853044
  |
  | Atom        15: H, ESP charge:     -0.18124840
  |
  | Atom        16: H, ESP charge:     -0.15636040
  |
  | Atom        17: N, ESP charge:      0.71968684
  |
  | Atom        18: C, ESP charge:     -0.88974002
  |
  | Atom        19: C, ESP charge:     -0.05376991
  |
  | Atom        20: O, ESP charge:      0.45408529
  |
  | Atom        21: H, ESP charge:     -0.33862832
  |
  | Atom        22: H, ESP charge:      0.15773041
  |
  | Atom        23: C, ESP charge:      0.50867381
  |
  | Atom        24: H, ESP charge:     -0.14962997
  |
  | Atom        25: H, ESP charge:     -0.12160879
  |
  | Atom        26: H, ESP charge:     -0.10953147
  |
  | Atom        27: N, ESP charge:      0.23637572
  |
  | Atom        28: C, ESP charge:      0.28795353
  |
  | Atom        29: H, ESP charge:     -0.30456905
  |
  | Atom        30: H, ESP charge:     -0.09955086
  |
  | Atom        31: H, ESP charge:     -0.14048242
  |
  | Atom        32: H, ESP charge:     -0.11036770

  RRMS:       0.00271494

  Done.

------------------------------------------------------------------------------
  Final output of selected total energy values:

  The following output summarizes some interesting total energy values
  at the end of a run (AFTER all relaxation, molecular dynamics, etc.).

  | Total energy of the DFT / Hartree-Fock s.c.f. calculation      :         -20208.981473370 eV
  | Final zero-broadening corrected energy (caution - metals only) :         -20208.981473371 eV
  | For reference only, the value of 1 Hartree used in FHI-aims is :             27.211384500 eV

  Before relying on these values, please be sure to understand exactly which
  total energy value is referred to by a given number. Different objects may
  all carry the same name 'total energy'. Definitions:

  Total energy of the DFT / Hartree-Fock s.c.f. calculation:
  | Note that this energy does not include ANY quantities calculated after the
  | s.c.f. cycle, in particular not ANY RPA, MP2, etc. many-body perturbation terms.

  Final zero-broadening corrected energy:
  | For metallic systems only, a broadening of the occupation numbers at the Fermi
  | level can be extrapolated back to zero broadening by an electron-gas inspired
  | formula. For all systems that are not real metals, this value can be
  | meaningless and should be avoided.

------------------------------------------------------------------------------
  Methods described in the following list of references were used in this FHI-aims run.
  If you publish the results, please make sure to cite these reference if they apply.
  FHI-aims is an academic code, and for our developers (often, Ph.D. students
  and postdocs), scientific credit in the community is essential.
  Thank you for helping us!

  For any use of FHI-aims, please cite:

    Volker Blum, Ralf Gehrke, Felix Hanke, Paula Havu, Ville Havu,
    Xinguo Ren, Karsten Reuter, and Matthias Scheffler
    'Ab initio molecular simulations with numeric atom-centered orbitals'
    Computer Physics Communications 180, 2175-2196 (2009)
    http://dx.doi.org/10.1016/j.cpc.2009.06.022


  The scalable eigensolver library ELPA was used in your run.
  ELPA is essential especially for large systems on hundreds or thousands of CPUs.
  For ELPA, please cite:

    Andreas Marek, Volker Blum, Rainer Johanni, Ville Havu, Bruno Lang,
    Thomas Auckenthaler, Alexander Heinecke, Hans-Joachim Bungartz, and Hermann Lederer,
    'The ELPA Library - Scalable Parallel Eigenvalue Solutions
    for Electronic Structure Theory and Computational Science'
    The Journal of Physics: Condensed Matter 26, 213201 (2014).
    http://dx.doi.org/10.1088/0953-8984/26/21/213201


  For ELPA's efficient two-stage tridiagonalization used in your run, please cite:

    T. Auckenthaler, V. Blum, H.-J. Bungartz, T. Huckle, R. Johanni, L. Kraemer,
    B. Lang, H. Lederer, and P. R. Willems,
    'Parallel solution of partial symmetric eigenvalue problems'
    'from  electronic structure calculations'
    Parallel Computing 37, 783-794 (2011).
    http://dx.doi.org/10.1016/j.parco.2011.05.002


  For the real-space grid partitioning and parallelization used in this calculation, please cite:

    Ville Havu, Volker Blum, Paula Havu, and Matthias Scheffler,
    'Efficient O(N) integration for all-electron electronic structure calculation'
    'using numerically tabulated basis functions'
    Journal of Computational Physics 228, 8367-8379 (2009).
    http://dx.doi.org/10.1016/j.jcp.2009.08.008

  Of course, there are many other important community references, e.g., those cited in the
  above references. Our list is limited to references that describe implementations in the
  FHI-aims code. The reason is purely practical (length of this list) - please credit others as well.

------------------------------------------------------------
          Leaving FHI-aims.
          Date     :  20170309, Time     :  183614.493

          Computational steps:
          | Number of self-consistency cycles          :           14

          Detailed time accounting                     :  max(cpu_time)    wall_clock(cpu1)
          | Total time                                 :       33.802 s          34.027 s
          | Preparation time                           :        0.240 s           0.237 s
          | Grid partitioning                          :        0.320 s           0.314 s
          | Preloading free-atom quantities on grid    :        0.032 s           0.028 s
          | Free-atom superposition energy             :        0.040 s           0.039 s
          | Total time for integrations                :       11.373 s          11.352 s
          | Total time for solution of K.-S. equations :        0.528 s           0.499 s
          | Total time for density & force components  :        9.885 s           9.864 s
          | Total time for mixing                      :        0.132 s           0.109 s
          | Total time for Hartree multipole update    :        0.060 s           0.057 s
          | Total time for Hartree multipole sum       :        6.376 s           6.350 s
          | Total time for total energy evaluation     :        0.040 s           0.022 s

          Have a nice day.
------------------------------------------------------------
