  MPI-parallelism will be employed.
------------------------------------------------------------
          Invoking FHI-aims ...
          Version 150427
          Git rev.: 9dd23e0 BL: Update Version stamp
          Compiled on 2015/11/03 at 22:05:20 on host eos03.

          When using FHI-aims, please cite the following reference:

          Volker Blum, Ralf Gehrke, Felix Hanke, Paula Havu,
          Ville Havu, Xinguo Ren, Karsten Reuter, and Matthias Scheffler,
          'Ab Initio Molecular Simulations with Numeric Atom-Centered Orbitals: FHI-aims',
          Computer Physics Communications 180, 2175-2196 (2009)

          For any questions about FHI-aims, please visit the aimsclub website
          with its forums and wiki. Contributions to both the forums and the
          wiki are warmly encouraged - they are for you, and everyone is welcome there.

------------------------------------------------------------

  Date     :  20170309, Time     :  180010.410
  Time zero on CPU 1             :   0.320020000000000E+00  s.
  Internal wall clock time zero  :           258314410.410  s.

  Using       32 parallel tasks.
  Task        0 on host eos399 reporting.
  Task        1 on host eos399 reporting.
  Task        2 on host eos399 reporting.
  Task        3 on host eos399 reporting.
  Task        4 on host eos399 reporting.
  Task        5 on host eos399 reporting.
  Task        6 on host eos399 reporting.
  Task        7 on host eos399 reporting.
  Task        8 on host eos399 reporting.
  Task        9 on host eos399 reporting.
  Task       10 on host eos399 reporting.
  Task       11 on host eos399 reporting.
  Task       12 on host eos399 reporting.
  Task       13 on host eos399 reporting.
  Task       14 on host eos399 reporting.
  Task       15 on host eos399 reporting.
  Task       16 on host eos399 reporting.
  Task       17 on host eos399 reporting.
  Task       18 on host eos399 reporting.
  Task       19 on host eos399 reporting.
  Task       20 on host eos399 reporting.
  Task       21 on host eos399 reporting.
  Task       22 on host eos399 reporting.
  Task       23 on host eos399 reporting.
  Task       24 on host eos399 reporting.
  Task       25 on host eos399 reporting.
  Task       26 on host eos399 reporting.
  Task       27 on host eos399 reporting.
  Task       28 on host eos399 reporting.
  Task       29 on host eos399 reporting.
  Task       30 on host eos399 reporting.
  Task       31 on host eos399 reporting.

  Performing system and environment tests:
  | Environment variable OMP_NUM_THREADS correctly set to 1.
  | Stacksize not measured: no C compiler
  | Checking for scalapack...
  | Testing pdtran()...
  | All pdtran() tests passed.

  Obtaining array dimensions for all initial allocations:
  
  -----------------------------------------------------------------------
  Parsing control.in (first pass over file, find array dimensions only).
  The contents of control.in will be repeated verbatim below
  unless switched off by setting 'verbatim_writeout .false.' .
  in the first line of control.in .
  -----------------------------------------------------------------------
  
  #########################################################################################
  #
  # Input for System
  #
  #########################################################################################
  #
  #
  #  Physical model
  #
    xc                 pbe
    many_body_dispersion
    spin               none
    charge             0.
  #
  #  SCF convergence
  #
    occupation_type    gaussian 0.05
    mixer              pulay
      n_max_pulay        10
      charge_mix_param   0.5
    sc_accuracy_rho    1E-4
    sc_accuracy_eev    1E-2
    sc_accuracy_etot   1E-5
    sc_accuracy_forces 1E-4
    sc_iter_limit      1000
  #
  #  ESP charge
  #
    output esp
    esp equal_grid_n 80 80 80
  #
  #
  ################################################################################
  #
  #  FHI-aims code project
  # Volker Blum, Fritz Haber Institute Berlin, 2009
  #
  #  Suggested "tight" defaults for H atom (to be pasted into control.in file)
  #
  ################################################################################
    species        H
  #     global species definitions
      nucleus             1
      mass                1.00794
  #
      l_hartree           6
  #
      cut_pot             4.0  2.0  1.0
      basis_dep_cutoff    1e-4
  #
      radial_base         24 7.0
      radial_multiplier   2
      angular_grids       specified
        division   0.1930   50
        division   0.3175  110
        division   0.4293  194
        division   0.5066  302
        division   0.5626  434
  #      division   0.5922  590
  #      division   0.6227  974
  #      division   0.6868 1202
  #      outer_grid  770
        outer_grid  434
  ################################################################################
  #
  #  Definition of "minimal" basis
  #
  ################################################################################
  #     valence basis states
      valence      1  s   1.
  #     ion occupancy
      ion_occ      1  s   0.5
  ################################################################################
  #
  #  Suggested additional basis functions. For production calculations,
  #  uncomment them one after another (the most important basis functions are
  #  listed first).
  #
  #  Basis constructed for dimers: 0.5 A, 0.7 A, 1.0 A, 1.5 A, 2.5 A
  #
  ################################################################################
  #  "First tier" - improvements: -1014.90 meV to -62.69 meV
       hydro 2 s 2.1
       hydro 2 p 3.5
  #  "Second tier" - improvements: -12.89 meV to -1.83 meV
       hydro 1 s 0.85
       hydro 2 p 3.7
       hydro 2 s 1.2
       hydro 3 d 7
  #  "Third tier" - improvements: -0.25 meV to -0.12 meV
  #     hydro 4 f 11.2
  #     hydro 3 p 4.8
  #     hydro 4 d 9
  #     hydro 3 s 3.2
  ################################################################################
  #
  # For methods that use the localized form of the "resolution of identity" for
  # the two-electron Coulomb operator (RI_method LVL), particularly Hartree-Fock and
  # hybrid density functional calculations, the highest accuracy can be obtained by
  # uncommenting the line beginning with "for_aux"  below, thus adding an extra g radial
  # function to the construction of the product basis set for the expansion.
  # See Ref. New J. Phys. 17, 093020 (2015) for more information, particularly Figs. 1 and 6.
  #
  ################################################################################
  #
  # for_aux hydro 5 g 6.0
  ################################################################################
  #
  #  FHI-aims code project
  # Volker Blum, Fritz Haber Institute Berlin, 2009
  #
  #  Suggested "tight" defaults for C atom (to be pasted into control.in file)
  #
  ################################################################################
    species        C
  #     global species definitions
      nucleus             6
      mass                12.0107
  #
      l_hartree           6
  #
      cut_pot             4.0  2.0  1.0
      basis_dep_cutoff    1e-4
  #
      radial_base         34 7.0
      radial_multiplier   2
      angular_grids specified
        division   0.2187   50
        division   0.4416  110
        division   0.6335  194
        division   0.7727  302
        division   0.8772  434
  #      division   0.9334  590
  #      division   0.9924  770
  #      division   1.0230  974
  #      division   1.5020 1202
  #     outer_grid  974
        outer_grid  434
  ################################################################################
  #
  #  Definition of "minimal" basis
  #
  ################################################################################
  #     valence basis states
      valence      2  s   2.
      valence      2  p   2.
  #     ion occupancy
      ion_occ      2  s   1.
      ion_occ      2  p   1.
  ################################################################################
  #
  #  Suggested additional basis functions. For production calculations,
  #  uncomment them one after another (the most important basis functions are
  #  listed first).
  #
  #  Constructed for dimers: 1.0 A, 1.25 A, 1.5 A, 2.0 A, 3.0 A
  #
  ################################################################################
  #  "First tier" - improvements: -1214.57 meV to -155.61 meV
       hydro 2 p 1.7
       hydro 3 d 6
       hydro 2 s 4.9
  #  "Second tier" - improvements: -67.75 meV to -5.23 meV
       hydro 4 f 9.8
       hydro 3 p 5.2
       hydro 3 s 4.3
       hydro 5 g 14.4
       hydro 3 d 6.2
  #  "Third tier" - improvements: -2.43 meV to -0.60 meV
  #     hydro 2 p 5.6
  #     hydro 2 s 1.4
  #     hydro 3 d 4.9
  #     hydro 4 f 11.2
  #  "Fourth tier" - improvements: -0.39 meV to -0.18 meV
  #     hydro 2 p 2.1
  #     hydro 5 g 16.4
  #     hydro 4 d 13.2
  #     hydro 3 s 13.6
  #     hydro 4 f 17.6
  #  Further basis functions - improvements: -0.08 meV and below
  #     hydro 3 s 2
  #     hydro 3 p 6
  #     hydro 4 d 20
  ################################################################################
  #
  # For methods that use the localized form of the "resolution of identity" for
  # the two-electron Coulomb operator (RI_method LVL), particularly Hartree-Fock and
  # hybrid density functional calculations, the highest accuracy can be obtained by
  # uncommenting the line beginning with "for_aux"  below, thus adding an extra g radial
  # function to the construction of the product basis set for the expansion.
  # See Ref. New J. Phys. 17, 093020 (2015) for more information, particularly Figs. 1 and 6.
  #
  ################################################################################
  #
  # for_aux hydro 5 g 6.0
  ################################################################################
  #
  #  FHI-aims code project
  # Volker Blum, Fritz Haber Institute Berlin, 2009
  #
  #  Suggested "tight" defaults for N atom (to be pasted into control.in file)
  #
  ################################################################################
    species        N
  #     global species definitions
      nucleus             7
      mass                14.0067
  #
      l_hartree           6
  #
      cut_pot             4.0  2.0  1.0
      basis_dep_cutoff    1e-4
  #
      radial_base         35 7.0
      radial_multiplier   2
      angular_grids       specified
        division   0.1841   50
        division   0.3514  110
        division   0.5126  194
        division   0.6292  302
        division   0.6939  434
  #      division   0.7396  590
  #      division   0.7632  770
  #      division   0.8122  974
  #      division   1.1604 1202
  #      outer_grid  974
        outer_grid  434
  ################################################################################
  #
  #  Definition of "minimal" basis
  #
  ################################################################################
  #     valence basis states
      valence      2  s   2.
      valence      2  p   3.
  #     ion occupancy
      ion_occ      2  s   1.
      ion_occ      2  p   2.
  ################################################################################
  #
  #  Suggested additional basis functions. For production calculations,
  #  uncomment them one after another (the most important basis functions are
  #  listed first).
  #
  #  Constructed for dimers: 1.0 A, 1.1 A, 1.5 A, 2.0 A, 3.0 A
  #
  ################################################################################
  #  "First tier" - improvements: -1193.42 meV to -220.60 meV
       hydro 2 p 1.8
       hydro 3 d 6.8
       hydro 3 s 5.8
  #  "Second tier" - improvements: -80.21 meV to -6.86 meV
       hydro 4 f 10.8
       hydro 3 p 5.8
       hydro 1 s 0.8
       hydro 5 g 16
       hydro 3 d 4.9
  #  "Third tier" - improvements: -4.29 meV to -0.53 meV
  #     hydro 3 s 16
  #     ionic 2 p auto
  #     hydro 3 d 6.6
  #     hydro 4 f 11.6
  #  "Fourth tier" - improvements: -0.75 meV to -0.25 meV
  #     hydro 2 p 4.5
  #     hydro 2 s 2.4
  #     hydro 5 g 14.4
  #     hydro 4 d 14.4
  #     hydro 4 f 16.8
  # Further basis functions - -0.21 meV and below
  #     hydro 3 p 14.8
  #     hydro 3 s 4.4
  #     hydro 3 d 19.6
  #     hydro 5 g 12.8
  ################################################################################
  #
  # For methods that use the localized form of the "resolution of identity" for
  # the two-electron Coulomb operator (RI_method LVL), particularly Hartree-Fock and
  # hybrid density functional calculations, the highest accuracy can be obtained by
  # uncommenting the line beginning with "for_aux"  below, thus adding an extra g radial
  # function to the construction of the product basis set for the expansion.
  # See Ref. New J. Phys. 17, 093020 (2015) for more information, particularly Figs. 1 and 6.
  #
  ################################################################################
  #
  # for_aux hydro 5 g 6.0
  ################################################################################
  #
  #  FHI-aims code project
  # Volker Blum, Fritz Haber Institute Berlin, 2009
  #
  #  Suggested "tight" defaults for O atom (to be pasted into control.in file)
  #
  ################################################################################
    species        O
  #     global species definitions
      nucleus             8
      mass                15.9994
  #
      l_hartree           6
  #
      cut_pot             4.0  2.0  1.0
      basis_dep_cutoff    1e-4
  #
      radial_base         36 7.0
      radial_multiplier   2
       angular_grids specified
        division   0.1817   50
        division   0.3417  110
        division   0.4949  194
        division   0.6251  302
        division   0.8014  434
  #      division   0.8507  590
  #      division   0.8762  770
  #      division   0.9023  974
  #      division   1.2339 1202
  #      outer_grid 974
        outer_grid  434
  ################################################################################
  #
  #  Definition of "minimal" basis
  #
  ################################################################################
  #     valence basis states
      valence      2  s   2.
      valence      2  p   4.
  #     ion occupancy
      ion_occ      2  s   1.
      ion_occ      2  p   3.
  ################################################################################
  #
  #  Suggested additional basis functions. For production calculations,
  #  uncomment them one after another (the most important basis functions are
  #  listed first).
  #
  #  Constructed for dimers: 1.0 A, 1.208 A, 1.5 A, 2.0 A, 3.0 A
  #
  ################################################################################
  #  "First tier" - improvements: -699.05 meV to -159.38 meV
       hydro 2 p 1.8
       hydro 3 d 7.6
       hydro 3 s 6.4
  #  "Second tier" - improvements: -49.91 meV to -5.39 meV
       hydro 4 f 11.6
       hydro 3 p 6.2
       hydro 3 d 5.6
       hydro 5 g 17.6
       hydro 1 s 0.75
  #  "Third tier" - improvements: -2.83 meV to -0.50 meV
  #     ionic 2 p auto
  #     hydro 4 f 10.8
  #     hydro 4 d 4.7
  #     hydro 2 s 6.8
  #  "Fourth tier" - improvements: -0.40 meV to -0.12 meV
  #     hydro 3 p 5
  #     hydro 3 s 3.3
  #     hydro 5 g 15.6
  #     hydro 4 f 17.6
  #     hydro 4 d 14
  # Further basis functions - -0.08 meV and below
  #     hydro 3 s 2.1
  #     hydro 4 d 11.6
  #     hydro 3 p 16
  #     hydro 2 s 17.2
  ################################################################################
  #
  # For methods that use the localized form of the "resolution of identity" for
  # the two-electron Coulomb operator (RI_method LVL), particularly Hartree-Fock and
  # hybrid density functional calculations, the highest accuracy can be obtained by
  # uncommenting the line beginning with "for_aux"  below, thus adding an extra g radial
  # function to the construction of the product basis set for the expansion.
  # See Ref. New J. Phys. 17, 093020 (2015) for more information, particularly Figs. 1 and 6.
  #
  ################################################################################
  #
  # for_aux hydro 5 g 6.0
  
  -----------------------------------------------------------------------
  Completed first pass over input file control.in .
  -----------------------------------------------------------------------
  
  
  -----------------------------------------------------------------------
  Parsing geometry.in (first pass over file, find array dimensions only).
  The contents of geometry.in will be repeated verbatim below
  unless switched off by setting 'verbatim_writeout .false.' .
  in the first line of geometry.in .
  -----------------------------------------------------------------------
  
  #
  # This is the geometry file that corresponds to the current relaxation step.
  # If you do not want this file to be written, set the "write_restart_geometry" flag to .false.
  #
  atom      -0.40831548      0.61049356     -0.14521794 C
  atom      -0.19713483      0.30085513      1.32745367 C
  atom       0.85722317      0.53865229      1.90657846 O
  atom       0.37183139      0.10499599     -0.72798999 H
  atom      -0.28177412      1.68949557     -0.29889798 H
  atom      -1.39148113      0.30896546     -0.52897116 H
  atom      -1.26220791     -0.28689833      1.96341869 N
  atom      -1.28863338     -0.50410735      3.40628481 C
  atom      -0.39275709     -1.62291992      3.99745906 C
  atom       0.01543246     -1.46534059      5.14501041 O
  atom      -2.14072883     -0.35038384      1.46172771 H
  atom      -0.88953587      0.39616819      3.89431116 H
  atom      -2.73208046     -0.73788207      3.86283906 C
  atom      -3.16239970     -1.63831437      3.39890000 H
  atom      -3.36539410      0.12397270      3.61061558 H
  atom      -2.75600436     -0.87610696      4.94935097 H
  atom      -0.13218516     -2.77533628      3.31423350 N
  atom      -0.56751849     -3.26094642      2.01776159 C
  atom      -0.91847593     -4.75401812      2.18756128 C
  atom      -0.32144464     -5.46272078      2.99350646 O
  atom       0.37749079     -3.47002184      3.86227000 H
  atom      -1.46142143     -2.70898932      1.70375098 H
  atom       0.52973232     -3.12031518      0.94598664 C
  atom       0.16721942     -3.43749921     -0.04184401 H
  atom       1.39344788     -3.74288090      1.21319588 H
  atom       0.86854848     -2.08052973      0.88754663 H
  atom      -1.89145045     -5.21406297      1.35129917 N
  atom      -2.28572891     -6.61043217      1.29310762 C
  atom      -2.33058453     -4.55580873      0.71915671 H
  atom      -2.06787853     -7.04722728      0.30830648 H
  atom      -3.35659497     -6.72831751      1.50755361 H
  atom      -1.70951560     -7.14575402      2.05493396 H
  
  -----------------------------------------------------------------------
  Completed first pass over input file geometry.in .
  -----------------------------------------------------------------------
  

  Basic array size parameters:
  | Number of species                 :        4
  | Number of atoms                   :       32
  | Max. basis fn. angular momentum   :        4
  | Max. atomic/ionic basis occupied n:        2
  | Max. number of basis fn. types    :        2
  | Max. radial fns per species/type  :        8
  | Max. logarithmic grid size        :     1301
  | Max. radial integration grid size :       73
  | Max. angular integration grid size:      434
  | Max. angular grid division number :        8
  | Radial grid for Hartree potential :     1301
  | Number of spin channels           :        1

------------------------------------------------------------
          Reading file control.in.
------------------------------------------------------------
  XC: Using PBE gradient-corrected functionals.
  Self-consistent screening and van der Waals energy (TS, TS+SCS,MBD) module
  Spin treatment: No spin polarisation.
  Charge =   0.000000E+00: Neutral system requested explicitly.
  Occupation type: Gaussian broadening, width =   0.500000E-01 eV.
  Using pulay charge density mixing.
  Pulay mixing - number of memorized iterations:   10
  Charge density mixing - mixing parameter:     0.5000
  Convergence accuracy of self-consistent charge density:  0.1000E-03
  Convergence accuracy of sum of eigenvalues:  0.1000E-01
  Convergence accuracy of total energy:  0.1000E-04
  Convergence accuracy of forces:  0.1000E-03
  Maximum number of s.-c. iterations  :  1000
  Fitting ESP-charges to Potential. 
  | Esp charge output options: 
  | ESP Grid method: 3, cubic grid
  | Number of points in x, ,y, z:  0080 0080 0080
  |
 
  Reading configuration options for species H                   .
  | Found nuclear charge :   1.0000
  | Found atomic mass :    1.00794000000000      amu
  | Found l_max for Hartree potential  :   6
  | Found cutoff potl. onset [A], width [A], scale factor :    4.00000    2.00000    1.00000
  | Threshold for basis-dependent cutoff potential is   0.100000E-03
  | Found data for basic radial integration grid :    24 points, outermost radius =    7.000 A
  | Found multiplier for basic radial grid :   2
  | Found angular grid specification: user-specified.
  | Specified grid contains     6 separate shells.
  | Check grid settings after all constraints further below.
  | Found free-atom valence shell :  1 s   1.000
  | No ionic wave fns used. Skipping ion_occ.
  | Found hydrogenic basis function :  2 s   2.100
  | Found hydrogenic basis function :  2 p   3.500
  | Found hydrogenic basis function :  1 s   0.850
  | Found hydrogenic basis function :  2 p   3.700
  | Found hydrogenic basis function :  2 s   1.200
  | Found hydrogenic basis function :  3 d   7.000
  Species H                   : Missing cutoff potential type.
  Defaulting to exp(1/x)/(1-x)^2 type cutoff potential.
  Species H : No 'logarithmic' tag. Using default grid for free atom:
  | Default logarithmic grid data [bohr] : 0.1000E-03 0.1000E+03 0.1012E+01
  Species H : On-site basis accuracy parameter (for Gram-Schmidt orthonormalisation) not specified.
  Using default value basis_acc =  0.1000000E-03.
  Species H                   : Using default innermost maximum threshold i_radial=  2 for radial functions.
  Species H                   : Default cutoff onset for free atom density etc. : 0.40000000E+01 AA.
  Species H                   : Basic radial grid will be enhanced according to radial_multiplier =   2, to contain    49 grid points.
 
  Reading configuration options for species C                   .
  | Found nuclear charge :   6.0000
  | Found atomic mass :    12.0107000000000      amu
  | Found l_max for Hartree potential  :   6
  | Found cutoff potl. onset [A], width [A], scale factor :    4.00000    2.00000    1.00000
  | Threshold for basis-dependent cutoff potential is   0.100000E-03
  | Found data for basic radial integration grid :    34 points, outermost radius =    7.000 A
  | Found multiplier for basic radial grid :   2
  | Found angular grid specification: user-specified.
  | Specified grid contains     6 separate shells.
  | Check grid settings after all constraints further below.
  | Found free-atom valence shell :  2 s   2.000
  | Found free-atom valence shell :  2 p   2.000
  | No ionic wave fns used. Skipping ion_occ.
  | No ionic wave fns used. Skipping ion_occ.
  | Found hydrogenic basis function :  2 p   1.700
  | Found hydrogenic basis function :  3 d   6.000
  | Found hydrogenic basis function :  2 s   4.900
  | Found hydrogenic basis function :  4 f   9.800
  | Found hydrogenic basis function :  3 p   5.200
  | Found hydrogenic basis function :  3 s   4.300
  | Found hydrogenic basis function :  5 g  14.400
  | Found hydrogenic basis function :  3 d   6.200
  Species C                   : Missing cutoff potential type.
  Defaulting to exp(1/x)/(1-x)^2 type cutoff potential.
  Species C : No 'logarithmic' tag. Using default grid for free atom:
  | Default logarithmic grid data [bohr] : 0.1000E-03 0.1000E+03 0.1012E+01
  Species C : On-site basis accuracy parameter (for Gram-Schmidt orthonormalisation) not specified.
  Using default value basis_acc =  0.1000000E-03.
  Species C                   : Using default innermost maximum threshold i_radial=  2 for radial functions.
  Species C                   : Default cutoff onset for free atom density etc. : 0.40000000E+01 AA.
  Species C                   : Basic radial grid will be enhanced according to radial_multiplier =   2, to contain    69 grid points.
 
  Reading configuration options for species N                   .
  | Found nuclear charge :   7.0000
  | Found atomic mass :    14.0067000000000      amu
  | Found l_max for Hartree potential  :   6
  | Found cutoff potl. onset [A], width [A], scale factor :    4.00000    2.00000    1.00000
  | Threshold for basis-dependent cutoff potential is   0.100000E-03
  | Found data for basic radial integration grid :    35 points, outermost radius =    7.000 A
  | Found multiplier for basic radial grid :   2
  | Found angular grid specification: user-specified.
  | Specified grid contains     6 separate shells.
  | Check grid settings after all constraints further below.
  | Found free-atom valence shell :  2 s   2.000
  | Found free-atom valence shell :  2 p   3.000
  | No ionic wave fns used. Skipping ion_occ.
  | No ionic wave fns used. Skipping ion_occ.
  | Found hydrogenic basis function :  2 p   1.800
  | Found hydrogenic basis function :  3 d   6.800
  | Found hydrogenic basis function :  3 s   5.800
  | Found hydrogenic basis function :  4 f  10.800
  | Found hydrogenic basis function :  3 p   5.800
  | Found hydrogenic basis function :  1 s   0.800
  | Found hydrogenic basis function :  5 g  16.000
  | Found hydrogenic basis function :  3 d   4.900
  Species N                   : Missing cutoff potential type.
  Defaulting to exp(1/x)/(1-x)^2 type cutoff potential.
  Species N : No 'logarithmic' tag. Using default grid for free atom:
  | Default logarithmic grid data [bohr] : 0.1000E-03 0.1000E+03 0.1012E+01
  Species N : On-site basis accuracy parameter (for Gram-Schmidt orthonormalisation) not specified.
  Using default value basis_acc =  0.1000000E-03.
  Species N                   : Using default innermost maximum threshold i_radial=  2 for radial functions.
  Species N                   : Default cutoff onset for free atom density etc. : 0.40000000E+01 AA.
  Species N                   : Basic radial grid will be enhanced according to radial_multiplier =   2, to contain    71 grid points.
 
  Reading configuration options for species O                   .
  | Found nuclear charge :   8.0000
  | Found atomic mass :    15.9994000000000      amu
  | Found l_max for Hartree potential  :   6
  | Found cutoff potl. onset [A], width [A], scale factor :    4.00000    2.00000    1.00000
  | Threshold for basis-dependent cutoff potential is   0.100000E-03
  | Found data for basic radial integration grid :    36 points, outermost radius =    7.000 A
  | Found multiplier for basic radial grid :   2
  | Found angular grid specification: user-specified.
  | Specified grid contains     6 separate shells.
  | Check grid settings after all constraints further below.
  | Found free-atom valence shell :  2 s   2.000
  | Found free-atom valence shell :  2 p   4.000
  | No ionic wave fns used. Skipping ion_occ.
  | No ionic wave fns used. Skipping ion_occ.
  | Found hydrogenic basis function :  2 p   1.800
  | Found hydrogenic basis function :  3 d   7.600
  | Found hydrogenic basis function :  3 s   6.400
  | Found hydrogenic basis function :  4 f  11.600
  | Found hydrogenic basis function :  3 p   6.200
  | Found hydrogenic basis function :  3 d   5.600
  | Found hydrogenic basis function :  5 g  17.600
  | Found hydrogenic basis function :  1 s   0.750
  Species O                   : Missing cutoff potential type.
  Defaulting to exp(1/x)/(1-x)^2 type cutoff potential.
  Species O : No 'logarithmic' tag. Using default grid for free atom:
  | Default logarithmic grid data [bohr] : 0.1000E-03 0.1000E+03 0.1012E+01
  Species O : On-site basis accuracy parameter (for Gram-Schmidt orthonormalisation) not specified.
  Using default value basis_acc =  0.1000000E-03.
  Species O                   : Using default innermost maximum threshold i_radial=  2 for radial functions.
  Species O                   : Default cutoff onset for free atom density etc. : 0.40000000E+01 AA.
  Species O                   : Basic radial grid will be enhanced according to radial_multiplier =   2, to contain    73 grid points.
 
  Finished reading input file 'control.in'. Consistency checks are next.
 
  Target number of points in a grid batch is not set. Defaulting to  100
  Method for grid partitioning is not set. Defaulting to parallel hash+maxmin partitioning.
  Batch size limit is not set. Defaulting to    200
  By default, will store active basis functions for each batch.
  If in need of memory, prune_basis_once .false. can be used to disable this option.
  communication_type for Hartree potential was not specified.
  Defaulting to calc_hartree .
  Pulay mixer: Number of initial linear mixing iterations not set.
  Defaulting to    0 iterations.
  Work space size for distributed Hartree potential not set.
  Defaulting to   0.200000E+03 MB.
  Algorithm-dependent basis array size parameters:
  | n_max_pulay                         :       10
  Geometry relaxation not requested: no relaxation will be performed.
  Handling of forces: Unphysical translation and rotation will be removed from forces.
  No accuracy limit for integral partition fn. given. Defaulting to  0.1000E-14.
  No threshold value for u(r) in integrations given. Defaulting to  0.1000E-05.
  No accuracy for occupation numbers given. Defaulting to  0.1000E-07.
  No threshold value for occupation numbers given. Defaulting to  0.0000E+00.
  No accuracy for fermi level given. Defaulting to  0.1000E-19.
  Maximum # of iterations to find E_F not set. Defaulting to  200.
  Preferred method for the eigenvalue solver ('KS_method') not specified in 'control.in'.
  Calling blacs routine to test compilation state
  Since scalapack support is enabled, defaulting to 'elpa'.
  Preferred method for the MBD eigenvalue solver ('mbd_eigensolver') not specified in 'control.in'.
  Calling blacs routine to test compilation state
  Since scalapack support is enabled, defaulting to 'scaLAPACK'.
  Will not use alltoall communication since running on < 1024 CPUs.
  Threshold for basis singularities not set.
  Default threshold for basis singularities:  0.1000E-04
  partition_type (choice of integration weights) for integrals was not specified.
  | Using a version of the partition function of Stratmann and coworkers ('stratmann_smoother').
  | At each grid point, the set of atoms used to build the partition table is smoothly restricted to
  | only those atoms whose free-atom density would be non-zero at that grid point.
  Partitioning for Hartree potential was not defined. Using partition_type for integrals.
  | Adjusted default value of keyword multip_moments_threshold to:       0.10000000E-11
  | This value may affect high angular momentum components of the Hartree potential in periodic systems.
  No q(lm)/r^(l+1) cutoff set for long-range Hartree potential.
  | Using default value of  0.100000E-09 .
  | Verify using the multipole_threshold keyword.
  Defaulting to new monopole extrapolation.
  Density update method: automatic selection selected.
------------------------------------------------------------


------------------------------------------------------------
          Reading geometry description geometry.in.
------------------------------------------------------------
 * Warning! You did not set the 'relativistic' flag in input file 'control.in'.
 * Since you are not attempting to treat any elements beyond Ca(Z=20), FHI-aims
 * will default to 'relativistic none'.
 * You must ensure that this is really what you want!!
 * For example, DO NOT compute total-energy differences between results from
 * different settings of the 'relativistic' flag.
  Input structure read successfully.
  The structure contains       32 atoms,  and a total of        116.000 electrons.

  Input geometry:
  | No unit cell requested.
  | Atomic structure:
  |       Atom                x [A]            y [A]            z [A]
  |    1: Species C             -0.408315         0.610494        -0.145218
  |    2: Species C             -0.197135         0.300855         1.327454
  |    3: Species O              0.857223         0.538652         1.906578
  |    4: Species H              0.371831         0.104996        -0.727990
  |    5: Species H             -0.281774         1.689496        -0.298898
  |    6: Species H             -1.391481         0.308965        -0.528971
  |    7: Species N             -1.262208        -0.286898         1.963419
  |    8: Species C             -1.288633        -0.504107         3.406285
  |    9: Species C             -0.392757        -1.622920         3.997459
  |   10: Species O              0.015432        -1.465341         5.145010
  |   11: Species H             -2.140729        -0.350384         1.461728
  |   12: Species H             -0.889536         0.396168         3.894311
  |   13: Species C             -2.732080        -0.737882         3.862839
  |   14: Species H             -3.162400        -1.638314         3.398900
  |   15: Species H             -3.365394         0.123973         3.610616
  |   16: Species H             -2.756004        -0.876107         4.949351
  |   17: Species N             -0.132185        -2.775336         3.314233
  |   18: Species C             -0.567518        -3.260946         2.017762
  |   19: Species C             -0.918476        -4.754018         2.187561
  |   20: Species O             -0.321445        -5.462721         2.993506
  |   21: Species H              0.377491        -3.470022         3.862270
  |   22: Species H             -1.461421        -2.708989         1.703751
  |   23: Species C              0.529732        -3.120315         0.945987
  |   24: Species H              0.167219        -3.437499        -0.041844
  |   25: Species H              1.393448        -3.742881         1.213196
  |   26: Species H              0.868548        -2.080530         0.887547
  |   27: Species N             -1.891450        -5.214063         1.351299
  |   28: Species C             -2.285729        -6.610432         1.293108
  |   29: Species H             -2.330585        -4.555809         0.719157
  |   30: Species H             -2.067879        -7.047227         0.308306
  |   31: Species H             -3.356595        -6.728318         1.507554
  |   32: Species H             -1.709516        -7.145754         2.054934
  |

  | The smallest distance between any two atoms is         1.01278896 AA.
  |
  | The first atom of this pair is atom number                     27 .
  | The second atom of this pair is atom number                    29 .

  Number of empty states per atom not set in control.in - providing a guess from actual geometry.
  | Total number of empty states used during s.c.f. cycle:       71
  If you use a very high smearing, use empty_states (per atom!) in control.in to increase this value.

  Structure-dependent array size parameters: 
  | Maximum number of distinct radial functions  :       40
  | Maximum number of basis functions            :      840
  | Number of Kohn-Sham states (occupied + empty):      129
------------------------------------------------------------

------------------------------------------------------------
          Preparing all fixed parts of the calculation.
------------------------------------------------------------
  Determining machine precision:
    2.225073858507201E-308
  Setting up grids for atomic and cluster calculations.

  Creating wave function, potential, and density for free atoms.

  Species: H

  List of occupied orbitals and eigenvalues:
    n    l              occ      energy [Ha]    energy [eV]
    1    0           1.0000        -0.238382        -6.4867


  Species: C

  List of occupied orbitals and eigenvalues:
    n    l              occ      energy [Ha]    energy [eV]
    1    0           2.0000       -10.041232      -273.2358
    2    0           2.0000        -0.504327       -13.7234
    2    1           2.0000        -0.193750        -5.2722


  Species: N

  List of occupied orbitals and eigenvalues:
    n    l              occ      energy [Ha]    energy [eV]
    1    0           2.0000       -14.129007      -384.4699
    2    0           2.0000        -0.681802       -18.5528
    2    1           3.0000        -0.260543        -7.0897


  Species: O

  List of occupied orbitals and eigenvalues:
    n    l              occ      energy [Ha]    energy [eV]
    1    0           2.0000       -18.898576      -514.2564
    2    0           2.0000        -0.878795       -23.9132
    2    1           4.0000        -0.332075        -9.0362

  Creating fixed part of basis set: Ionic, confined, hydrogenic.
 
  H                    hydrogenic:
 
  List of hydrogenic basis orbitals: 
    n    l      effective z      eigenvalue [eV]  inner max. [A]     outer max. [A]     outer radius [A]   
    2    0         2.100000       -14.9965           0.193243           1.317208           5.373006
    2    1         3.500000       -41.6672           0.602369           0.602369           4.056063
    1    0         0.850000        -9.8292           0.624871           0.624871           5.373006
    2    1         3.700000       -46.5653           0.573622           0.573622           3.910002
    2    0         1.200000        -4.5995           0.334980           2.228188           5.505995
    3    2         7.000000       -74.0753           0.680699           0.680699           3.769201
 
 
  C                    hydrogenic:
 
  List of hydrogenic basis orbitals: 
    n    l      effective z      eigenvalue [eV]  inner max. [A]     outer max. [A]     outer radius [A]   
    2    1         1.700000        -9.8152           1.245706           1.245706           5.401630
    3    2         6.000000       -54.4226           0.792453           0.792453           4.178599
    2    0         4.900000       -81.6681           0.082559           0.562749           3.353238
    4    3         9.800000       -81.6681           0.863254           0.863254           4.028125
    3    1         5.200000       -40.8774           0.305389           1.215618           4.898362
    3    0         4.300000       -27.9508           0.091041           1.610311           5.401630
    5    4        14.400000      -112.8510           0.917666           0.917666           3.883070
    3    2         6.200000       -58.1113           0.763917           0.763917           4.077671
 
 
  N                    hydrogenic:
 
  List of hydrogenic basis orbitals: 
    n    l      effective z      eigenvalue [eV]  inner max. [A]     outer max. [A]     outer radius [A]   
    2    1         1.800000       -11.0118           1.177451           1.177451           5.427479
    3    2         6.800000       -69.9029           0.704619           0.704619           3.854246
    3    0         5.800000       -50.8549           0.067388           1.191934           4.629968
    4    3        10.800000       -99.1854           0.786571           0.786571           3.761152
    3    1         5.800000       -50.8549           0.274880           1.094176           4.518138
    1    0         0.800000        -8.7059           0.662839           0.662839           5.361532
    5    4        16.000000      -139.3222           0.825990           0.825990           3.625711
    3    2         4.900000       -36.2967           0.968267           0.968267           4.862000
 
 
  O                    hydrogenic:
 
  List of hydrogenic basis orbitals: 
    n    l      effective z      eigenvalue [eV]  inner max. [A]     outer max. [A]     outer radius [A]   
    2    1         1.800000       -11.0118           1.178562           1.178562           5.432602
    3    2         7.600000       -87.3182           0.624125           0.624125           3.541477
    3    0         6.400000       -61.9209           0.061167           1.081902           4.306578
    4    3        11.600000      -114.4238           0.731631           0.731631           3.585037
    3    1         6.200000       -58.1113           0.255680           1.030270           4.306578
    3    2         5.600000       -47.4081           0.847233           0.847233           4.413171
    5    4        17.600000      -168.5799           0.749740           0.749740           3.372465
    1    0         0.750000        -7.6499           0.705284           0.705284           5.366593
 

  Adding cutoff potential to free-atom effective potential.
  Creating atomic-like basis functions for current effective potential.

  Species H                   :

  List of atomic basis orbitals and eigenvalues:
    n    l      energy [Ha]    energy [eV]    outer radius [A]
    1    0        -0.238382        -6.4867       5.373006


  Species C                   :

  List of atomic basis orbitals and eigenvalues:
    n    l      energy [Ha]    energy [eV]    outer radius [A]
    1    0       -10.041232      -273.2358       1.934409
    2    0        -0.504327       -13.7234       5.271162
    2    1        -0.193750        -5.2722       5.401630


  Species N                   :

  List of atomic basis orbitals and eigenvalues:
    n    l      energy [Ha]    energy [eV]    outer radius [A]
    1    0       -14.129007      -384.4699       1.637919
    2    0        -0.681802       -18.5528       5.168461
    2    1        -0.260543        -7.0897       5.361532


  Species O                   :

  List of atomic basis orbitals and eigenvalues:
    n    l      energy [Ha]    energy [eV]    outer radius [A]
    1    0       -18.898576      -514.2564       1.415765
    2    0        -0.878795       -23.9132       5.048385
    2    1        -0.332075        -9.0362       5.301386

  Assembling full basis from fixed parts.
  | Species H :   atomic orbital   1 s accepted.
  | Species H :    hydro orbital   2 s accepted.
  | Species H :    hydro orbital   1 s accepted.
  | Species H :    hydro orbital   2 s accepted.
  | Species H :    hydro orbital   2 p accepted.
  | Species H :    hydro orbital   2 p accepted.
  | Species H :    hydro orbital   3 d accepted.
  | Species C :   atomic orbital   1 s accepted.
  | Species C :    hydro orbital   2 s accepted.
  | Species C :   atomic orbital   2 s accepted.
  | Species C :    hydro orbital   3 s accepted.
  | Species C :    hydro orbital   3 p accepted.
  | Species C :   atomic orbital   2 p accepted.
  | Species C :    hydro orbital   2 p accepted.
  | Species C :    hydro orbital   3 d accepted.
  | Species C :    hydro orbital   3 d accepted.
  | Species C :    hydro orbital   4 f accepted.
  | Species C :    hydro orbital   5 g accepted.
  | Species N :   atomic orbital   1 s accepted.
  | Species N :    hydro orbital   3 s accepted.
  | Species N :   atomic orbital   2 s accepted.
  | Species N :    hydro orbital   1 s accepted.
  | Species N :    hydro orbital   3 p accepted.
  | Species N :   atomic orbital   2 p accepted.
  | Species N :    hydro orbital   2 p accepted.
  | Species N :    hydro orbital   3 d accepted.
  | Species N :    hydro orbital   3 d accepted.
  | Species N :    hydro orbital   4 f accepted.
  | Species N :    hydro orbital   5 g accepted.
  | Species O :   atomic orbital   1 s accepted.
  | Species O :    hydro orbital   3 s accepted.
  | Species O :   atomic orbital   2 s accepted.
  | Species O :    hydro orbital   1 s accepted.
  | Species O :    hydro orbital   3 p accepted.
  | Species O :   atomic orbital   2 p accepted.
  | Species O :    hydro orbital   2 p accepted.
  | Species O :    hydro orbital   3 d accepted.
  | Species O :    hydro orbital   3 d accepted.
  | Species O :    hydro orbital   4 f accepted.
  | Species O :    hydro orbital   5 g accepted.
 
  Basis size parameters after reduction:
  | Total number of radial functions:       40
  | Total number of basis functions :      840
 
  Testing on-site integration grid accuracy.
  |  Species  Function  <phi|h_atom|phi> (log., in eV)  <phi|h_atom|phi> (rad., in eV)
           1        1                 -6.4869821809                 -6.4870742227
           1        2                 13.5044133542                 13.5041049177
           1        3                 32.7854418792                 32.7779770519
           1        4                 33.7995553101                 33.7152624900 ***
           1        5                 28.8558651799                 28.8558652046
           1        6                 59.6361831893                 59.6362535845
           1        7                 60.2733718049                 60.2733715484
           2        8               -273.2358277112               -273.2358261765
           2        9                -10.7624923123                -10.7625144012
           2       10                 17.4634079027                 17.4634252127
           2       11                 53.0363661832                 53.0366180446
           2       12                 15.0981351967                 15.0981317714
           2       13                  3.8522181899                  3.8522770949
           2       14                 12.1181835661                 12.1206868578
           2       15                 29.4320778347                 29.4320780959
           2       16                 54.8753777694                 54.8752901936
           2       17                 59.3533975461                 59.3533974833
           2       18                 93.4537491195                 93.4537492066
           3       19               -384.4698526889               -384.4698499465
           3       20                 12.5691022037                 12.5690910168
           3       21                -15.7489097511                -15.7489165588
           3       22                 27.0978334940                 27.0985589490
           3       23                 18.5949116966                 18.5949125562
           3       24                  1.2212828291                  1.2212855301
           3       25                 13.4428926797                 13.4434051125
           3       26                 35.9380614500                 35.9380613666
           3       27                 39.9231532098                 39.9231654735
           3       28                 72.9957335806                 72.9957336833
           3       29                116.4231321147                116.4231321431
           4       30               -514.2564144315               -514.2564099626
           4       31                 15.1726678541                 15.1726530877
           4       32                -21.5447785304                -21.5447874973
           4       33                 14.4944558459                 14.4944698284
           4       34                 20.8882174564                 20.8882178906
           4       35                 -2.4850315908                 -2.4850322289
           4       36                 13.8600193195                 13.8599826966
           4       37                 45.8243383616                 45.8243383675
           4       38                 52.1840606465                 52.1840622440
           4       39                 85.4074185510                 85.4074185819
           4       40                142.0983717302                142.0983717339
 * Note: Onsite integrals marked "***" above are less accurate than
 * onsite_accuracy_threshold =    0.03000 eV. Usually, this is harmless.
 * When in doubt, tighten the "radial" and/or "radial_multiplier" flags to check.

  Preparing densities etc. for the partition functions (integrals / Hartree potential).

  Preparations completed.
  max(cpu_time)          :      0.232 s.
  Wall clock time (cpu1) :      0.231 s.
------------------------------------------------------------

------------------------------------------------------------
          Begin self-consistency loop: Initialization.

          Date     :  20170309, Time     :  180011.420
------------------------------------------------------------

  Initializing index lists of integration centers etc. from given atomic structure:
  | Number of centers in hartree potential         :        32
  | Number of centers in hartree multipole         :        32
  | Number of centers in electron density summation:        32
  | Number of centers in basis integrals           :        32
  | Number of centers in integrals                 :        32
  | Number of centers in hamiltonian               :        32
  Using modified Scalapack Eigenvalue solver (ELPA)
  * Using 32 tasks for Scalapack Eigenvalue solver.
  Detailed listing of tasks and assigned k-points:
  (for non-periodic systems, the "k-point" denotes an internal label only)
   Task     0 k-point     1 on eos399
   Task     1 k-point     1 on eos399
   Task     2 k-point     1 on eos399
   Task     3 k-point     1 on eos399
   Task     4 k-point     1 on eos399
   Task     5 k-point     1 on eos399
   Task     6 k-point     1 on eos399
   Task     7 k-point     1 on eos399
   Task     8 k-point     1 on eos399
   Task     9 k-point     1 on eos399
   Task    10 k-point     1 on eos399
   Task    11 k-point     1 on eos399
   Task    12 k-point     1 on eos399
   Task    13 k-point     1 on eos399
   Task    14 k-point     1 on eos399
   Task    15 k-point     1 on eos399
   Task    16 k-point     1 on eos399
   Task    17 k-point     1 on eos399
   Task    18 k-point     1 on eos399
   Task    19 k-point     1 on eos399
   Task    20 k-point     1 on eos399
   Task    21 k-point     1 on eos399
   Task    22 k-point     1 on eos399
   Task    23 k-point     1 on eos399
   Task    24 k-point     1 on eos399
   Task    25 k-point     1 on eos399
   Task    26 k-point     1 on eos399
   Task    27 k-point     1 on eos399
   Task    28 k-point     1 on eos399
   Task    29 k-point     1 on eos399
   Task    30 k-point     1 on eos399
   Task    31 k-point     1 on eos399
  Tasks:    32 split into      8 X      4 BLACS grid
  Calculating blocksize based on n_basis =          840 max_nprow =            8 max_npcol =            4
  Scalapack blocksize set to:           16
  Required Scalapack workspace - INTEGER:            1 REAL:             1
  Partitioning the integration grid into batches with parallel hashing+maxmin method.
  | Number of batches:     4925
  | Maximal batch size:     200
  | Minimal batch size:      46
  | Average batch size:     107.153
  | Standard deviation of batch sizes:      32.942

  Integration load balanced across    32 MPI tasks.
  Work distribution over tasks is as follows:
  Task     0 has      16569 integration points.
  Task     1 has      16465 integration points.
  Task     2 has      16566 integration points.
  Task     3 has      16471 integration points.
  Task     4 has      16469 integration points.
  Task     5 has      16465 integration points.
  Task     6 has      16573 integration points.
  Task     7 has      16436 integration points.
  Task     8 has      16406 integration points.
  Task     9 has      16475 integration points.
  Task    10 has      16444 integration points.
  Task    11 has      16477 integration points.
  Task    12 has      16456 integration points.
  Task    13 has      16505 integration points.
  Task    14 has      16562 integration points.
  Task    15 has      16445 integration points.
  Task    16 has      16474 integration points.
  Task    17 has      16448 integration points.
  Task    18 has      16568 integration points.
  Task    19 has      16519 integration points.
  Task    20 has      16477 integration points.
  Task    21 has      16472 integration points.
  Task    22 has      16436 integration points.
  Task    23 has      16474 integration points.
  Task    24 has      16564 integration points.
  Task    25 has      16470 integration points.
  Task    26 has      16471 integration points.
  Task    27 has      16565 integration points.
  Task    28 has      16474 integration points.
  Task    29 has      16476 integration points.
  Task    30 has      16575 integration points.
  Task    31 has      16481 integration points.
  Initializing partition tables, free-atom densities, potentials, etc. across the integration grid (initialize_grid_storage).
  | initialize_grid_storage: Actual outermost partition radius vs. multipole_radius_free
  | (-- VB: in principle, multipole_radius_free should be larger, hence this output)
  | Species        1: Confinement radius =              6.000000000000000 AA, multipole_radius_free =              6.071692442739658 AA.
  | Species        1: outer_partition_radius set to              6.071692442739658 AA .
  | Species        2: Confinement radius =              6.000000000000000 AA, multipole_radius_free =              6.029870734432609 AA.
  | Species        2: outer_partition_radius set to              6.029870734432609 AA .
  | Species        3: Confinement radius =              6.000000000000000 AA, multipole_radius_free =              6.058726835495003 AA.
  | Species        3: outer_partition_radius set to              6.058726835495003 AA .
  | Species        4: Confinement radius =              6.000000000000000 AA, multipole_radius_free =              6.064445521808699 AA.
  | Species        4: outer_partition_radius set to              6.064445521808699 AA .
  | Original list of interatomic distances with          32 x         32 entries is created.
  | Net number of integration points:   527728
  | of which are non-zero points    :   414540
  Obtaining max. number of non-zero basis functions in each batch (get_n_compute_maxes).
  | Maximal number of non-zero basis functions:      776 in task     0
  | Maximal number of non-zero basis functions:      765 in task     1
  | Maximal number of non-zero basis functions:      760 in task     2
  | Maximal number of non-zero basis functions:      757 in task     3
  | Maximal number of non-zero basis functions:      761 in task     4
  | Maximal number of non-zero basis functions:      765 in task     5
  | Maximal number of non-zero basis functions:      754 in task     6
  | Maximal number of non-zero basis functions:      774 in task     7
  | Maximal number of non-zero basis functions:      763 in task     8
  | Maximal number of non-zero basis functions:      757 in task     9
  | Maximal number of non-zero basis functions:      756 in task    10
  | Maximal number of non-zero basis functions:      763 in task    11
  | Maximal number of non-zero basis functions:      767 in task    12
  | Maximal number of non-zero basis functions:      775 in task    13
  | Maximal number of non-zero basis functions:      760 in task    14
  | Maximal number of non-zero basis functions:      768 in task    15
  | Maximal number of non-zero basis functions:      775 in task    16
  | Maximal number of non-zero basis functions:      758 in task    17
  | Maximal number of non-zero basis functions:      771 in task    18
  | Maximal number of non-zero basis functions:      769 in task    19
  | Maximal number of non-zero basis functions:      747 in task    20
  | Maximal number of non-zero basis functions:      775 in task    21
  | Maximal number of non-zero basis functions:      752 in task    22
  | Maximal number of non-zero basis functions:      758 in task    23
  | Maximal number of non-zero basis functions:      761 in task    24
  | Maximal number of non-zero basis functions:      767 in task    25
  | Maximal number of non-zero basis functions:      764 in task    26
  | Maximal number of non-zero basis functions:      759 in task    27
  | Maximal number of non-zero basis functions:      761 in task    28
  | Maximal number of non-zero basis functions:      763 in task    29
  | Maximal number of non-zero basis functions:      763 in task    30
  | Maximal number of non-zero basis functions:      752 in task    31
  Selecting the method for density update.
  Loop over occupied states selected for charge density update.
  Integrating Hamiltonian matrix: batch-based integration.
  Time summed over all CPUs for integration: real work       21.374 s, elapsed       22.501 s
  Integrating overlap matrix.
  Time summed over all CPUs for integration: real work       12.950 s, elapsed       13.582 s
  Deallocating overlap matrix.

  Updating Kohn-Sham eigenvalues, eigenvectors, occupation numbers, and Fermi level.
  Solving generalized eigenproblem
  Solving real symmetric generalised eigenvalue problem by standard ScaLAPACK.
  Transforming overlap matrix with ScaLAPACK and checking for singularities.
  : Overlap matrix is nonsingular, using Cholesky decomposition
  | Lowest eigenvalue:  0.833830E-04
  Factoring overlap matrix with Cholesky decomposition
  Using Cholesky factor for transformation
  Using 1-stage real ELPA solver
  Determining occupation numbers for Kohn-Sham eigenstates.
  | Chemical potential (Fermi level) in eV                 : -.96833128E+01
  | Error in electron count due to remaining E_F inaccuracy: 0.00000000E+00
  | Maximum occupation number of highest empty state:  0.00E+00

  Writing Kohn-Sham eigenvalues.

  State    Occupation    Eigenvalue [Ha]    Eigenvalue [eV]
      1       2.00000         -18.974886         -516.33291
      2       2.00000         -18.974772         -516.32981
      3       2.00000         -18.974474         -516.32170
      4       2.00000         -14.256218         -387.93142
      5       2.00000         -14.254486         -387.88430
      6       2.00000         -14.254112         -387.87413
      7       2.00000         -10.170776         -276.76088
      8       2.00000         -10.170625         -276.75680
      9       2.00000         -10.170149         -276.74384
     10       2.00000         -10.166742         -276.65114
     11       2.00000         -10.149049         -276.16968
     12       2.00000         -10.148039         -276.14218
     13       2.00000         -10.136285         -275.82234
     14       2.00000         -10.135151         -275.79148
     15       2.00000         -10.133901         -275.75748
     16       2.00000          -1.135834          -30.90762
     17       2.00000          -1.132898          -30.82773
     18       2.00000          -1.130579          -30.76462
     19       2.00000          -1.018675          -27.71955
     20       2.00000          -1.014018          -27.59284
     21       2.00000          -1.007898          -27.42629
     22       2.00000          -0.887442          -24.14854
     23       2.00000          -0.877634          -23.88164
     24       2.00000          -0.841150          -22.88886
     25       2.00000          -0.819296          -22.29417
     26       2.00000          -0.771068          -20.98182
     27       2.00000          -0.757185          -20.60406
     28       2.00000          -0.701593          -19.09131
     29       2.00000          -0.691505          -18.81680
     30       2.00000          -0.680639          -18.52114
     31       2.00000          -0.646192          -17.58377
     32       2.00000          -0.630926          -17.16838
     33       2.00000          -0.605820          -16.48521
     34       2.00000          -0.595301          -16.19897
     35       2.00000          -0.592035          -16.11008
     36       2.00000          -0.576492          -15.68715
     37       2.00000          -0.570973          -15.53698
     38       2.00000          -0.564879          -15.37115
     39       2.00000          -0.558973          -15.21044
     40       2.00000          -0.552094          -15.02324
     41       2.00000          -0.547121          -14.88793
     42       2.00000          -0.543134          -14.77942
     43       2.00000          -0.540443          -14.70619
     44       2.00000          -0.530364          -14.43195
     45       2.00000          -0.518544          -14.11029
     46       2.00000          -0.513266          -13.96668
     47       2.00000          -0.512317          -13.94086
     48       2.00000          -0.503760          -13.70800
     49       2.00000          -0.494967          -13.46875
     50       2.00000          -0.488972          -13.30560
     51       2.00000          -0.483152          -13.14725
     52       2.00000          -0.469533          -12.77664
     53       2.00000          -0.412035          -11.21204
     54       2.00000          -0.406282          -11.05550
     55       2.00000          -0.403150          -10.97027
     56       2.00000          -0.387966          -10.55710
     57       2.00000          -0.384024          -10.44984
     58       2.00000          -0.378815          -10.30807
     59       0.00000          -0.166015           -4.51749
     60       0.00000          -0.157692           -4.29103
     61       0.00000          -0.154441           -4.20255
     62       0.00000          -0.086830           -2.36275
     63       0.00000          -0.060871           -1.65640
     64       0.00000          -0.057489           -1.56434
     65       0.00000          -0.054929           -1.49469
     66       0.00000          -0.045850           -1.24765
     67       0.00000          -0.039326           -1.07010
     68       0.00000          -0.033207           -0.90362
     69       0.00000          -0.027282           -0.74239
     70       0.00000          -0.025836           -0.70302
     71       0.00000          -0.018782           -0.51108
     72       0.00000          -0.015880           -0.43211
     73       0.00000          -0.008825           -0.24014
     74       0.00000          -0.006357           -0.17299
     75       0.00000          -0.003911           -0.10643
     76       0.00000          -0.000838           -0.02280
     77       0.00000           0.002866            0.07798
     78       0.00000           0.008325            0.22654
     79       0.00000           0.013612            0.37040
     80       0.00000           0.017570            0.47809
     81       0.00000           0.023266            0.63310
     82       0.00000           0.024415            0.66437
     83       0.00000           0.029536            0.80373
     84       0.00000           0.030846            0.83937
     85       0.00000           0.037232            1.01313
     86       0.00000           0.043292            1.17805
     87       0.00000           0.048034            1.30706
     88       0.00000           0.051013            1.38812
     89       0.00000           0.057549            1.56598
     90       0.00000           0.064208            1.74718
     91       0.00000           0.076336            2.07721
     92       0.00000           0.083600            2.27487
     93       0.00000           0.087579            2.38315
     94       0.00000           0.092250            2.51025
     95       0.00000           0.098285            2.67446
     96       0.00000           0.105202            2.86268
     97       0.00000           0.111155            3.02469
     98       0.00000           0.114111            3.10512
     99       0.00000           0.121498            3.30614
    100       0.00000           0.126206            3.43424
    101       0.00000           0.128787            3.50448
    102       0.00000           0.134208            3.65198
    103       0.00000           0.137669            3.74618
    104       0.00000           0.142276            3.87152
    105       0.00000           0.148866            4.05086
    106       0.00000           0.151215            4.11476
    107       0.00000           0.152749            4.15652
    108       0.00000           0.160156            4.35807
    109       0.00000           0.168914            4.59639
    110       0.00000           0.171395            4.66389
    111       0.00000           0.176084            4.79149
    112       0.00000           0.181640            4.94267
    113       0.00000           0.185535            5.04868
    114       0.00000           0.190305            5.17846
    115       0.00000           0.191319            5.20606
    116       0.00000           0.195204            5.31177
    117       0.00000           0.199876            5.43890
    118       0.00000           0.207799            5.65451
    119       0.00000           0.217912            5.92968
    120       0.00000           0.220998            6.01367
    121       0.00000           0.223798            6.08985
    122       0.00000           0.231541            6.30056
    123       0.00000           0.235030            6.39550
    124       0.00000           0.236841            6.44478
    125       0.00000           0.241617            6.57472
    126       0.00000           0.248174            6.75317
    127       0.00000           0.258733            7.04049
    128       0.00000           0.261194            7.10746
    129       0.00000           0.265580            7.22680

  Highest occupied state (VBM) at    -10.30807288 eV
  | Occupation number:      2.00000000

  Lowest unoccupied state (CBM) at    -4.51749259 eV
  | Occupation number:      0.00000000

  Overall HOMO-LUMO gap:      5.79058029 eV.
  Calculating total energy contributions from superposition of free atom densities.

  Total energy components:
  | Sum of eigenvalues            :        -437.89722193 Ha      -11915.78967741 eV
  | XC energy correction          :         -98.81486431 Ha       -2688.88926696 eV
  | XC potential correction       :         127.01372871 Ha        3456.21940879 eV
  | Free-atom electrostatic energy:        -333.59275285 Ha       -9077.52066431 eV
  | Hartree energy correction     :           0.00000000 Ha           0.00000000 eV
  | MBD@rsSCS energy              :           0.00000000 Ha           0.00000000 eV
  | Entropy correction            :          -0.00000000 Ha          -0.00000000 eV
  | ---------------------------
  | Total energy                  :        -743.29111038 Ha      -20225.98019989 eV
  | Total energy, T -> 0          :        -743.29111038 Ha      -20225.98019989 eV  <-- do not rely on this value for anything but (periodic) metals
  | Electronic free energy        :        -743.29111038 Ha      -20225.98019989 eV

  Derived energy quantities:
  | Kinetic energy                :         735.15060042 Ha       20004.46565334 eV
  | Electrostatic energy          :       -1379.62684649 Ha      -37541.55658627 eV
  | Energy correction for multipole
  | error in Hartree potential    :           0.00000000 Ha           0.00000000 eV
  | Sum of eigenvalues per atom                           :        -372.36842742 eV
  | Total energy (T->0) per atom                          :        -632.06188125 eV  <-- do not rely on this value for anything but (periodic) metals
  | Electronic free energy per atom                       :        -632.06188125 eV
  Initialize hartree_potential_storage
  Max. number of atoms included in rho_multipole:           32

  End scf initialization - timings             :  max(cpu_time)    wall_clock(cpu1)
  | Time for scf. initialization               :        1.840 s           1.841 s
  | Boundary condition initialization          :        0.004 s           0.001 s
  | Integration                                :        1.152 s           1.149 s
  | Solution of K.-S. eqns.                    :        0.076 s           0.074 s
  | Grid partitioning                          :        0.268 s           0.264 s
  | Preloading free-atom quantities on grid    :        0.028 s           0.028 s
  | Free-atom superposition energy             :        0.040 s           0.039 s
  | Total energy evaluation                    :        0.000 s           0.001 s
------------------------------------------------------------

------------------------------------------------------------
          Begin self-consistency iteration #    1

  Date     :  20170309, Time     :  180013.262
------------------------------------------------------------
  Evaluating new KS density.
  Integration grid: deviation in total charge (<rho> - N_e) =  -1.421085E-14
  Pulay mixing of updated and previous charge densities.

  Evaluating partitioned Hartree potential by multipole expansion.
  | Analytical far-field extrapolation by fixed multipoles:
  | Hartree multipole sum: apparent total charge =  -0.825551E-05
  Summing up the Hartree potential.
  Time summed over all CPUs for potential: real work        9.548 s, elapsed        9.757 s
  | RMS charge density error from multipole expansion :   0.106422E-01

  Integrating Hamiltonian matrix: batch-based integration.
  Time summed over all CPUs for integration: real work       21.196 s, elapsed       22.320 s

  Updating Kohn-Sham eigenvalues, eigenvectors, occupation numbers, and Fermi level.
  Solving generalized eigenproblem
  Solving real symmetric generalised eigenvalue problem by standard ScaLAPACK.
  Using Cholesky factor for transformation
  Using 2-stage real ELPA solver
  K-Point:    1, Trafo times: 1-stage=     0.021 s, 2-stage=     0.019 s ==> Using 2-stage solver
  Determining occupation numbers for Kohn-Sham eigenstates.
  | Chemical potential (Fermi level) in eV                 : -.40304910E+01
  | Error in electron count due to remaining E_F inaccuracy: 0.00000000E+00
  | Maximum occupation number of highest empty state:  0.00E+00

  Writing Kohn-Sham eigenvalues.

  State    Occupation    Eigenvalue [Ha]    Eigenvalue [eV]
      1       2.00000         -18.622193         -506.73565
      2       2.00000         -18.608872         -506.37317
      3       2.00000         -18.597371         -506.06022
      4       2.00000         -14.001379         -380.99692
      5       2.00000         -13.999243         -380.93879
      6       2.00000         -13.976887         -380.33045
      7       2.00000         -10.057278         -273.67247
      8       2.00000         -10.053790         -273.57753
      9       2.00000         -10.042865         -273.28027
     10       2.00000          -9.970339         -271.30673
     11       2.00000          -9.957420         -270.95518
     12       2.00000          -9.889353         -269.10298
     13       2.00000          -9.856712         -268.21477
     14       2.00000          -9.847741         -267.97066
     15       2.00000          -9.837729         -267.69823
     16       2.00000          -0.967716          -26.33289
     17       2.00000          -0.959946          -26.12145
     18       2.00000          -0.945253          -25.72163
     19       2.00000          -0.870519          -23.68803
     20       2.00000          -0.869842          -23.66962
     21       2.00000          -0.854271          -23.24589
     22       2.00000          -0.741503          -20.17731
     23       2.00000          -0.730775          -19.88540
     24       2.00000          -0.692755          -18.85082
     25       2.00000          -0.675812          -18.38978
     26       2.00000          -0.629630          -17.13311
     27       2.00000          -0.616728          -16.78203
     28       2.00000          -0.573154          -15.59631
     29       2.00000          -0.569028          -15.48403
     30       2.00000          -0.557507          -15.17055
     31       2.00000          -0.513320          -13.96814
     32       2.00000          -0.499156          -13.58273
     33       2.00000          -0.465265          -12.66051
     34       2.00000          -0.455310          -12.38961
     35       2.00000          -0.449005          -12.21804
     36       2.00000          -0.439688          -11.96451
     37       2.00000          -0.437292          -11.89931
     38       2.00000          -0.427530          -11.63369
     39       2.00000          -0.416833          -11.34259
     40       2.00000          -0.405140          -11.02442
     41       2.00000          -0.397285          -10.81069
     42       2.00000          -0.394224          -10.72738
     43       2.00000          -0.383191          -10.42717
     44       2.00000          -0.375223          -10.21033
     45       2.00000          -0.372628          -10.13971
     46       2.00000          -0.372015          -10.12305
     47       2.00000          -0.360293           -9.80408
     48       2.00000          -0.355295           -9.66808
     49       2.00000          -0.350978           -9.55061
     50       2.00000          -0.345636           -9.40525
     51       2.00000          -0.333593           -9.07752
     52       2.00000          -0.323306           -8.79759
     53       2.00000          -0.245003           -6.66687
     54       2.00000          -0.240294           -6.53873
     55       2.00000          -0.224592           -6.11145
     56       2.00000          -0.213517           -5.81010
     57       2.00000          -0.208139           -5.66374
     58       2.00000          -0.196989           -5.36034
     59       0.00000          -0.060567           -1.64811
     60       0.00000          -0.046267           -1.25899
     61       0.00000          -0.043542           -1.18484
     62       0.00000          -0.033602           -0.91436
     63       0.00000          -0.029170           -0.79376
     64       0.00000          -0.018192           -0.49502
     65       0.00000          -0.011538           -0.31395
     66       0.00000           0.001235            0.03360
     67       0.00000           0.008874            0.24147
     68       0.00000           0.013204            0.35929
     69       0.00000           0.021048            0.57276
     70       0.00000           0.028675            0.78029
     71       0.00000           0.030061            0.81799
     72       0.00000           0.033969            0.92434
     73       0.00000           0.045532            1.23900
     74       0.00000           0.050415            1.37186
     75       0.00000           0.052060            1.41662
     76       0.00000           0.054805            1.49133
     77       0.00000           0.059950            1.63133
     78       0.00000           0.070239            1.91130
     79       0.00000           0.074679            2.03212
     80       0.00000           0.079353            2.15929
     81       0.00000           0.086880            2.36412
     82       0.00000           0.093101            2.53340
     83       0.00000           0.097349            2.64900
     84       0.00000           0.099209            2.69962
     85       0.00000           0.105765            2.87802
     86       0.00000           0.107108            2.91456
     87       0.00000           0.108024            2.93948
     88       0.00000           0.119398            3.24899
     89       0.00000           0.126469            3.44138
     90       0.00000           0.128717            3.50257
     91       0.00000           0.134965            3.67260
     92       0.00000           0.145823            3.96806
     93       0.00000           0.155389            4.22835
     94       0.00000           0.156985            4.27177
     95       0.00000           0.166783            4.53840
     96       0.00000           0.169629            4.61584
     97       0.00000           0.171871            4.67685
     98       0.00000           0.179532            4.88531
     99       0.00000           0.181768            4.94617
    100       0.00000           0.186872            5.08504
    101       0.00000           0.195782            5.32749
    102       0.00000           0.196801            5.35523
    103       0.00000           0.201082            5.47172
    104       0.00000           0.203304            5.53219
    105       0.00000           0.204300            5.55930
    106       0.00000           0.207428            5.64440
    107       0.00000           0.219629            5.97642
    108       0.00000           0.222897            6.06534
    109       0.00000           0.226567            6.16520
    110       0.00000           0.230662            6.27664
    111       0.00000           0.237114            6.45221
    112       0.00000           0.239690            6.52229
    113       0.00000           0.243499            6.62595
    114       0.00000           0.246758            6.71462
    115       0.00000           0.249528            6.78999
    116       0.00000           0.261565            7.11753
    117       0.00000           0.265955            7.23699
    118       0.00000           0.273517            7.44277
    119       0.00000           0.277595            7.55374
    120       0.00000           0.282858            7.69696
    121       0.00000           0.290718            7.91083
    122       0.00000           0.292764            7.96650
    123       0.00000           0.296920            8.07960
    124       0.00000           0.304750            8.29267
    125       0.00000           0.313205            8.52275
    126       0.00000           0.321525            8.74914
    127       0.00000           0.323317            8.79790
    128       0.00000           0.326526            8.88523
    129       0.00000           0.337759            9.19089

  Highest occupied state (VBM) at     -5.36034157 eV
  | Occupation number:      2.00000000

  Lowest unoccupied state (CBM) at    -1.64810945 eV
  | Occupation number:      0.00000000

  Overall HOMO-LUMO gap:      3.71223213 eV.

  Total energy components:
  | Sum of eigenvalues            :        -417.54869991 Ha      -11362.07822084 eV
  | XC energy correction          :        -100.75559003 Ha       -2741.69910087 eV
  | XC potential correction       :         129.53093082 Ha        3524.71596323 eV
  | Free-atom electrostatic energy:        -333.59275285 Ha       -9077.52066431 eV
  | Hartree energy correction     :         -20.35074913 Ha        -553.77205940 eV
  | MBD@rsSCS energy              :           0.00000000 Ha           0.00000000 eV
  | Entropy correction            :          -0.00000000 Ha          -0.00000000 eV
  | ---------------------------
  | Total energy                  :        -742.71686111 Ha      -20210.35408219 eV
  | Total energy, T -> 0          :        -742.71686111 Ha      -20210.35408219 eV  <-- do not rely on this value for anything but (periodic) metals
  | Electronic free energy        :        -742.71686111 Ha      -20210.35408219 eV

  Derived energy quantities:
  | Kinetic energy                :         744.06175361 Ha       20246.95046926 eV
  | Electrostatic energy          :       -1386.02302469 Ha      -37715.60545058 eV
  | Energy correction for multipole
  | error in Hartree potential    :          -0.04156478 Ha          -1.13103530 eV
  | Sum of eigenvalues per atom                           :        -355.06494440 eV
  | Total energy (T->0) per atom                          :        -631.57356507 eV  <-- do not rely on this value for anything but (periodic) metals
  | Electronic free energy per atom                       :        -631.57356507 eV

  Self-consistency convergence accuracy:
  | Change of charge density      :  0.9032E+00
  | Change of sum of eigenvalues  :  0.5537E+03 eV
  | Change of total energy        :  0.1563E+02 eV

  End self-consistency iteration #     1       :  max(cpu_time)    wall_clock(cpu1)
  | Time for this iteration                    :        1.548 s           1.545 s
[...]
   Multipole                     : -0.318417E+00  0.372767E+00 -0.432475E+00
   Pulay + GGA                   : -0.634510E+01  0.755006E+01 -0.877576E+01
   MBD@rsSCS                     : -0.459935E-02  0.149105E-01 -0.107707E-01
   ----------------------------------------------------------------
   Total forces(  20)            : -0.139864E-02  0.940298E-02 -0.104429E-01
  atom #   21
   Hellmann-Feynman              : -0.304039E-01  0.353048E-01 -0.161434E-02
   Ionic forces                  :  0.000000E+00  0.000000E+00  0.000000E+00
   Multipole                     :  0.473871E-02 -0.121170E-02 -0.196287E-01
   Pulay + GGA                   :  0.324003E-01 -0.427165E-01  0.229792E-01
   MBD@rsSCS                     : -0.354812E-02  0.197819E-02 -0.929402E-02
   ----------------------------------------------------------------
   Total forces(  21)            :  0.318701E-02 -0.664529E-02 -0.755786E-02
  atom #   22
   Hellmann-Feynman              :  0.594531E-01  0.124520E-02  0.382337E-01
   Ionic forces                  :  0.000000E+00  0.000000E+00  0.000000E+00
   Multipole                     :  0.634823E-02 -0.256568E-02 -0.940160E-02
   Pulay + GGA                   : -0.677735E-01  0.805115E-02 -0.267929E-01
   MBD@rsSCS                     : -0.150484E-01  0.196007E-01 -0.805060E-03
   ----------------------------------------------------------------
   Total forces(  22)            : -0.170205E-01  0.263314E-01  0.123407E-02
  atom #   23
   Hellmann-Feynman              :  0.794028E+00  0.169030E+00 -0.530539E+00
   Ionic forces                  :  0.000000E+00  0.000000E+00  0.000000E+00
   Multipole                     : -0.239017E+00  0.234954E-01  0.198620E+00
   Pulay + GGA                   : -0.547092E+00 -0.226729E+00  0.337664E+00
   MBD@rsSCS                     : -0.170051E-01  0.141647E-01  0.153170E-01
   ----------------------------------------------------------------
   Total forces(  23)            : -0.908607E-02 -0.200389E-01  0.210626E-01
  atom #   24
   Hellmann-Feynman              :  0.672481E-02 -0.467195E-02  0.385788E-01
   Ionic forces                  :  0.000000E+00  0.000000E+00  0.000000E+00
   Multipole                     :  0.251354E-01  0.111600E-01  0.127459E-01
   Pulay + GGA                   : -0.328218E-01 -0.128107E-01 -0.525696E-01
   MBD@rsSCS                     : -0.108207E-01 -0.204163E-02  0.539180E-02
   ----------------------------------------------------------------
   Total forces(  24)            : -0.117823E-01 -0.836428E-02  0.414697E-02
  atom #   25
   Hellmann-Feynman              : -0.427531E-01  0.970334E-02  0.264789E-01
   Ionic forces                  :  0.000000E+00  0.000000E+00  0.000000E+00
   Multipole                     : -0.852381E-02  0.196210E-01 -0.277066E-01
   Pulay + GGA                   :  0.511950E-01 -0.346022E-01  0.481671E-02
   MBD@rsSCS                     : -0.747915E-02 -0.196819E-02  0.930361E-02
   ----------------------------------------------------------------
   Total forces(  25)            : -0.756107E-02 -0.724602E-02  0.128927E-01
  atom #   26
   Hellmann-Feynman              : -0.940887E-02 -0.159346E-01  0.539378E-01
   Ionic forces                  :  0.000000E+00  0.000000E+00  0.000000E+00
   Multipole                     :  0.667892E-02 -0.244395E-01 -0.260089E-01
   Pulay + GGA                   :  0.326560E-02  0.506815E-01 -0.281711E-01
   MBD@rsSCS                     : -0.119579E-01  0.166636E-01  0.971762E-02
   ----------------------------------------------------------------
   Total forces(  26)            : -0.114222E-01  0.269710E-01  0.947547E-02
  atom #   27
   Hellmann-Feynman              :  0.190379E+00  0.981135E+00  0.663244E+00
   Ionic forces                  :  0.000000E+00  0.000000E+00  0.000000E+00
   Multipole                     :  0.185234E+00  0.427700E-02  0.128215E+00
   Pulay + GGA                   : -0.378518E+00 -0.993694E+00 -0.795659E+00
   MBD@rsSCS                     :  0.155012E-01  0.202960E-01  0.595663E-02
   ----------------------------------------------------------------
   Total forces(  27)            :  0.125956E-01  0.120136E-01  0.175614E-02
  atom #   28
   Hellmann-Feynman              : -0.426162E+00 -0.238684E+01  0.166086E+00
   Ionic forces                  :  0.000000E+00  0.000000E+00  0.000000E+00
   Multipole                     :  0.349474E-01  0.174134E+00  0.122422E-01
   Pulay + GGA                   :  0.389490E+00  0.220427E+01 -0.175973E+00
   MBD@rsSCS                     :  0.667368E-02  0.433258E-02  0.463644E-02
   ----------------------------------------------------------------
   Total forces(  28)            :  0.494846E-02 -0.410367E-02  0.699165E-02
  atom #   29
   Hellmann-Feynman              :  0.167646E-01 -0.187755E-01  0.260369E-01
   Ionic forces                  :  0.000000E+00  0.000000E+00  0.000000E+00
   Multipole                     : -0.152038E-02 -0.386873E-01  0.778689E-02
   Pulay + GGA                   : -0.238361E-01  0.506322E-01 -0.362190E-01
   MBD@rsSCS                     :  0.635530E-02  0.408207E-02  0.238928E-02
   ----------------------------------------------------------------
   Total forces(  29)            : -0.223662E-02 -0.274848E-02 -0.595291E-05
  atom #   30
   Hellmann-Feynman              :  0.150872E-01  0.371187E-01  0.301295E-01
   Ionic forces                  :  0.000000E+00  0.000000E+00  0.000000E+00
   Multipole                     : -0.208854E-01 -0.694138E-02  0.282960E-01
   Pulay + GGA                   :  0.283039E-02 -0.302114E-01 -0.611880E-01
   MBD@rsSCS                     :  0.239015E-02  0.619654E-02  0.240974E-02
   ----------------------------------------------------------------
   Total forces(  30)            : -0.577662E-03  0.616245E-02 -0.352671E-03
  atom #   31
   Hellmann-Feynman              :  0.395327E-01  0.293885E-01  0.626095E-02
   Ionic forces                  :  0.000000E+00  0.000000E+00  0.000000E+00
   Multipole                     :  0.249559E-01 -0.178870E-01 -0.132348E-01
   Pulay + GGA                   : -0.672657E-01 -0.116022E-01  0.338061E-02
   MBD@rsSCS                     :  0.391523E-02  0.558600E-02  0.662563E-03
   ----------------------------------------------------------------
   Total forces(  31)            :  0.113817E-02  0.548532E-02 -0.293073E-02
  atom #   32
   Hellmann-Feynman              :  0.142770E-01  0.684570E-01 -0.105625E-02
   Ionic forces                  :  0.000000E+00  0.000000E+00  0.000000E+00
   Multipole                     : -0.330045E-01 -0.238877E-01 -0.307490E-01
   Pulay + GGA                   :  0.201776E-01 -0.467154E-01  0.340434E-01
   MBD@rsSCS                     :  0.832098E-03  0.664801E-02 -0.142789E-02
   ----------------------------------------------------------------
   Total forces(  32)            :  0.228222E-02  0.450188E-02  0.810330E-03

  Removing unitary transformations (pure translations, rotations) from forces on atoms.
  Atomic forces before filtering:
  | Net force on center of mass :  -0.546761E-03  0.486128E-03 -0.716910E-03 eV/A
  | Net torque on center of mass:  -0.596844E-03 -0.136318E-02  0.919784E-03 eV
  Atomic forces after filtering:
  | Net force on center of mass :   0.871124E-17 -0.696899E-17 -0.435562E-17 eV/A
  | Net torque on center of mass:   0.327295E-17 -0.166874E-16 -0.191767E-16 eV

  Energy and forces in a compact form:
  | Total energy uncorrected      :         -0.202089090978868E+05 eV
  | Total energy corrected        :         -0.202089090978868E+05 eV  <-- do not rely on this value for anything but (periodic) metals
  | Electronic free energy        :         -0.202089090978868E+05 eV
  Total atomic forces (unitary forces cleaned) [eV/Ang]:
  |   1         -0.379747639926512E-02          0.190303003850102E-02         -0.156278858083870E-02
  |   2         -0.271982250610265E-03         -0.142309849819056E-01          0.188091020445582E-01
  |   3         -0.132433458449186E-01         -0.732957601767700E-02         -0.353393353373756E-02
  |   4          0.615646660250850E-02          0.374583677135759E-03          0.681747602942536E-02
  |   5          0.483985437915190E-02         -0.105827103520454E-02          0.604059484978432E-02
  |   6         -0.421450151422662E-02         -0.120051877410211E-02          0.842408955418105E-02
  |   7          0.352259646483395E-02         -0.285444284482893E-01          0.194580484121012E-02
  |   8          0.771075245490851E-02         -0.130491691801906E-01         -0.121466363723437E-01
  |   9         -0.502135711653100E-02          0.100034988759455E-02         -0.259381606534086E-01
  |  10         -0.185436753991944E-01          0.823376360701656E-02          0.348361070700656E-02
  |  11         -0.120959917663767E-01         -0.507977764723623E-02          0.809944272364989E-02
  |  12         -0.283446015282614E-02          0.161953291755919E-02         -0.452737498002206E-02
  |  13          0.836553237996924E-02         -0.256163565362966E-02          0.513996836826361E-02
  |  14          0.159217556625246E-01          0.932207438660920E-03         -0.161342957866826E-01
  |  15          0.145589456834423E-01          0.239924066184781E-02         -0.130650858146846E-01
  |  16          0.175151526368026E-01          0.154920450954332E-02          0.107719221100886E-02
  |  17         -0.901033030033009E-03          0.122841317582097E-01         -0.187065273199467E-01
  |  18          0.847400152395436E-02          0.128641579095050E-01          0.647334658996019E-02
  |  19          0.107493870759549E-01         -0.116474178956620E-01         -0.796152920866049E-02
  |  20         -0.138173258461557E-02          0.938232396312576E-02         -0.104372358014561E-01
  |  21          0.321987485087515E-02         -0.667098822694506E-02         -0.755344270657921E-02
  |  22         -0.170075890295038E-01          0.263185663646427E-01          0.126000158148133E-02
  |  23         -0.908247349510601E-02         -0.200562798795475E-01          0.210664847267927E-01
  |  24         -0.117901012712038E-01         -0.837744931474887E-02          0.415368301403468E-02
  |  25         -0.755682345419866E-02         -0.726721530566300E-02          0.128856542995402E-01
  |  26         -0.114156608494583E-01          0.269525992245044E-01          0.947895480215425E-02
  |  27          0.125961650368543E-01          0.120033294289668E-01          0.177898954353806E-02
  |  28          0.494363953572420E-02         -0.411240624447837E-02          0.701438884235682E-02
  |  29         -0.224034951919903E-02         -0.275532446188540E-02          0.234733990754228E-04
  |  30         -0.594277636555241E-03          0.615594060904889E-02         -0.333526944121924E-03
  |  31          0.113518819605771E-02          0.547962769675992E-02         -0.289715142445194E-02
  |  32          0.228351883026000E-02          0.448885337454291E-02          0.825430998912469E-03

  ------------------------------------ 
  Start decomposition of the XC Energy 
  ------------------------------------ 
  Hartree-Fock part   :          0.000000000 Ha              0.000000000 eV
  ------------------------------------ 
  X Energy            :        -96.985738233 Ha          -2639.116214077 eV
  C Energy GGA        :         -3.867457470 Ha           -105.238872261 eV
  Total XC Energy     :       -100.853195703 Ha          -2744.355086338 eV
  LDA X and C from self-consistent density 
  X Energy LDA        :        -88.000170294 Ha          -2394.606469932 eV
  C Energy LDA        :         -7.531509664 Ha           -204.942805344 eV
  ------------------------------------ 
  End decomposition of the XC Energy 
  ------------------------------------ 
   
  ESP charge fitting starts.
  | Calculation :  00000001  of  00000001
  | Full density
  Computing multipole expansion for total density.
  Generating points for esp charges.
  Partitioning the integration grid into batches with parallel hashing+maxmin method.
  | Number of batches:     3911
  | Maximal batch size:     191
  | Minimal batch size:      52
  | Average batch size:     124.406
  | Standard deviation of batch sizes:      16.085

  Integration load balanced across    32 MPI tasks.
  Work distribution over tasks is as follows:
  Initializing partition tables, free-atom densities, potentials, etc. across the integration grid (initialize_grid_storage).
  | Original list of interatomic distances with          32 x         32 entries is created.
  | Net number of integration points:   486550
  | of which are non-zero points    :   486550
  Summing up potential from multipole expanded  density.
  Summing up the Hartree potential.
  Time summed over all CPUs for potential: real work        6.370 s, elapsed        6.801 s
  Fitting esp charges to potential.
  |
  | ESP charges fitted to the electrostatic potential :
  |
  | Atom         1: C, ESP charge:      0.91920629
  |
  | Atom         2: C, ESP charge:     -0.57867247
  |
  | Atom         3: O, ESP charge:      0.48885027
  |
  | Atom         4: H, ESP charge:     -0.27134028
  |
  | Atom         5: H, ESP charge:     -0.26599797
  |
  | Atom         6: H, ESP charge:     -0.21750479
  |
  | Atom         7: N, ESP charge:      0.20731389
  |
  | Atom         8: C, ESP charge:     -0.03814886
  |
  | Atom         9: C, ESP charge:     -0.38711382
  |
  | Atom        10: O, ESP charge:      0.50140276
  |
  | Atom        11: H, ESP charge:     -0.21825333
  |
  | Atom        12: H, ESP charge:     -0.10172748
  |
  | Atom        13: C, ESP charge:      0.40274410
  |
  | Atom        14: H, ESP charge:     -0.08315583
  |
  | Atom        15: H, ESP charge:     -0.11504791
  |
  | Atom        16: H, ESP charge:     -0.16142435
  |
  | Atom        17: N, ESP charge:      0.29204958
  |
  | Atom        18: C, ESP charge:     -0.20498182
  |
  | Atom        19: C, ESP charge:     -0.37048095
  |
  | Atom        20: O, ESP charge:      0.47675116
  |
  | Atom        21: H, ESP charge:     -0.23967509
  |
  | Atom        22: H, ESP charge:      0.05056025
  |
  | Atom        23: C, ESP charge:      0.15919999
  |
  | Atom        24: H, ESP charge:     -0.01366848
  |
  | Atom        25: H, ESP charge:     -0.07773510
  |
  | Atom        26: H, ESP charge:     -0.03769688
  |
  | Atom        27: N, ESP charge:      0.21111365
  |
  | Atom        28: C, ESP charge:      0.39123070
  |
  | Atom        29: H, ESP charge:     -0.25921357
  |
  | Atom        30: H, ESP charge:     -0.13811498
  |
  | Atom        31: H, ESP charge:     -0.13686923
  |
  | Atom        32: H, ESP charge:     -0.18359946

  RRMS:       0.00078609

  Done.

------------------------------------------------------------------------------
  Final output of selected total energy values:

  The following output summarizes some interesting total energy values
  at the end of a run (AFTER all relaxation, molecular dynamics, etc.).

  | Total energy of the DFT / Hartree-Fock s.c.f. calculation      :         -20208.909097887 eV
  | Final zero-broadening corrected energy (caution - metals only) :         -20208.909097887 eV
  | For reference only, the value of 1 Hartree used in FHI-aims is :             27.211384500 eV

  Before relying on these values, please be sure to understand exactly which
  total energy value is referred to by a given number. Different objects may
  all carry the same name 'total energy'. Definitions:

  Total energy of the DFT / Hartree-Fock s.c.f. calculation:
  | Note that this energy does not include ANY quantities calculated after the
  | s.c.f. cycle, in particular not ANY RPA, MP2, etc. many-body perturbation terms.

  Final zero-broadening corrected energy:
  | For metallic systems only, a broadening of the occupation numbers at the Fermi
  | level can be extrapolated back to zero broadening by an electron-gas inspired
  | formula. For all systems that are not real metals, this value can be
  | meaningless and should be avoided.

------------------------------------------------------------------------------
  Methods described in the following list of references were used in this FHI-aims run.
  If you publish the results, please make sure to cite these reference if they apply.
  FHI-aims is an academic code, and for our developers (often, Ph.D. students
  and postdocs), scientific credit in the community is essential.
  Thank you for helping us!

  For any use of FHI-aims, please cite:

    Volker Blum, Ralf Gehrke, Felix Hanke, Paula Havu, Ville Havu,
    Xinguo Ren, Karsten Reuter, and Matthias Scheffler
    'Ab initio molecular simulations with numeric atom-centered orbitals'
    Computer Physics Communications 180, 2175-2196 (2009)
    http://dx.doi.org/10.1016/j.cpc.2009.06.022


  The scalable eigensolver library ELPA was used in your run.
  ELPA is essential especially for large systems on hundreds or thousands of CPUs.
  For ELPA, please cite:

    Andreas Marek, Volker Blum, Rainer Johanni, Ville Havu, Bruno Lang,
    Thomas Auckenthaler, Alexander Heinecke, Hans-Joachim Bungartz, and Hermann Lederer,
    'The ELPA Library - Scalable Parallel Eigenvalue Solutions
    for Electronic Structure Theory and Computational Science'
    The Journal of Physics: Condensed Matter 26, 213201 (2014).
    http://dx.doi.org/10.1088/0953-8984/26/21/213201


  For ELPA's efficient two-stage tridiagonalization used in your run, please cite:

    T. Auckenthaler, V. Blum, H.-J. Bungartz, T. Huckle, R. Johanni, L. Kraemer,
    B. Lang, H. Lederer, and P. R. Willems,
    'Parallel solution of partial symmetric eigenvalue problems'
    'from  electronic structure calculations'
    Parallel Computing 37, 783-794 (2011).
    http://dx.doi.org/10.1016/j.parco.2011.05.002


  For the real-space grid partitioning and parallelization used in this calculation, please cite:

    Ville Havu, Volker Blum, Paula Havu, and Matthias Scheffler,
    'Efficient O(N) integration for all-electron electronic structure calculation'
    'using numerically tabulated basis functions'
    Journal of Computational Physics 228, 8367-8379 (2009).
    http://dx.doi.org/10.1016/j.jcp.2009.08.008

  Of course, there are many other important community references, e.g., those cited in the
  above references. Our list is limited to references that describe implementations in the
  FHI-aims code. The reason is purely practical (length of this list) - please credit others as well.

------------------------------------------------------------
          Leaving FHI-aims.
          Date     :  20170309, Time     :  180043.881

          Computational steps:
          | Number of self-consistency cycles          :           14

          Detailed time accounting                     :  max(cpu_time)    wall_clock(cpu1)
          | Total time                                 :       33.278 s          33.471 s
          | Preparation time                           :        0.232 s           0.231 s
          | Grid partitioning                          :        0.268 s           0.264 s
          | Preloading free-atom quantities on grid    :        0.028 s           0.028 s
          | Free-atom superposition energy             :        0.040 s           0.039 s
          | Total time for integrations                :       11.081 s          11.069 s
          | Total time for solution of K.-S. equations :        0.528 s           0.491 s
          | Total time for density & force components  :        9.745 s           9.729 s
          | Total time for mixing                      :        0.120 s           0.110 s
          | Total time for Hartree multipole update    :        0.056 s           0.056 s
          | Total time for Hartree multipole sum       :        6.340 s           6.316 s
          | Total time for total energy evaluation     :        0.028 s           0.021 s

          Have a nice day.
------------------------------------------------------------
