  MPI-parallelism will be employed.
------------------------------------------------------------
          Invoking FHI-aims ...
          Version 150427
          Git rev.: 9dd23e0 BL: Update Version stamp
          Compiled on 2015/11/03 at 22:05:20 on host eos03.

          When using FHI-aims, please cite the following reference:

          Volker Blum, Ralf Gehrke, Felix Hanke, Paula Havu,
          Ville Havu, Xinguo Ren, Karsten Reuter, and Matthias Scheffler,
          'Ab Initio Molecular Simulations with Numeric Atom-Centered Orbitals: FHI-aims',
          Computer Physics Communications 180, 2175-2196 (2009)

          For any questions about FHI-aims, please visit the aimsclub website
          with its forums and wiki. Contributions to both the forums and the
          wiki are warmly encouraged - they are for you, and everyone is welcome there.

------------------------------------------------------------

  Date     :  20170309, Time     :  185640.738
  Time zero on CPU 1             :   0.392024000000000E+00  s.
  Internal wall clock time zero  :           258317800.738  s.

  Using       32 parallel tasks.
  Task        0 on host eos026 reporting.
  Task        1 on host eos026 reporting.
  Task        2 on host eos026 reporting.
  Task        3 on host eos026 reporting.
  Task        4 on host eos026 reporting.
  Task        5 on host eos026 reporting.
  Task        6 on host eos026 reporting.
  Task        7 on host eos026 reporting.
  Task        8 on host eos026 reporting.
  Task        9 on host eos026 reporting.
  Task       10 on host eos026 reporting.
  Task       11 on host eos026 reporting.
  Task       12 on host eos026 reporting.
  Task       13 on host eos026 reporting.
  Task       14 on host eos026 reporting.
  Task       15 on host eos026 reporting.
  Task       16 on host eos026 reporting.
  Task       17 on host eos026 reporting.
  Task       18 on host eos026 reporting.
  Task       19 on host eos026 reporting.
  Task       20 on host eos026 reporting.
  Task       21 on host eos026 reporting.
  Task       22 on host eos026 reporting.
  Task       23 on host eos026 reporting.
  Task       24 on host eos026 reporting.
  Task       25 on host eos026 reporting.
  Task       26 on host eos026 reporting.
  Task       27 on host eos026 reporting.
  Task       28 on host eos026 reporting.
  Task       29 on host eos026 reporting.
  Task       30 on host eos026 reporting.
  Task       31 on host eos026 reporting.

  Performing system and environment tests:
  | Environment variable OMP_NUM_THREADS correctly set to 1.
  | Stacksize not measured: no C compiler
  | Checking for scalapack...
  | Testing pdtran()...
  | All pdtran() tests passed.

  Obtaining array dimensions for all initial allocations:
  
  -----------------------------------------------------------------------
  Parsing control.in (first pass over file, find array dimensions only).
  The contents of control.in will be repeated verbatim below
  unless switched off by setting 'verbatim_writeout .false.' .
  in the first line of control.in .
  -----------------------------------------------------------------------
  
  #########################################################################################
  #
  # Input for System
  #
  #########################################################################################
  #
  #
  #  Physical model
  #
    xc                 pbe
    many_body_dispersion
    spin               none
    charge             0.
  #
  #  SCF convergence
  #
    occupation_type    gaussian 0.05
    mixer              pulay
      n_max_pulay        10
      charge_mix_param   0.5
    sc_accuracy_rho    1E-4
    sc_accuracy_eev    1E-2
    sc_accuracy_etot   1E-5
    sc_accuracy_forces 1E-4
    sc_iter_limit      1000
  #
  #  ESP charge
  #
    output esp
    esp equal_grid_n 80 80 80
  #
  #
  ################################################################################
  #
  #  FHI-aims code project
  # Volker Blum, Fritz Haber Institute Berlin, 2009
  #
  #  Suggested "tight" defaults for H atom (to be pasted into control.in file)
  #
  ################################################################################
    species        H
  #     global species definitions
      nucleus             1
      mass                1.00794
  #
      l_hartree           6
  #
      cut_pot             4.0  2.0  1.0
      basis_dep_cutoff    1e-4
  #
      radial_base         24 7.0
      radial_multiplier   2
      angular_grids       specified
        division   0.1930   50
        division   0.3175  110
        division   0.4293  194
        division   0.5066  302
        division   0.5626  434
  #      division   0.5922  590
  #      division   0.6227  974
  #      division   0.6868 1202
  #      outer_grid  770
        outer_grid  434
  ################################################################################
  #
  #  Definition of "minimal" basis
  #
  ################################################################################
  #     valence basis states
      valence      1  s   1.
  #     ion occupancy
      ion_occ      1  s   0.5
  ################################################################################
  #
  #  Suggested additional basis functions. For production calculations,
  #  uncomment them one after another (the most important basis functions are
  #  listed first).
  #
  #  Basis constructed for dimers: 0.5 A, 0.7 A, 1.0 A, 1.5 A, 2.5 A
  #
  ################################################################################
  #  "First tier" - improvements: -1014.90 meV to -62.69 meV
       hydro 2 s 2.1
       hydro 2 p 3.5
  #  "Second tier" - improvements: -12.89 meV to -1.83 meV
       hydro 1 s 0.85
       hydro 2 p 3.7
       hydro 2 s 1.2
       hydro 3 d 7
  #  "Third tier" - improvements: -0.25 meV to -0.12 meV
  #     hydro 4 f 11.2
  #     hydro 3 p 4.8
  #     hydro 4 d 9
  #     hydro 3 s 3.2
  ################################################################################
  #
  # For methods that use the localized form of the "resolution of identity" for
  # the two-electron Coulomb operator (RI_method LVL), particularly Hartree-Fock and
  # hybrid density functional calculations, the highest accuracy can be obtained by
  # uncommenting the line beginning with "for_aux"  below, thus adding an extra g radial
  # function to the construction of the product basis set for the expansion.
  # See Ref. New J. Phys. 17, 093020 (2015) for more information, particularly Figs. 1 and 6.
  #
  ################################################################################
  #
  # for_aux hydro 5 g 6.0
  ################################################################################
  #
  #  FHI-aims code project
  # Volker Blum, Fritz Haber Institute Berlin, 2009
  #
  #  Suggested "tight" defaults for C atom (to be pasted into control.in file)
  #
  ################################################################################
    species        C
  #     global species definitions
      nucleus             6
      mass                12.0107
  #
      l_hartree           6
  #
      cut_pot             4.0  2.0  1.0
      basis_dep_cutoff    1e-4
  #
      radial_base         34 7.0
      radial_multiplier   2
      angular_grids specified
        division   0.2187   50
        division   0.4416  110
        division   0.6335  194
        division   0.7727  302
        division   0.8772  434
  #      division   0.9334  590
  #      division   0.9924  770
  #      division   1.0230  974
  #      division   1.5020 1202
  #     outer_grid  974
        outer_grid  434
  ################################################################################
  #
  #  Definition of "minimal" basis
  #
  ################################################################################
  #     valence basis states
      valence      2  s   2.
      valence      2  p   2.
  #     ion occupancy
      ion_occ      2  s   1.
      ion_occ      2  p   1.
  ################################################################################
  #
  #  Suggested additional basis functions. For production calculations,
  #  uncomment them one after another (the most important basis functions are
  #  listed first).
  #
  #  Constructed for dimers: 1.0 A, 1.25 A, 1.5 A, 2.0 A, 3.0 A
  #
  ################################################################################
  #  "First tier" - improvements: -1214.57 meV to -155.61 meV
       hydro 2 p 1.7
       hydro 3 d 6
       hydro 2 s 4.9
  #  "Second tier" - improvements: -67.75 meV to -5.23 meV
       hydro 4 f 9.8
       hydro 3 p 5.2
       hydro 3 s 4.3
       hydro 5 g 14.4
       hydro 3 d 6.2
  #  "Third tier" - improvements: -2.43 meV to -0.60 meV
  #     hydro 2 p 5.6
  #     hydro 2 s 1.4
  #     hydro 3 d 4.9
  #     hydro 4 f 11.2
  #  "Fourth tier" - improvements: -0.39 meV to -0.18 meV
  #     hydro 2 p 2.1
  #     hydro 5 g 16.4
  #     hydro 4 d 13.2
  #     hydro 3 s 13.6
  #     hydro 4 f 17.6
  #  Further basis functions - improvements: -0.08 meV and below
  #     hydro 3 s 2
  #     hydro 3 p 6
  #     hydro 4 d 20
  ################################################################################
  #
  # For methods that use the localized form of the "resolution of identity" for
  # the two-electron Coulomb operator (RI_method LVL), particularly Hartree-Fock and
  # hybrid density functional calculations, the highest accuracy can be obtained by
  # uncommenting the line beginning with "for_aux"  below, thus adding an extra g radial
  # function to the construction of the product basis set for the expansion.
  # See Ref. New J. Phys. 17, 093020 (2015) for more information, particularly Figs. 1 and 6.
  #
  ################################################################################
  #
  # for_aux hydro 5 g 6.0
  ################################################################################
  #
  #  FHI-aims code project
  # Volker Blum, Fritz Haber Institute Berlin, 2009
  #
  #  Suggested "tight" defaults for N atom (to be pasted into control.in file)
  #
  ################################################################################
    species        N
  #     global species definitions
      nucleus             7
      mass                14.0067
  #
      l_hartree           6
  #
      cut_pot             4.0  2.0  1.0
      basis_dep_cutoff    1e-4
  #
      radial_base         35 7.0
      radial_multiplier   2
      angular_grids       specified
        division   0.1841   50
        division   0.3514  110
        division   0.5126  194
        division   0.6292  302
        division   0.6939  434
  #      division   0.7396  590
  #      division   0.7632  770
  #      division   0.8122  974
  #      division   1.1604 1202
  #      outer_grid  974
        outer_grid  434
  ################################################################################
  #
  #  Definition of "minimal" basis
  #
  ################################################################################
  #     valence basis states
      valence      2  s   2.
      valence      2  p   3.
  #     ion occupancy
      ion_occ      2  s   1.
      ion_occ      2  p   2.
  ################################################################################
  #
  #  Suggested additional basis functions. For production calculations,
  #  uncomment them one after another (the most important basis functions are
  #  listed first).
  #
  #  Constructed for dimers: 1.0 A, 1.1 A, 1.5 A, 2.0 A, 3.0 A
  #
  ################################################################################
  #  "First tier" - improvements: -1193.42 meV to -220.60 meV
       hydro 2 p 1.8
       hydro 3 d 6.8
       hydro 3 s 5.8
  #  "Second tier" - improvements: -80.21 meV to -6.86 meV
       hydro 4 f 10.8
       hydro 3 p 5.8
       hydro 1 s 0.8
       hydro 5 g 16
       hydro 3 d 4.9
  #  "Third tier" - improvements: -4.29 meV to -0.53 meV
  #     hydro 3 s 16
  #     ionic 2 p auto
  #     hydro 3 d 6.6
  #     hydro 4 f 11.6
  #  "Fourth tier" - improvements: -0.75 meV to -0.25 meV
  #     hydro 2 p 4.5
  #     hydro 2 s 2.4
  #     hydro 5 g 14.4
  #     hydro 4 d 14.4
  #     hydro 4 f 16.8
  # Further basis functions - -0.21 meV and below
  #     hydro 3 p 14.8
  #     hydro 3 s 4.4
  #     hydro 3 d 19.6
  #     hydro 5 g 12.8
  ################################################################################
  #
  # For methods that use the localized form of the "resolution of identity" for
  # the two-electron Coulomb operator (RI_method LVL), particularly Hartree-Fock and
  # hybrid density functional calculations, the highest accuracy can be obtained by
  # uncommenting the line beginning with "for_aux"  below, thus adding an extra g radial
  # function to the construction of the product basis set for the expansion.
  # See Ref. New J. Phys. 17, 093020 (2015) for more information, particularly Figs. 1 and 6.
  #
  ################################################################################
  #
  # for_aux hydro 5 g 6.0
  ################################################################################
  #
  #  FHI-aims code project
  # Volker Blum, Fritz Haber Institute Berlin, 2009
  #
  #  Suggested "tight" defaults for O atom (to be pasted into control.in file)
  #
  ################################################################################
    species        O
  #     global species definitions
      nucleus             8
      mass                15.9994
  #
      l_hartree           6
  #
      cut_pot             4.0  2.0  1.0
      basis_dep_cutoff    1e-4
  #
      radial_base         36 7.0
      radial_multiplier   2
       angular_grids specified
        division   0.1817   50
        division   0.3417  110
        division   0.4949  194
        division   0.6251  302
        division   0.8014  434
  #      division   0.8507  590
  #      division   0.8762  770
  #      division   0.9023  974
  #      division   1.2339 1202
  #      outer_grid 974
        outer_grid  434
  ################################################################################
  #
  #  Definition of "minimal" basis
  #
  ################################################################################
  #     valence basis states
      valence      2  s   2.
      valence      2  p   4.
  #     ion occupancy
      ion_occ      2  s   1.
      ion_occ      2  p   3.
  ################################################################################
  #
  #  Suggested additional basis functions. For production calculations,
  #  uncomment them one after another (the most important basis functions are
  #  listed first).
  #
  #  Constructed for dimers: 1.0 A, 1.208 A, 1.5 A, 2.0 A, 3.0 A
  #
  ################################################################################
  #  "First tier" - improvements: -699.05 meV to -159.38 meV
       hydro 2 p 1.8
       hydro 3 d 7.6
       hydro 3 s 6.4
  #  "Second tier" - improvements: -49.91 meV to -5.39 meV
       hydro 4 f 11.6
       hydro 3 p 6.2
       hydro 3 d 5.6
       hydro 5 g 17.6
       hydro 1 s 0.75
  #  "Third tier" - improvements: -2.83 meV to -0.50 meV
  #     ionic 2 p auto
  #     hydro 4 f 10.8
  #     hydro 4 d 4.7
  #     hydro 2 s 6.8
  #  "Fourth tier" - improvements: -0.40 meV to -0.12 meV
  #     hydro 3 p 5
  #     hydro 3 s 3.3
  #     hydro 5 g 15.6
  #     hydro 4 f 17.6
  #     hydro 4 d 14
  # Further basis functions - -0.08 meV and below
  #     hydro 3 s 2.1
  #     hydro 4 d 11.6
  #     hydro 3 p 16
  #     hydro 2 s 17.2
  ################################################################################
  #
  # For methods that use the localized form of the "resolution of identity" for
  # the two-electron Coulomb operator (RI_method LVL), particularly Hartree-Fock and
  # hybrid density functional calculations, the highest accuracy can be obtained by
  # uncommenting the line beginning with "for_aux"  below, thus adding an extra g radial
  # function to the construction of the product basis set for the expansion.
  # See Ref. New J. Phys. 17, 093020 (2015) for more information, particularly Figs. 1 and 6.
  #
  ################################################################################
  #
  # for_aux hydro 5 g 6.0
  
  -----------------------------------------------------------------------
  Completed first pass over input file control.in .
  -----------------------------------------------------------------------
  
  
  -----------------------------------------------------------------------
  Parsing geometry.in (first pass over file, find array dimensions only).
  The contents of geometry.in will be repeated verbatim below
  unless switched off by setting 'verbatim_writeout .false.' .
  in the first line of geometry.in .
  -----------------------------------------------------------------------
  
  #
  # This is the geometry file that corresponds to the current relaxation step.
  # If you do not want this file to be written, set the "write_restart_geometry" flag to .false.
  #
  atom      -1.10333089      1.57147577     -0.28395252 C
  atom      -0.05550387      0.97923853      0.64127306 C
  atom       1.13814689      1.23202168      0.50533523 O
  atom      -1.90047971      0.86859008     -0.55568936 H
  atom      -0.59233877      1.90925599     -1.18979973 H
  atom      -1.56832799      2.44541910      0.19403640 H
  atom      -0.47685769      0.17811241      1.67965416 N
  atom      -1.80084804     -0.37126809      1.95295180 C
  atom      -2.29064023     -1.25868613      0.77420293 C
  atom      -1.51908594     -2.03979847      0.22280698 O
  atom       0.30391532     -0.23516762      2.17911242 H
  atom      -1.63766659     -1.10663325      2.75619960 H
  atom      -2.78958738      0.67193506      2.49344242 C
  atom      -3.09416395      1.40085859      1.73166613 H
  atom      -2.31666525      1.22657310      3.31276232 H
  atom      -3.69015862      0.19292414      2.90399721 H
  atom      -3.59772259     -1.12366736      0.41918174 N
  atom      -4.26323860     -1.99043426     -0.56148954 C
  atom      -4.35416341     -3.43289404      0.01769484 C
  atom      -5.08837881     -3.58988172      0.99617860 O
  atom      -4.19431464     -0.55454755      1.00565247 H
  atom      -5.31874868     -1.68775345     -0.52439374 H
  atom      -3.76601094     -1.73764068     -1.98698898 C
  atom      -4.27121083     -2.40719894     -2.69510546 H
  atom      -2.68476551     -1.86622669     -2.08493611 H
  atom      -4.01302903     -0.70572155     -2.27019200 H
  atom      -3.71513733     -4.49371601     -0.54867806 N
  atom      -2.59978435     -4.55340180     -1.48827255 C
  atom      -3.93521536     -5.35093711     -0.04924997 H
  atom      -2.12691801     -5.53586994     -1.38091177 H
  atom      -1.85270898     -3.78691212     -1.25404140 H
  atom      -2.92760123     -4.45208166     -2.53251611 H
  
  -----------------------------------------------------------------------
  Completed first pass over input file geometry.in .
  -----------------------------------------------------------------------
  

  Basic array size parameters:
  | Number of species                 :        4
  | Number of atoms                   :       32
  | Max. basis fn. angular momentum   :        4
  | Max. atomic/ionic basis occupied n:        2
  | Max. number of basis fn. types    :        2
  | Max. radial fns per species/type  :        8
  | Max. logarithmic grid size        :     1301
  | Max. radial integration grid size :       73
  | Max. angular integration grid size:      434
  | Max. angular grid division number :        8
  | Radial grid for Hartree potential :     1301
  | Number of spin channels           :        1

------------------------------------------------------------
          Reading file control.in.
------------------------------------------------------------
  XC: Using PBE gradient-corrected functionals.
  Self-consistent screening and van der Waals energy (TS, TS+SCS,MBD) module
  Spin treatment: No spin polarisation.
  Charge =   0.000000E+00: Neutral system requested explicitly.
  Occupation type: Gaussian broadening, width =   0.500000E-01 eV.
  Using pulay charge density mixing.
  Pulay mixing - number of memorized iterations:   10
  Charge density mixing - mixing parameter:     0.5000
  Convergence accuracy of self-consistent charge density:  0.1000E-03
  Convergence accuracy of sum of eigenvalues:  0.1000E-01
  Convergence accuracy of total energy:  0.1000E-04
  Convergence accuracy of forces:  0.1000E-03
  Maximum number of s.-c. iterations  :  1000
  Fitting ESP-charges to Potential. 
  | Esp charge output options: 
  | ESP Grid method: 3, cubic grid
  | Number of points in x, ,y, z:  0080 0080 0080
  |
 
  Reading configuration options for species H                   .
  | Found nuclear charge :   1.0000
  | Found atomic mass :    1.00794000000000      amu
  | Found l_max for Hartree potential  :   6
  | Found cutoff potl. onset [A], width [A], scale factor :    4.00000    2.00000    1.00000
  | Threshold for basis-dependent cutoff potential is   0.100000E-03
  | Found data for basic radial integration grid :    24 points, outermost radius =    7.000 A
  | Found multiplier for basic radial grid :   2
  | Found angular grid specification: user-specified.
  | Specified grid contains     6 separate shells.
  | Check grid settings after all constraints further below.
  | Found free-atom valence shell :  1 s   1.000
  | No ionic wave fns used. Skipping ion_occ.
  | Found hydrogenic basis function :  2 s   2.100
  | Found hydrogenic basis function :  2 p   3.500
  | Found hydrogenic basis function :  1 s   0.850
  | Found hydrogenic basis function :  2 p   3.700
  | Found hydrogenic basis function :  2 s   1.200
  | Found hydrogenic basis function :  3 d   7.000
  Species H                   : Missing cutoff potential type.
  Defaulting to exp(1/x)/(1-x)^2 type cutoff potential.
  Species H : No 'logarithmic' tag. Using default grid for free atom:
  | Default logarithmic grid data [bohr] : 0.1000E-03 0.1000E+03 0.1012E+01
  Species H : On-site basis accuracy parameter (for Gram-Schmidt orthonormalisation) not specified.
  Using default value basis_acc =  0.1000000E-03.
  Species H                   : Using default innermost maximum threshold i_radial=  2 for radial functions.
  Species H                   : Default cutoff onset for free atom density etc. : 0.40000000E+01 AA.
  Species H                   : Basic radial grid will be enhanced according to radial_multiplier =   2, to contain    49 grid points.
 
  Reading configuration options for species C                   .
  | Found nuclear charge :   6.0000
  | Found atomic mass :    12.0107000000000      amu
  | Found l_max for Hartree potential  :   6
  | Found cutoff potl. onset [A], width [A], scale factor :    4.00000    2.00000    1.00000
  | Threshold for basis-dependent cutoff potential is   0.100000E-03
  | Found data for basic radial integration grid :    34 points, outermost radius =    7.000 A
  | Found multiplier for basic radial grid :   2
  | Found angular grid specification: user-specified.
  | Specified grid contains     6 separate shells.
  | Check grid settings after all constraints further below.
  | Found free-atom valence shell :  2 s   2.000
  | Found free-atom valence shell :  2 p   2.000
  | No ionic wave fns used. Skipping ion_occ.
  | No ionic wave fns used. Skipping ion_occ.
  | Found hydrogenic basis function :  2 p   1.700
  | Found hydrogenic basis function :  3 d   6.000
  | Found hydrogenic basis function :  2 s   4.900
  | Found hydrogenic basis function :  4 f   9.800
  | Found hydrogenic basis function :  3 p   5.200
  | Found hydrogenic basis function :  3 s   4.300
  | Found hydrogenic basis function :  5 g  14.400
  | Found hydrogenic basis function :  3 d   6.200
  Species C                   : Missing cutoff potential type.
  Defaulting to exp(1/x)/(1-x)^2 type cutoff potential.
  Species C : No 'logarithmic' tag. Using default grid for free atom:
  | Default logarithmic grid data [bohr] : 0.1000E-03 0.1000E+03 0.1012E+01
  Species C : On-site basis accuracy parameter (for Gram-Schmidt orthonormalisation) not specified.
  Using default value basis_acc =  0.1000000E-03.
  Species C                   : Using default innermost maximum threshold i_radial=  2 for radial functions.
  Species C                   : Default cutoff onset for free atom density etc. : 0.40000000E+01 AA.
  Species C                   : Basic radial grid will be enhanced according to radial_multiplier =   2, to contain    69 grid points.
 
  Reading configuration options for species N                   .
  | Found nuclear charge :   7.0000
  | Found atomic mass :    14.0067000000000      amu
  | Found l_max for Hartree potential  :   6
  | Found cutoff potl. onset [A], width [A], scale factor :    4.00000    2.00000    1.00000
  | Threshold for basis-dependent cutoff potential is   0.100000E-03
  | Found data for basic radial integration grid :    35 points, outermost radius =    7.000 A
  | Found multiplier for basic radial grid :   2
  | Found angular grid specification: user-specified.
  | Specified grid contains     6 separate shells.
  | Check grid settings after all constraints further below.
  | Found free-atom valence shell :  2 s   2.000
  | Found free-atom valence shell :  2 p   3.000
  | No ionic wave fns used. Skipping ion_occ.
  | No ionic wave fns used. Skipping ion_occ.
  | Found hydrogenic basis function :  2 p   1.800
  | Found hydrogenic basis function :  3 d   6.800
  | Found hydrogenic basis function :  3 s   5.800
  | Found hydrogenic basis function :  4 f  10.800
  | Found hydrogenic basis function :  3 p   5.800
  | Found hydrogenic basis function :  1 s   0.800
  | Found hydrogenic basis function :  5 g  16.000
  | Found hydrogenic basis function :  3 d   4.900
  Species N                   : Missing cutoff potential type.
  Defaulting to exp(1/x)/(1-x)^2 type cutoff potential.
  Species N : No 'logarithmic' tag. Using default grid for free atom:
  | Default logarithmic grid data [bohr] : 0.1000E-03 0.1000E+03 0.1012E+01
  Species N : On-site basis accuracy parameter (for Gram-Schmidt orthonormalisation) not specified.
  Using default value basis_acc =  0.1000000E-03.
  Species N                   : Using default innermost maximum threshold i_radial=  2 for radial functions.
  Species N                   : Default cutoff onset for free atom density etc. : 0.40000000E+01 AA.
  Species N                   : Basic radial grid will be enhanced according to radial_multiplier =   2, to contain    71 grid points.
 
  Reading configuration options for species O                   .
  | Found nuclear charge :   8.0000
  | Found atomic mass :    15.9994000000000      amu
  | Found l_max for Hartree potential  :   6
  | Found cutoff potl. onset [A], width [A], scale factor :    4.00000    2.00000    1.00000
  | Threshold for basis-dependent cutoff potential is   0.100000E-03
  | Found data for basic radial integration grid :    36 points, outermost radius =    7.000 A
  | Found multiplier for basic radial grid :   2
  | Found angular grid specification: user-specified.
  | Specified grid contains     6 separate shells.
  | Check grid settings after all constraints further below.
  | Found free-atom valence shell :  2 s   2.000
  | Found free-atom valence shell :  2 p   4.000
  | No ionic wave fns used. Skipping ion_occ.
  | No ionic wave fns used. Skipping ion_occ.
  | Found hydrogenic basis function :  2 p   1.800
  | Found hydrogenic basis function :  3 d   7.600
  | Found hydrogenic basis function :  3 s   6.400
  | Found hydrogenic basis function :  4 f  11.600
  | Found hydrogenic basis function :  3 p   6.200
  | Found hydrogenic basis function :  3 d   5.600
  | Found hydrogenic basis function :  5 g  17.600
  | Found hydrogenic basis function :  1 s   0.750
  Species O                   : Missing cutoff potential type.
  Defaulting to exp(1/x)/(1-x)^2 type cutoff potential.
  Species O : No 'logarithmic' tag. Using default grid for free atom:
  | Default logarithmic grid data [bohr] : 0.1000E-03 0.1000E+03 0.1012E+01
  Species O : On-site basis accuracy parameter (for Gram-Schmidt orthonormalisation) not specified.
  Using default value basis_acc =  0.1000000E-03.
  Species O                   : Using default innermost maximum threshold i_radial=  2 for radial functions.
  Species O                   : Default cutoff onset for free atom density etc. : 0.40000000E+01 AA.
  Species O                   : Basic radial grid will be enhanced according to radial_multiplier =   2, to contain    73 grid points.
 
  Finished reading input file 'control.in'. Consistency checks are next.
 
  Target number of points in a grid batch is not set. Defaulting to  100
  Method for grid partitioning is not set. Defaulting to parallel hash+maxmin partitioning.
  Batch size limit is not set. Defaulting to    200
  By default, will store active basis functions for each batch.
  If in need of memory, prune_basis_once .false. can be used to disable this option.
  communication_type for Hartree potential was not specified.
  Defaulting to calc_hartree .
  Pulay mixer: Number of initial linear mixing iterations not set.
  Defaulting to    0 iterations.
  Work space size for distributed Hartree potential not set.
  Defaulting to   0.200000E+03 MB.
  Algorithm-dependent basis array size parameters:
  | n_max_pulay                         :       10
  Geometry relaxation not requested: no relaxation will be performed.
  Handling of forces: Unphysical translation and rotation will be removed from forces.
  No accuracy limit for integral partition fn. given. Defaulting to  0.1000E-14.
  No threshold value for u(r) in integrations given. Defaulting to  0.1000E-05.
  No accuracy for occupation numbers given. Defaulting to  0.1000E-07.
  No threshold value for occupation numbers given. Defaulting to  0.0000E+00.
  No accuracy for fermi level given. Defaulting to  0.1000E-19.
  Maximum # of iterations to find E_F not set. Defaulting to  200.
  Preferred method for the eigenvalue solver ('KS_method') not specified in 'control.in'.
  Calling blacs routine to test compilation state
  Since scalapack support is enabled, defaulting to 'elpa'.
  Preferred method for the MBD eigenvalue solver ('mbd_eigensolver') not specified in 'control.in'.
  Calling blacs routine to test compilation state
  Since scalapack support is enabled, defaulting to 'scaLAPACK'.
  Will not use alltoall communication since running on < 1024 CPUs.
  Threshold for basis singularities not set.
  Default threshold for basis singularities:  0.1000E-04
  partition_type (choice of integration weights) for integrals was not specified.
  | Using a version of the partition function of Stratmann and coworkers ('stratmann_smoother').
  | At each grid point, the set of atoms used to build the partition table is smoothly restricted to
  | only those atoms whose free-atom density would be non-zero at that grid point.
  Partitioning for Hartree potential was not defined. Using partition_type for integrals.
  | Adjusted default value of keyword multip_moments_threshold to:       0.10000000E-11
  | This value may affect high angular momentum components of the Hartree potential in periodic systems.
  No q(lm)/r^(l+1) cutoff set for long-range Hartree potential.
  | Using default value of  0.100000E-09 .
  | Verify using the multipole_threshold keyword.
  Defaulting to new monopole extrapolation.
  Density update method: automatic selection selected.
------------------------------------------------------------


------------------------------------------------------------
          Reading geometry description geometry.in.
------------------------------------------------------------
 * Warning! You did not set the 'relativistic' flag in input file 'control.in'.
 * Since you are not attempting to treat any elements beyond Ca(Z=20), FHI-aims
 * will default to 'relativistic none'.
 * You must ensure that this is really what you want!!
 * For example, DO NOT compute total-energy differences between results from
 * different settings of the 'relativistic' flag.
  Input structure read successfully.
  The structure contains       32 atoms,  and a total of        116.000 electrons.

  Input geometry:
  | No unit cell requested.
  | Atomic structure:
  |       Atom                x [A]            y [A]            z [A]
  |    1: Species C             -1.103331         1.571476        -0.283953
  |    2: Species C             -0.055504         0.979239         0.641273
  |    3: Species O              1.138147         1.232022         0.505335
  |    4: Species H             -1.900480         0.868590        -0.555689
  |    5: Species H             -0.592339         1.909256        -1.189800
  |    6: Species H             -1.568328         2.445419         0.194036
  |    7: Species N             -0.476858         0.178112         1.679654
  |    8: Species C             -1.800848        -0.371268         1.952952
  |    9: Species C             -2.290640        -1.258686         0.774203
  |   10: Species O             -1.519086        -2.039798         0.222807
  |   11: Species H              0.303915        -0.235168         2.179112
  |   12: Species H             -1.637667        -1.106633         2.756200
  |   13: Species C             -2.789587         0.671935         2.493442
  |   14: Species H             -3.094164         1.400859         1.731666
  |   15: Species H             -2.316665         1.226573         3.312762
  |   16: Species H             -3.690159         0.192924         2.903997
  |   17: Species N             -3.597723        -1.123667         0.419182
  |   18: Species C             -4.263239        -1.990434        -0.561490
  |   19: Species C             -4.354163        -3.432894         0.017695
  |   20: Species O             -5.088379        -3.589882         0.996179
  |   21: Species H             -4.194315        -0.554548         1.005652
  |   22: Species H             -5.318749        -1.687753        -0.524394
  |   23: Species C             -3.766011        -1.737641        -1.986989
  |   24: Species H             -4.271211        -2.407199        -2.695105
  |   25: Species H             -2.684766        -1.866227        -2.084936
  |   26: Species H             -4.013029        -0.705722        -2.270192
  |   27: Species N             -3.715137        -4.493716        -0.548678
  |   28: Species C             -2.599784        -4.553402        -1.488273
  |   29: Species H             -3.935215        -5.350937        -0.049250
  |   30: Species H             -2.126918        -5.535870        -1.380912
  |   31: Species H             -1.852709        -3.786912        -1.254041
  |   32: Species H             -2.927601        -4.452082        -2.532516
  |

  | The smallest distance between any two atoms is         1.01181389 AA.
  |
  | The first atom of this pair is atom number                     17 .
  | The second atom of this pair is atom number                    21 .

  Number of empty states per atom not set in control.in - providing a guess from actual geometry.
  | Total number of empty states used during s.c.f. cycle:       71
  If you use a very high smearing, use empty_states (per atom!) in control.in to increase this value.

  Structure-dependent array size parameters: 
  | Maximum number of distinct radial functions  :       40
  | Maximum number of basis functions            :      840
  | Number of Kohn-Sham states (occupied + empty):      129
------------------------------------------------------------

------------------------------------------------------------
          Preparing all fixed parts of the calculation.
------------------------------------------------------------
  Determining machine precision:
    2.225073858507201E-308
  Setting up grids for atomic and cluster calculations.

  Creating wave function, potential, and density for free atoms.

  Species: H

  List of occupied orbitals and eigenvalues:
    n    l              occ      energy [Ha]    energy [eV]
    1    0           1.0000        -0.238382        -6.4867


  Species: C

  List of occupied orbitals and eigenvalues:
    n    l              occ      energy [Ha]    energy [eV]
    1    0           2.0000       -10.041232      -273.2358
    2    0           2.0000        -0.504327       -13.7234
    2    1           2.0000        -0.193750        -5.2722


  Species: N

  List of occupied orbitals and eigenvalues:
    n    l              occ      energy [Ha]    energy [eV]
    1    0           2.0000       -14.129007      -384.4699
    2    0           2.0000        -0.681802       -18.5528
    2    1           3.0000        -0.260543        -7.0897


  Species: O

  List of occupied orbitals and eigenvalues:
    n    l              occ      energy [Ha]    energy [eV]
    1    0           2.0000       -18.898576      -514.2564
    2    0           2.0000        -0.878795       -23.9132
    2    1           4.0000        -0.332075        -9.0362

  Creating fixed part of basis set: Ionic, confined, hydrogenic.
 
  H                    hydrogenic:
 
  List of hydrogenic basis orbitals: 
    n    l      effective z      eigenvalue [eV]  inner max. [A]     outer max. [A]     outer radius [A]   
    2    0         2.100000       -14.9965           0.193243           1.317208           5.373006
    2    1         3.500000       -41.6672           0.602369           0.602369           4.056063
    1    0         0.850000        -9.8292           0.624871           0.624871           5.373006
    2    1         3.700000       -46.5653           0.573622           0.573622           3.910002
    2    0         1.200000        -4.5995           0.334980           2.228188           5.505995
    3    2         7.000000       -74.0753           0.680699           0.680699           3.769201
 
 
  C                    hydrogenic:
 
  List of hydrogenic basis orbitals: 
    n    l      effective z      eigenvalue [eV]  inner max. [A]     outer max. [A]     outer radius [A]   
    2    1         1.700000        -9.8152           1.245706           1.245706           5.401630
    3    2         6.000000       -54.4226           0.792453           0.792453           4.178599
    2    0         4.900000       -81.6681           0.082559           0.562749           3.353238
    4    3         9.800000       -81.6681           0.863254           0.863254           4.028125
    3    1         5.200000       -40.8774           0.305389           1.215618           4.898362
    3    0         4.300000       -27.9508           0.091041           1.610311           5.401630
    5    4        14.400000      -112.8510           0.917666           0.917666           3.883070
    3    2         6.200000       -58.1113           0.763917           0.763917           4.077671
 
 
  N                    hydrogenic:
 
  List of hydrogenic basis orbitals: 
    n    l      effective z      eigenvalue [eV]  inner max. [A]     outer max. [A]     outer radius [A]   
    2    1         1.800000       -11.0118           1.177451           1.177451           5.427479
    3    2         6.800000       -69.9029           0.704619           0.704619           3.854246
    3    0         5.800000       -50.8549           0.067388           1.191934           4.629968
    4    3        10.800000       -99.1854           0.786571           0.786571           3.761152
    3    1         5.800000       -50.8549           0.274880           1.094176           4.518138
    1    0         0.800000        -8.7059           0.662839           0.662839           5.361532
    5    4        16.000000      -139.3222           0.825990           0.825990           3.625711
    3    2         4.900000       -36.2967           0.968267           0.968267           4.862000
 
 
  O                    hydrogenic:
 
  List of hydrogenic basis orbitals: 
    n    l      effective z      eigenvalue [eV]  inner max. [A]     outer max. [A]     outer radius [A]   
    2    1         1.800000       -11.0118           1.178562           1.178562           5.432602
    3    2         7.600000       -87.3182           0.624125           0.624125           3.541477
    3    0         6.400000       -61.9209           0.061167           1.081902           4.306578
    4    3        11.600000      -114.4238           0.731631           0.731631           3.585037
    3    1         6.200000       -58.1113           0.255680           1.030270           4.306578
    3    2         5.600000       -47.4081           0.847233           0.847233           4.413171
    5    4        17.600000      -168.5799           0.749740           0.749740           3.372465
    1    0         0.750000        -7.6499           0.705284           0.705284           5.366593
 

  Adding cutoff potential to free-atom effective potential.
  Creating atomic-like basis functions for current effective potential.

  Species H                   :

  List of atomic basis orbitals and eigenvalues:
    n    l      energy [Ha]    energy [eV]    outer radius [A]
    1    0        -0.238382        -6.4867       5.373006


  Species C                   :

  List of atomic basis orbitals and eigenvalues:
    n    l      energy [Ha]    energy [eV]    outer radius [A]
    1    0       -10.041232      -273.2358       1.934409
    2    0        -0.504327       -13.7234       5.271162
    2    1        -0.193750        -5.2722       5.401630


  Species N                   :

  List of atomic basis orbitals and eigenvalues:
    n    l      energy [Ha]    energy [eV]    outer radius [A]
    1    0       -14.129007      -384.4699       1.637919
    2    0        -0.681802       -18.5528       5.168461
    2    1        -0.260543        -7.0897       5.361532


  Species O                   :

  List of atomic basis orbitals and eigenvalues:
    n    l      energy [Ha]    energy [eV]    outer radius [A]
    1    0       -18.898576      -514.2564       1.415765
    2    0        -0.878795       -23.9132       5.048385
    2    1        -0.332075        -9.0362       5.301386

  Assembling full basis from fixed parts.
  | Species H :   atomic orbital   1 s accepted.
  | Species H :    hydro orbital   2 s accepted.
  | Species H :    hydro orbital   1 s accepted.
  | Species H :    hydro orbital   2 s accepted.
  | Species H :    hydro orbital   2 p accepted.
  | Species H :    hydro orbital   2 p accepted.
  | Species H :    hydro orbital   3 d accepted.
  | Species C :   atomic orbital   1 s accepted.
  | Species C :    hydro orbital   2 s accepted.
  | Species C :   atomic orbital   2 s accepted.
  | Species C :    hydro orbital   3 s accepted.
  | Species C :    hydro orbital   3 p accepted.
  | Species C :   atomic orbital   2 p accepted.
  | Species C :    hydro orbital   2 p accepted.
  | Species C :    hydro orbital   3 d accepted.
  | Species C :    hydro orbital   3 d accepted.
  | Species C :    hydro orbital   4 f accepted.
  | Species C :    hydro orbital   5 g accepted.
  | Species N :   atomic orbital   1 s accepted.
  | Species N :    hydro orbital   3 s accepted.
  | Species N :   atomic orbital   2 s accepted.
  | Species N :    hydro orbital   1 s accepted.
  | Species N :    hydro orbital   3 p accepted.
  | Species N :   atomic orbital   2 p accepted.
  | Species N :    hydro orbital   2 p accepted.
  | Species N :    hydro orbital   3 d accepted.
  | Species N :    hydro orbital   3 d accepted.
  | Species N :    hydro orbital   4 f accepted.
  | Species N :    hydro orbital   5 g accepted.
  | Species O :   atomic orbital   1 s accepted.
  | Species O :    hydro orbital   3 s accepted.
  | Species O :   atomic orbital   2 s accepted.
  | Species O :    hydro orbital   1 s accepted.
  | Species O :    hydro orbital   3 p accepted.
  | Species O :   atomic orbital   2 p accepted.
  | Species O :    hydro orbital   2 p accepted.
  | Species O :    hydro orbital   3 d accepted.
  | Species O :    hydro orbital   3 d accepted.
  | Species O :    hydro orbital   4 f accepted.
  | Species O :    hydro orbital   5 g accepted.
 
  Basis size parameters after reduction:
  | Total number of radial functions:       40
  | Total number of basis functions :      840
 
  Testing on-site integration grid accuracy.
  |  Species  Function  <phi|h_atom|phi> (log., in eV)  <phi|h_atom|phi> (rad., in eV)
           1        1                 -6.4869821809                 -6.4870742227
           1        2                 13.5044133542                 13.5041049177
           1        3                 32.7854418792                 32.7779770519
           1        4                 33.7995553101                 33.7152624900 ***
           1        5                 28.8558651799                 28.8558652046
           1        6                 59.6361831893                 59.6362535845
           1        7                 60.2733718049                 60.2733715484
           2        8               -273.2358277112               -273.2358261765
           2        9                -10.7624923123                -10.7625144012
           2       10                 17.4634079027                 17.4634252127
           2       11                 53.0363661832                 53.0366180446
           2       12                 15.0981351967                 15.0981317714
           2       13                  3.8522181899                  3.8522770949
           2       14                 12.1181835661                 12.1206868578
           2       15                 29.4320778347                 29.4320780959
           2       16                 54.8753777694                 54.8752901936
           2       17                 59.3533975461                 59.3533974833
           2       18                 93.4537491195                 93.4537492066
           3       19               -384.4698526889               -384.4698499465
           3       20                 12.5691022037                 12.5690910168
           3       21                -15.7489097511                -15.7489165588
           3       22                 27.0978334940                 27.0985589490
           3       23                 18.5949116966                 18.5949125562
           3       24                  1.2212828291                  1.2212855301
           3       25                 13.4428926797                 13.4434051125
           3       26                 35.9380614500                 35.9380613666
           3       27                 39.9231532098                 39.9231654735
           3       28                 72.9957335806                 72.9957336833
           3       29                116.4231321147                116.4231321431
           4       30               -514.2564144315               -514.2564099626
           4       31                 15.1726678541                 15.1726530877
           4       32                -21.5447785304                -21.5447874973
           4       33                 14.4944558459                 14.4944698284
           4       34                 20.8882174564                 20.8882178906
           4       35                 -2.4850315908                 -2.4850322289
           4       36                 13.8600193195                 13.8599826966
           4       37                 45.8243383616                 45.8243383675
           4       38                 52.1840606465                 52.1840622440
           4       39                 85.4074185510                 85.4074185819
           4       40                142.0983717302                142.0983717339
 * Note: Onsite integrals marked "***" above are less accurate than
 * onsite_accuracy_threshold =    0.03000 eV. Usually, this is harmless.
 * When in doubt, tighten the "radial" and/or "radial_multiplier" flags to check.

  Preparing densities etc. for the partition functions (integrals / Hartree potential).

  Preparations completed.
  max(cpu_time)          :      0.240 s.
  Wall clock time (cpu1) :      0.237 s.
------------------------------------------------------------

------------------------------------------------------------
          Begin self-consistency loop: Initialization.

          Date     :  20170309, Time     :  185641.803
------------------------------------------------------------

  Initializing index lists of integration centers etc. from given atomic structure:
  | Number of centers in hartree potential         :        32
  | Number of centers in hartree multipole         :        32
  | Number of centers in electron density summation:        32
  | Number of centers in basis integrals           :        32
  | Number of centers in integrals                 :        32
  | Number of centers in hamiltonian               :        32
  Using modified Scalapack Eigenvalue solver (ELPA)
  * Using 32 tasks for Scalapack Eigenvalue solver.
  Detailed listing of tasks and assigned k-points:
  (for non-periodic systems, the "k-point" denotes an internal label only)
   Task     0 k-point     1 on eos026
   Task     1 k-point     1 on eos026
   Task     2 k-point     1 on eos026
   Task     3 k-point     1 on eos026
   Task     4 k-point     1 on eos026
   Task     5 k-point     1 on eos026
   Task     6 k-point     1 on eos026
   Task     7 k-point     1 on eos026
   Task     8 k-point     1 on eos026
   Task     9 k-point     1 on eos026
   Task    10 k-point     1 on eos026
   Task    11 k-point     1 on eos026
   Task    12 k-point     1 on eos026
   Task    13 k-point     1 on eos026
   Task    14 k-point     1 on eos026
   Task    15 k-point     1 on eos026
   Task    16 k-point     1 on eos026
   Task    17 k-point     1 on eos026
   Task    18 k-point     1 on eos026
   Task    19 k-point     1 on eos026
   Task    20 k-point     1 on eos026
   Task    21 k-point     1 on eos026
   Task    22 k-point     1 on eos026
   Task    23 k-point     1 on eos026
   Task    24 k-point     1 on eos026
   Task    25 k-point     1 on eos026
   Task    26 k-point     1 on eos026
   Task    27 k-point     1 on eos026
   Task    28 k-point     1 on eos026
   Task    29 k-point     1 on eos026
   Task    30 k-point     1 on eos026
   Task    31 k-point     1 on eos026
  Tasks:    32 split into      8 X      4 BLACS grid
  Calculating blocksize based on n_basis =          840 max_nprow =            8 max_npcol =            4
  Scalapack blocksize set to:           16
  Required Scalapack workspace - INTEGER:            1 REAL:             1
  Partitioning the integration grid into batches with parallel hashing+maxmin method.
  | Number of batches:     4886
  | Maximal batch size:     189
  | Minimal batch size:      16
  | Average batch size:     108.008
  | Standard deviation of batch sizes:      30.120

  Integration load balanced across    32 MPI tasks.
  Work distribution over tasks is as follows:
  Task     0 has      16475 integration points.
  Task     1 has      16440 integration points.
  Task     2 has      16479 integration points.
  Task     3 has      16520 integration points.
  Task     4 has      16530 integration points.
  Task     5 has      16522 integration points.
  Task     6 has      16492 integration points.
  Task     7 has      16439 integration points.
  Task     8 has      16470 integration points.
  Task     9 has      16547 integration points.
  Task    10 has      16480 integration points.
  Task    11 has      16477 integration points.
  Task    12 has      16496 integration points.
  Task    13 has      16581 integration points.
  Task    14 has      16442 integration points.
  Task    15 has      16492 integration points.
  Task    16 has      16504 integration points.
  Task    17 has      16488 integration points.
  Task    18 has      16427 integration points.
  Task    19 has      16533 integration points.
  Task    20 has      16524 integration points.
  Task    21 has      16490 integration points.
  Task    22 has      16476 integration points.
  Task    23 has      16427 integration points.
  Task    24 has      16419 integration points.
  Task    25 has      16542 integration points.
  Task    26 has      16541 integration points.
  Task    27 has      16539 integration points.
  Task    28 has      16480 integration points.
  Task    29 has      16527 integration points.
  Task    30 has      16422 integration points.
  Task    31 has      16507 integration points.
  Initializing partition tables, free-atom densities, potentials, etc. across the integration grid (initialize_grid_storage).
  | initialize_grid_storage: Actual outermost partition radius vs. multipole_radius_free
  | (-- VB: in principle, multipole_radius_free should be larger, hence this output)
  | Species        1: Confinement radius =              6.000000000000000 AA, multipole_radius_free =              6.071692442739658 AA.
  | Species        1: outer_partition_radius set to              6.071692442739658 AA .
  | Species        2: Confinement radius =              6.000000000000000 AA, multipole_radius_free =              6.029870734432609 AA.
  | Species        2: outer_partition_radius set to              6.029870734432609 AA .
  | Species        3: Confinement radius =              6.000000000000000 AA, multipole_radius_free =              6.058726835495003 AA.
  | Species        3: outer_partition_radius set to              6.058726835495003 AA .
  | Species        4: Confinement radius =              6.000000000000000 AA, multipole_radius_free =              6.064445521808699 AA.
  | Species        4: outer_partition_radius set to              6.064445521808699 AA .
  | Original list of interatomic distances with          32 x         32 entries is created.
  | Net number of integration points:   527728
  | of which are non-zero points    :   414468
  Obtaining max. number of non-zero basis functions in each batch (get_n_compute_maxes).
  | Maximal number of non-zero basis functions:      774 in task     0
  | Maximal number of non-zero basis functions:      773 in task     1
  | Maximal number of non-zero basis functions:      796 in task     2
  | Maximal number of non-zero basis functions:      791 in task     3
  | Maximal number of non-zero basis functions:      784 in task     4
  | Maximal number of non-zero basis functions:      779 in task     5
  | Maximal number of non-zero basis functions:      791 in task     6
  | Maximal number of non-zero basis functions:      771 in task     7
  | Maximal number of non-zero basis functions:      766 in task     8
  | Maximal number of non-zero basis functions:      781 in task     9
  | Maximal number of non-zero basis functions:      785 in task    10
  | Maximal number of non-zero basis functions:      771 in task    11
  | Maximal number of non-zero basis functions:      792 in task    12
  | Maximal number of non-zero basis functions:      784 in task    13
  | Maximal number of non-zero basis functions:      784 in task    14
  | Maximal number of non-zero basis functions:      793 in task    15
  | Maximal number of non-zero basis functions:      775 in task    16
  | Maximal number of non-zero basis functions:      788 in task    17
  | Maximal number of non-zero basis functions:      786 in task    18
  | Maximal number of non-zero basis functions:      788 in task    19
  | Maximal number of non-zero basis functions:      791 in task    20
  | Maximal number of non-zero basis functions:      767 in task    21
  | Maximal number of non-zero basis functions:      777 in task    22
  | Maximal number of non-zero basis functions:      771 in task    23
  | Maximal number of non-zero basis functions:      786 in task    24
  | Maximal number of non-zero basis functions:      779 in task    25
  | Maximal number of non-zero basis functions:      791 in task    26
  | Maximal number of non-zero basis functions:      779 in task    27
  | Maximal number of non-zero basis functions:      772 in task    28
  | Maximal number of non-zero basis functions:      778 in task    29
  | Maximal number of non-zero basis functions:      772 in task    30
  | Maximal number of non-zero basis functions:      796 in task    31
  Selecting the method for density update.
  Loop over occupied states selected for charge density update.
  Integrating Hamiltonian matrix: batch-based integration.
  Time summed over all CPUs for integration: real work       21.762 s, elapsed       22.436 s
  Integrating overlap matrix.
  Time summed over all CPUs for integration: real work       13.014 s, elapsed       13.474 s
  Deallocating overlap matrix.

  Updating Kohn-Sham eigenvalues, eigenvectors, occupation numbers, and Fermi level.
  Solving generalized eigenproblem
  Solving real symmetric generalised eigenvalue problem by standard ScaLAPACK.
  Transforming overlap matrix with ScaLAPACK and checking for singularities.
  : Overlap matrix is nonsingular, using Cholesky decomposition
  | Lowest eigenvalue:  0.845526E-04
  Factoring overlap matrix with Cholesky decomposition
  Using Cholesky factor for transformation
  Using 1-stage real ELPA solver
  Determining occupation numbers for Kohn-Sham eigenstates.
  | Chemical potential (Fermi level) in eV                 : -.95492760E+01
  | Error in electron count due to remaining E_F inaccuracy: 0.00000000E+00
  | Maximum occupation number of highest empty state:  0.00E+00

  Writing Kohn-Sham eigenvalues.

  State    Occupation    Eigenvalue [Ha]    Eigenvalue [eV]
      1       2.00000         -18.974789         -516.33027
      2       2.00000         -18.974304         -516.31707
      3       2.00000         -18.973003         -516.28168
      4       2.00000         -14.255237         -387.90475
      5       2.00000         -14.254473         -387.88396
      6       2.00000         -14.252641         -387.83410
      7       2.00000         -10.171281         -276.77463
      8       2.00000         -10.171063         -276.76870
      9       2.00000         -10.170649         -276.75744
     10       2.00000         -10.166521         -276.64511
     11       2.00000         -10.147121         -276.11720
     12       2.00000         -10.146850         -276.10983
     13       2.00000         -10.135441         -275.79938
     14       2.00000         -10.134138         -275.76394
     15       2.00000         -10.132868         -275.72936
     16       2.00000          -1.134841          -30.88059
     17       2.00000          -1.131630          -30.79321
     18       2.00000          -1.128214          -30.70026
     19       2.00000          -1.015599          -27.63585
     20       2.00000          -1.009785          -27.47765
     21       2.00000          -1.008320          -27.43778
     22       2.00000          -0.887802          -24.15831
     23       2.00000          -0.865859          -23.56123
     24       2.00000          -0.848115          -23.07837
     25       2.00000          -0.818307          -22.26726
     26       2.00000          -0.781386          -21.26259
     27       2.00000          -0.762592          -20.75118
     28       2.00000          -0.706981          -19.23794
     29       2.00000          -0.680297          -18.51182
     30       2.00000          -0.666276          -18.13031
     31       2.00000          -0.644742          -17.54432
     32       2.00000          -0.618195          -16.82193
     33       2.00000          -0.615261          -16.74212
     34       2.00000          -0.601633          -16.37128
     35       2.00000          -0.594054          -16.16504
     36       2.00000          -0.588906          -16.02494
     37       2.00000          -0.568167          -15.46061
     38       2.00000          -0.558913          -15.20879
     39       2.00000          -0.556457          -15.14196
     40       2.00000          -0.554995          -15.10217
     41       2.00000          -0.546755          -14.87796
     42       2.00000          -0.535670          -14.57633
     43       2.00000          -0.533346          -14.51307
     44       2.00000          -0.527182          -14.34535
     45       2.00000          -0.522964          -14.23058
     46       2.00000          -0.520261          -14.15702
     47       2.00000          -0.518709          -14.11479
     48       2.00000          -0.503039          -13.68839
     49       2.00000          -0.493076          -13.41727
     50       2.00000          -0.482703          -13.13503
     51       2.00000          -0.472854          -12.86703
     52       2.00000          -0.471462          -12.82914
     53       2.00000          -0.410082          -11.15890
     54       2.00000          -0.404663          -11.01144
     55       2.00000          -0.401912          -10.93659
     56       2.00000          -0.387294          -10.53882
     57       2.00000          -0.384612          -10.46581
     58       2.00000          -0.382018          -10.39524
     59       0.00000          -0.168465           -4.58417
     60       0.00000          -0.161911           -4.40581
     61       0.00000          -0.154854           -4.21380
     62       0.00000          -0.082124           -2.23472
     63       0.00000          -0.065812           -1.79085
     64       0.00000          -0.058662           -1.59629
     65       0.00000          -0.057284           -1.55878
     66       0.00000          -0.047963           -1.30513
     67       0.00000          -0.044597           -1.21354
     68       0.00000          -0.033656           -0.91582
     69       0.00000          -0.031511           -0.85745
     70       0.00000          -0.023762           -0.64660
     71       0.00000          -0.021642           -0.58892
     72       0.00000          -0.015554           -0.42324
     73       0.00000          -0.014439           -0.39291
     74       0.00000          -0.011087           -0.30169
     75       0.00000          -0.004668           -0.12702
     76       0.00000          -0.002149           -0.05847
     77       0.00000           0.005579            0.15180
     78       0.00000           0.009866            0.26846
     79       0.00000           0.016642            0.45285
     80       0.00000           0.017749            0.48299
     81       0.00000           0.024387            0.66361
     82       0.00000           0.029592            0.80523
     83       0.00000           0.036072            0.98156
     84       0.00000           0.036945            1.00532
     85       0.00000           0.045651            1.24223
     86       0.00000           0.051216            1.39365
     87       0.00000           0.056456            1.53625
     88       0.00000           0.060710            1.65201
     89       0.00000           0.065108            1.77169
     90       0.00000           0.067064            1.82490
     91       0.00000           0.078993            2.14950
     92       0.00000           0.089253            2.42871
     93       0.00000           0.090801            2.47083
     94       0.00000           0.095453            2.59742
     95       0.00000           0.097389            2.65009
     96       0.00000           0.101131            2.75190
     97       0.00000           0.111846            3.04347
     98       0.00000           0.115511            3.14320
     99       0.00000           0.120996            3.29247
    100       0.00000           0.125044            3.40263
    101       0.00000           0.129252            3.51712
    102       0.00000           0.134074            3.64835
    103       0.00000           0.136433            3.71254
    104       0.00000           0.139211            3.78812
    105       0.00000           0.145694            3.96453
    106       0.00000           0.150567            4.09713
    107       0.00000           0.155684            4.23638
    108       0.00000           0.159224            4.33270
    109       0.00000           0.169976            4.62528
    110       0.00000           0.172945            4.70607
    111       0.00000           0.175041            4.76312
    112       0.00000           0.178225            4.84974
    113       0.00000           0.180078            4.90016
    114       0.00000           0.187672            5.10682
    115       0.00000           0.191492            5.21076
    116       0.00000           0.196015            5.33384
    117       0.00000           0.205262            5.58547
    118       0.00000           0.208719            5.67954
    119       0.00000           0.212653            5.78659
    120       0.00000           0.219528            5.97367
    121       0.00000           0.220858            6.00984
    122       0.00000           0.225263            6.12973
    123       0.00000           0.235178            6.39951
    124       0.00000           0.240405            6.54174
    125       0.00000           0.244788            6.66101
    126       0.00000           0.247842            6.74412
    127       0.00000           0.256344            6.97549
    128       0.00000           0.257242            6.99990
    129       0.00000           0.269607            7.33639

  Highest occupied state (VBM) at    -10.39523511 eV
  | Occupation number:      2.00000000

  Lowest unoccupied state (CBM) at    -4.58417351 eV
  | Occupation number:      0.00000000

  Overall HOMO-LUMO gap:      5.81106160 eV.
  Calculating total energy contributions from superposition of free atom densities.

  Total energy components:
  | Sum of eigenvalues            :        -437.81261393 Ha      -11913.48737673 eV
  | XC energy correction          :         -98.81402497 Ha       -2688.86642735 eV
  | XC potential correction       :         127.01353020 Ha        3456.21400699 eV
  | Free-atom electrostatic energy:        -333.66019285 Ha       -9079.35579997 eV
  | Hartree energy correction     :           0.00000000 Ha           0.00000000 eV
  | MBD@rsSCS energy              :           0.00000000 Ha           0.00000000 eV
  | Entropy correction            :          -0.00000000 Ha          -0.00000000 eV
  | ---------------------------
  | Total energy                  :        -743.27330155 Ha      -20225.49559705 eV
  | Total energy, T -> 0          :        -743.27330155 Ha      -20225.49559705 eV  <-- do not rely on this value for anything but (periodic) metals
  | Electronic free energy        :        -743.27330155 Ha      -20225.49559705 eV

  Derived energy quantities:
  | Kinetic energy                :         735.14690552 Ha       20004.36511010 eV
  | Electrostatic energy          :       -1379.60618210 Ha      -37540.99427980 eV
  | Energy correction for multipole
  | error in Hartree potential    :           0.00000000 Ha           0.00000000 eV
  | Sum of eigenvalues per atom                           :        -372.29648052 eV
  | Total energy (T->0) per atom                          :        -632.04673741 eV  <-- do not rely on this value for anything but (periodic) metals
  | Electronic free energy per atom                       :        -632.04673741 eV
  Initialize hartree_potential_storage
  Max. number of atoms included in rho_multipole:           32

  End scf initialization - timings             :  max(cpu_time)    wall_clock(cpu1)
  | Time for scf. initialization               :        1.904 s           1.905 s
  | Boundary condition initialization          :        0.000 s           0.000 s
  | Integration                                :        1.144 s           1.144 s
  | Solution of K.-S. eqns.                    :        0.076 s           0.075 s
  | Grid partitioning                          :        0.344 s           0.334 s
  | Preloading free-atom quantities on grid    :        0.028 s           0.028 s
  | Free-atom superposition energy             :        0.040 s           0.039 s
  | Total energy evaluation                    :        0.004 s           0.001 s
------------------------------------------------------------

------------------------------------------------------------
          Begin self-consistency iteration #    1

  Date     :  20170309, Time     :  185643.708
------------------------------------------------------------
  Evaluating new KS density.
  Integration grid: deviation in total charge (<rho> - N_e) =   7.105427E-14
  Pulay mixing of updated and previous charge densities.

  Evaluating partitioned Hartree potential by multipole expansion.
  | Analytical far-field extrapolation by fixed multipoles:
  | Hartree multipole sum: apparent total charge =  -0.517999E-05
  Summing up the Hartree potential.
  Time summed over all CPUs for potential: real work        9.581 s, elapsed        9.805 s
  | RMS charge density error from multipole expansion :   0.106088E-01

  Integrating Hamiltonian matrix: batch-based integration.
  Time summed over all CPUs for integration: real work       21.409 s, elapsed       22.270 s

  Updating Kohn-Sham eigenvalues, eigenvectors, occupation numbers, and Fermi level.
  Solving generalized eigenproblem
  Solving real symmetric generalised eigenvalue problem by standard ScaLAPACK.
  Using Cholesky factor for transformation
  Using 2-stage real ELPA solver
  K-Point:    1, Trafo times: 1-stage=     0.021 s, 2-stage=     0.019 s ==> Using 2-stage solver
  Determining occupation numbers for Kohn-Sham eigenstates.
  | Chemical potential (Fermi level) in eV                 : -.25803970E+01
  | Error in electron count due to remaining E_F inaccuracy: 0.00000000E+00
  | Maximum occupation number of highest empty state:  0.00E+00

  Writing Kohn-Sham eigenvalues.

  State    Occupation    Eigenvalue [Ha]    Eigenvalue [eV]
      1       2.00000         -18.626690         -506.85801
      2       2.00000         -18.610085         -506.40618
      3       2.00000         -18.599653         -506.12232
      4       2.00000         -14.003983         -381.06778
      5       2.00000         -13.978197         -380.36608
      6       2.00000         -13.977729         -380.35337
      7       2.00000         -10.063658         -273.84607
      8       2.00000         -10.052020         -273.52938
      9       2.00000         -10.041263         -273.23668
     10       2.00000          -9.973831         -271.40174
     11       2.00000          -9.964865         -271.15778
     12       2.00000          -9.882743         -268.92312
     13       2.00000          -9.852516         -268.10059
     14       2.00000          -9.842780         -267.83567
     15       2.00000          -9.835860         -267.64738
     16       2.00000          -0.972734          -26.46943
     17       2.00000          -0.956037          -26.01510
     18       2.00000          -0.945899          -25.73921
     19       2.00000          -0.874819          -23.80504
     20       2.00000          -0.855948          -23.29153
     21       2.00000          -0.848945          -23.10097
     22       2.00000          -0.746563          -20.31500
     23       2.00000          -0.715200          -19.46159
     24       2.00000          -0.692231          -18.83656
     25       2.00000          -0.666081          -18.12499
     26       2.00000          -0.641314          -17.45105
     27       2.00000          -0.624588          -16.99589
     28       2.00000          -0.583200          -15.86969
     29       2.00000          -0.551756          -15.01404
     30       2.00000          -0.540480          -14.70722
     31       2.00000          -0.513479          -13.97247
     32       2.00000          -0.488242          -13.28573
     33       2.00000          -0.467130          -12.71124
     34       2.00000          -0.456548          -12.42329
     35       2.00000          -0.444643          -12.09936
     36       2.00000          -0.439496          -11.95929
     37       2.00000          -0.424573          -11.55323
     38       2.00000          -0.422654          -11.50100
     39       2.00000          -0.412303          -11.21933
     40       2.00000          -0.398720          -10.84972
     41       2.00000          -0.393875          -10.71789
     42       2.00000          -0.389558          -10.60041
     43       2.00000          -0.386932          -10.52895
     44       2.00000          -0.385089          -10.47881
     45       2.00000          -0.373723          -10.16951
     46       2.00000          -0.365859           -9.95552
     47       2.00000          -0.360965           -9.82236
     48       2.00000          -0.356863           -9.71075
     49       2.00000          -0.348974           -9.49605
     50       2.00000          -0.337880           -9.19417
     51       2.00000          -0.336512           -9.15696
     52       2.00000          -0.331937           -9.03247
     53       2.00000          -0.249076           -6.77771
     54       2.00000          -0.226945           -6.17549
     55       2.00000          -0.224364           -6.10527
     56       2.00000          -0.217099           -5.90758
     57       2.00000          -0.208378           -5.67025
     58       2.00000          -0.198577           -5.40354
     59       0.00000          -0.062011           -1.68739
     60       0.00000          -0.049529           -1.34777
     61       0.00000          -0.038718           -1.05358
     62       0.00000          -0.034561           -0.94044
     63       0.00000          -0.019409           -0.52815
     64       0.00000          -0.014395           -0.39172
     65       0.00000          -0.009620           -0.26178
     66       0.00000          -0.001897           -0.05162
     67       0.00000           0.005180            0.14095
     68       0.00000           0.017541            0.47732
     69       0.00000           0.021625            0.58845
     70       0.00000           0.026173            0.71220
     71       0.00000           0.033126            0.90140
     72       0.00000           0.038479            1.04708
     73       0.00000           0.042948            1.16867
     74       0.00000           0.046568            1.26718
     75       0.00000           0.055945            1.52233
     76       0.00000           0.062552            1.70213
     77       0.00000           0.066438            1.80787
     78       0.00000           0.079056            2.15121
     79       0.00000           0.086349            2.34968
     80       0.00000           0.088787            2.41602
     81       0.00000           0.090135            2.45269
     82       0.00000           0.098840            2.68958
     83       0.00000           0.101074            2.75036
     84       0.00000           0.106630            2.90155
     85       0.00000           0.114586            3.11805
     86       0.00000           0.117673            3.20204
     87       0.00000           0.124004            3.37431
     88       0.00000           0.129720            3.52986
     89       0.00000           0.133783            3.64042
     90       0.00000           0.143094            3.89378
     91       0.00000           0.146896            3.99723
     92       0.00000           0.150656            4.09956
     93       0.00000           0.154213            4.19634
     94       0.00000           0.160378            4.36412
     95       0.00000           0.167235            4.55071
     96       0.00000           0.168695            4.59041
     97       0.00000           0.177644            4.83395
     98       0.00000           0.181721            4.94488
     99       0.00000           0.182903            4.97704
    100       0.00000           0.190043            5.17133
    101       0.00000           0.192239            5.23109
    102       0.00000           0.196425            5.34501
    103       0.00000           0.199318            5.42372
    104       0.00000           0.201344            5.47886
    105       0.00000           0.205064            5.58006
    106       0.00000           0.207756            5.65332
    107       0.00000           0.214372            5.83336
    108       0.00000           0.220884            6.01056
    109       0.00000           0.227264            6.18417
    110       0.00000           0.232046            6.31430
    111       0.00000           0.238232            6.48261
    112       0.00000           0.241215            6.56379
    113       0.00000           0.244177            6.64438
    114       0.00000           0.248393            6.75912
    115       0.00000           0.259589            7.06378
    116       0.00000           0.262429            7.14106
    117       0.00000           0.267903            7.29001
    118       0.00000           0.271005            7.37441
    119       0.00000           0.279680            7.61047
    120       0.00000           0.284604            7.74448
    121       0.00000           0.291837            7.94129
    122       0.00000           0.295582            8.04321
    123       0.00000           0.298515            8.12302
    124       0.00000           0.303873            8.26880
    125       0.00000           0.311438            8.47467
    126       0.00000           0.316205            8.60437
    127       0.00000           0.322934            8.78748
    128       0.00000           0.327221            8.90414
    129       0.00000           0.340818            9.27413

  Highest occupied state (VBM) at     -5.40354409 eV
  | Occupation number:      2.00000000

  Lowest unoccupied state (CBM) at    -1.68739436 eV
  | Occupation number:      0.00000000

  Overall HOMO-LUMO gap:      3.71614974 eV.

  Total energy components:
  | Sum of eigenvalues            :        -417.36412185 Ha      -11357.05559615 eV
  | XC energy correction          :        -100.74706494 Ha       -2741.46712139 eV
  | XC potential correction       :         129.52027236 Ha        3524.42593161 eV
  | Free-atom electrostatic energy:        -333.66019285 Ha       -9079.35579997 eV
  | Hartree energy correction     :         -20.45156884 Ha        -556.51550340 eV
  | MBD@rsSCS energy              :           0.00000000 Ha           0.00000000 eV
  | Entropy correction            :          -0.00000000 Ha          -0.00000000 eV
  | ---------------------------
  | Total energy                  :        -742.70267613 Ha      -20209.96808929 eV
  | Total energy, T -> 0          :        -742.70267613 Ha      -20209.96808929 eV  <-- do not rely on this value for anything but (periodic) metals
  | Electronic free energy        :        -742.70267613 Ha      -20209.96808929 eV

  Derived energy quantities:
  | Kinetic energy                :         744.02672775 Ha       20245.99736700 eV
  | Electrostatic energy          :       -1385.98233893 Ha      -37714.49833491 eV
  | Energy correction for multipole
  | error in Hartree potential    :          -0.04167133 Ha          -1.13393452 eV
  | Sum of eigenvalues per atom                           :        -354.90798738 eV
  | Total energy (T->0) per atom                          :        -631.56150279 eV  <-- do not rely on this value for anything but (periodic) metals
  | Electronic free energy per atom                       :        -631.56150279 eV

  Self-consistency convergence accuracy:
  | Change of charge density      :  0.9042E+00
  | Change of sum of eigenvalues  :  0.5564E+03 eV
  | Change of total energy        :  0.1553E+02 eV

  End self-consistency iteration #     1       :  max(cpu_time)    wall_clock(cpu1)
  | Time for this iteration                    :        1.548 s           1.547 s
[...]
   Multipole                     :  0.361174E+00 -0.750498E-02 -0.410179E+00
   Pulay + GGA                   :  0.782762E+01  0.134884E+01 -0.104212E+02
   MBD@rsSCS                     :  0.143690E-01  0.139667E-01 -0.890759E-02
   ----------------------------------------------------------------
   Total forces(  20)            :  0.209141E-02  0.107100E-01 -0.283571E-02
  atom #   21
   Hellmann-Feynman              :  0.174829E-01 -0.348296E-01 -0.144509E-01
   Ionic forces                  :  0.000000E+00  0.000000E+00  0.000000E+00
   Multipole                     :  0.471089E-02 -0.114299E-01 -0.168101E-01
   Pulay + GGA                   : -0.301119E-01  0.475429E-01  0.388301E-01
   MBD@rsSCS                     :  0.528817E-02 -0.190461E-02 -0.407677E-02
   ----------------------------------------------------------------
   Total forces(  21)            : -0.262998E-02 -0.621279E-03  0.349226E-02
  atom #   22
   Hellmann-Feynman              :  0.448467E-01 -0.202505E-01  0.187769E-01
   Ionic forces                  :  0.000000E+00  0.000000E+00  0.000000E+00
   Multipole                     :  0.514322E-02 -0.142491E-01 -0.186922E-01
   Pulay + GGA                   : -0.559502E-01  0.368697E-01 -0.555489E-02
   MBD@rsSCS                     :  0.535499E-02 -0.104392E-02 -0.118500E-02
   ----------------------------------------------------------------
   Total forces(  22)            : -0.605267E-03  0.132619E-02 -0.665521E-02
  atom #   23
   Hellmann-Feynman              :  0.611495E+00  0.273199E+00 -0.103036E+01
   Ionic forces                  :  0.000000E+00  0.000000E+00  0.000000E+00
   Multipole                     : -0.191240E+00 -0.966127E-01  0.368269E+00
   Pulay + GGA                   : -0.403714E+00 -0.213507E+00  0.676495E+00
   MBD@rsSCS                     :  0.127754E-01 -0.610109E-02  0.187499E-01
   ----------------------------------------------------------------
   Total forces(  23)            :  0.293165E-01 -0.430217E-01  0.331512E-01
  atom #   24
   Hellmann-Feynman              : -0.471441E-02  0.156274E-01  0.489693E-01
   Ionic forces                  :  0.000000E+00  0.000000E+00  0.000000E+00
   Multipole                     :  0.270609E-01  0.148093E-01 -0.800138E-02
   Pulay + GGA                   : -0.237242E-01 -0.370241E-01 -0.375366E-01
   MBD@rsSCS                     :  0.276763E-02 -0.962158E-02  0.103287E-01
   ----------------------------------------------------------------
   Total forces(  24)            :  0.138993E-02 -0.162089E-01  0.137599E-01
  atom #   25
   Hellmann-Feynman              : -0.209395E-01 -0.359615E-02  0.392380E-01
   Ionic forces                  :  0.000000E+00  0.000000E+00  0.000000E+00
   Multipole                     : -0.228099E-01  0.110435E-02 -0.107057E-01
   Pulay + GGA                   :  0.445596E-01 -0.962987E-02 -0.166479E-01
   MBD@rsSCS                     :  0.399744E-02 -0.710510E-02  0.165888E-01
   ----------------------------------------------------------------
   Total forces(  25)            :  0.480763E-02 -0.192268E-01  0.284733E-01
  atom #   26
   Hellmann-Feynman              : -0.124224E-01 -0.447244E-01  0.407692E-01
   Ionic forces                  :  0.000000E+00  0.000000E+00  0.000000E+00
   Multipole                     :  0.212604E-01 -0.102231E-01 -0.273778E-01
   Pulay + GGA                   : -0.175978E-01  0.563382E-01 -0.169609E-01
   MBD@rsSCS                     :  0.245469E-02 -0.584144E-04  0.117235E-01
   ----------------------------------------------------------------
   Total forces(  26)            : -0.630504E-02  0.133239E-02  0.815397E-02
  atom #   27
   Hellmann-Feynman              : -0.193725E+01 -0.894041E-01 -0.265300E+00
   Ionic forces                  :  0.000000E+00  0.000000E+00  0.000000E+00
   Multipole                     : -0.135212E+00  0.624685E-01  0.129412E+00
   Pulay + GGA                   :  0.206748E+01  0.148152E-01  0.126983E+00
   MBD@rsSCS                     :  0.200582E-02  0.279675E-01  0.863566E-03
   ----------------------------------------------------------------
   Total forces(  27)            : -0.297854E-02  0.158471E-01 -0.804164E-02
  atom #   28
   Hellmann-Feynman              :  0.212217E+01  0.970363E-02 -0.137187E+01
   Ionic forces                  :  0.000000E+00  0.000000E+00  0.000000E+00
   Multipole                     : -0.136127E+00  0.227702E-01  0.118076E+00
   Pulay + GGA                   : -0.199464E+01 -0.116233E-01  0.124652E+01
   MBD@rsSCS                     : -0.296397E-02  0.209063E-01  0.778579E-02
   ----------------------------------------------------------------
   Total forces(  28)            : -0.115639E-01  0.417568E-01  0.509113E-03
  atom #   29
   Hellmann-Feynman              : -0.144179E-01  0.784062E-01  0.152312E-01
   Ionic forces                  :  0.000000E+00  0.000000E+00  0.000000E+00
   Multipole                     :  0.239772E-01 -0.232944E-01 -0.337705E-01
   Pulay + GGA                   : -0.871155E-02 -0.641936E-01  0.211087E-01
   MBD@rsSCS                     :  0.303783E-02  0.592000E-02 -0.413034E-02
   ----------------------------------------------------------------
   Total forces(  29)            :  0.388561E-02 -0.316185E-02 -0.156095E-02
  atom #   30
   Hellmann-Feynman              : -0.414111E-01  0.369935E-01  0.193263E-01
   Ionic forces                  :  0.000000E+00  0.000000E+00  0.000000E+00
   Multipole                     :  0.216433E-01  0.187412E-01 -0.279458E-01
   Pulay + GGA                   :  0.206950E-01 -0.633644E-01  0.687594E-02
   MBD@rsSCS                     : -0.405700E-02  0.373049E-02  0.300001E-02
   ----------------------------------------------------------------
   Total forces(  30)            : -0.312971E-02 -0.389914E-02  0.125650E-02
  atom #   31
   Hellmann-Feynman              : -0.361650E-01 -0.144783E-01  0.464902E-01
   Ionic forces                  :  0.000000E+00  0.000000E+00  0.000000E+00
   Multipole                     : -0.983919E-02 -0.125813E-01 -0.315203E-01
   Pulay + GGA                   :  0.379429E-01  0.292298E-01 -0.171463E-01
   MBD@rsSCS                     : -0.105216E-01  0.132809E-01  0.579459E-02
   ----------------------------------------------------------------
   Total forces(  31)            : -0.185829E-01  0.154511E-01  0.361823E-02
  atom #   32
   Hellmann-Feynman              : -0.148741E-01 -0.127168E-02  0.481824E-01
   Ionic forces                  :  0.000000E+00  0.000000E+00  0.000000E+00
   Multipole                     :  0.214742E-01  0.507938E-02  0.175405E-01
   Pulay + GGA                   : -0.890167E-02  0.576869E-02 -0.677458E-01
   MBD@rsSCS                     : -0.644856E-02  0.118330E-01  0.446443E-02
   ----------------------------------------------------------------
   Total forces(  32)            : -0.875013E-02  0.214094E-01  0.244162E-02

  Removing unitary transformations (pure translations, rotations) from forces on atoms.
  Atomic forces before filtering:
  | Net force on center of mass :  -0.106273E-02  0.522115E-03 -0.487074E-03 eV/A
  | Net torque on center of mass:  -0.130902E-02  0.134303E-02  0.699436E-03 eV
  Atomic forces after filtering:
  | Net force on center of mass :   0.000000E+00 -0.111504E-16  0.442531E-16 eV/A
  | Net torque on center of mass:  -0.106210E-15 -0.455447E-16  0.531048E-16 eV

  Energy and forces in a compact form:
  | Total energy uncorrected      :         -0.202086090706610E+05 eV
  | Total energy corrected        :         -0.202086090706610E+05 eV  <-- do not rely on this value for anything but (periodic) metals
  | Electronic free energy        :         -0.202086090706610E+05 eV
  Total atomic forces (unitary forces cleaned) [eV/Ang]:
  |   1         -0.122432325493729E-01         -0.170301939873359E-01          0.261121893291404E-01
  |   2         -0.109865127269851E-01         -0.135303961249845E-01          0.631779182566103E-02
  |   3         -0.807665886656836E-02          0.320929084848759E-02         -0.266391922774613E-02
  |   4         -0.636955783682049E-02         -0.174271868964222E-01          0.284905571041978E-01
  |   5          0.543683833676966E-02          0.132492293091380E-02          0.292899971450993E-03
  |   6          0.647458694176506E-03         -0.398682613833842E-02          0.811287577535948E-02
  |   7         -0.220709548283013E-01          0.128396730094313E-01         -0.157140326883102E-01
  |   8         -0.501363679998261E-02          0.139964525706370E-01         -0.162143717613727E-01
  |   9         -0.893312768126156E-02          0.251988900674517E-01         -0.259947917310506E-01
  |  10         -0.251100214680268E-01          0.334582919138493E-02         -0.957864872560390E-02
  |  11         -0.744351099571929E-03         -0.415472288416772E-02          0.153017210060904E-02
  |  12         -0.362358908299720E-02          0.243393471354091E-02         -0.221029507631816E-03
  |  13          0.108958138281214E-01         -0.294038829194529E-02         -0.221954431555915E-01
  |  14          0.193267446361145E-01         -0.167514678963287E-01         -0.294905466348187E-01
  |  15          0.832836045255942E-02         -0.779416158703912E-02          0.117329055435420E-02
  |  16          0.664743115236383E-02         -0.144184711046516E-01         -0.149551725374429E-01
  |  17          0.169211807398204E-01          0.163297831774428E-01          0.133265793409268E-01
  |  18          0.155893976202914E-01         -0.180125979726086E-01         -0.910008305353138E-02
  |  19          0.319720466769737E-01          0.157735906948363E-01         -0.149982950021824E-01
  |  20          0.210623210597337E-02          0.107027143065733E-01         -0.284965645866431E-02
  |  21         -0.260110789442445E-02         -0.632722970980074E-03          0.349551574292029E-02
  |  22         -0.568427021295626E-03          0.132475263281764E-02         -0.666522297310473E-02
  |  23          0.293657611256101E-01         -0.430257852648268E-01          0.331544370763013E-01
  |  24          0.144221416870336E-02         -0.162084154981318E-01          0.137567553824136E-01
  |  25          0.485715252926114E-02         -0.192356075860096E-01          0.284855566417345E-01
  |  26         -0.624851596844731E-02          0.133031598307640E-02          0.815831787464191E-02
  |  27         -0.295454663060791E-02          0.158382695792831E-01         -0.804652076868993E-02
  |  28         -0.115320813694413E-01          0.417456736452629E-01          0.513703948335489E-03
  |  29          0.390129077205735E-02         -0.317121349393563E-02         -0.157040280197703E-02
  |  30         -0.310336209061768E-02         -0.391277023747611E-02          0.126212508467476E-02
  |  31         -0.185494676090835E-01          0.154357511069205E-01          0.363168040835495E-02
  |  32         -0.870877131499017E-02          0.214030834771221E-01          0.244368886664166E-02

  ------------------------------------ 
  Start decomposition of the XC Energy 
  ------------------------------------ 
  Hartree-Fock part   :          0.000000000 Ha              0.000000000 eV
  ------------------------------------ 
  X Energy            :        -96.978580051 Ha          -2638.921430044 eV
  C Energy GGA        :         -3.868600435 Ha           -105.269973907 eV
  Total XC Energy     :       -100.847180486 Ha          -2744.191403951 eV
  LDA X and C from self-consistent density 
  X Energy LDA        :        -87.995288796 Ha          -2394.473637622 eV
  C Energy LDA        :         -7.531820614 Ha           -204.951266710 eV
  ------------------------------------ 
  End decomposition of the XC Energy 
  ------------------------------------ 
   
  ESP charge fitting starts.
  | Calculation :  00000001  of  00000001
  | Full density
  Computing multipole expansion for total density.
  Generating points for esp charges.
  Partitioning the integration grid into batches with parallel hashing+maxmin method.
  | Number of batches:     3874
  | Maximal batch size:     199
  | Minimal batch size:      52
  | Average batch size:     125.899
  | Standard deviation of batch sizes:      18.483

  Integration load balanced across    32 MPI tasks.
  Work distribution over tasks is as follows:
  Initializing partition tables, free-atom densities, potentials, etc. across the integration grid (initialize_grid_storage).
  | Original list of interatomic distances with          32 x         32 entries is created.
  | Net number of integration points:   487734
  | of which are non-zero points    :   487734
  Summing up potential from multipole expanded  density.
  Summing up the Hartree potential.
  Time summed over all CPUs for potential: real work        6.350 s, elapsed        6.695 s
  Fitting esp charges to potential.
  |
  | ESP charges fitted to the electrostatic potential :
  |
  | Atom         1: C, ESP charge:      0.45492334
  |
  | Atom         2: C, ESP charge:     -0.67485437
  |
  | Atom         3: O, ESP charge:      0.55199855
  |
  | Atom         4: H, ESP charge:     -0.10455976
  |
  | Atom         5: H, ESP charge:     -0.14317864
  |
  | Atom         6: H, ESP charge:     -0.12672895
  |
  | Atom         7: N, ESP charge:      0.66943633
  |
  | Atom         8: C, ESP charge:     -0.39297662
  |
  | Atom         9: C, ESP charge:     -0.91903875
  |
  | Atom        10: O, ESP charge:      0.67233205
  |
  | Atom        11: H, ESP charge:     -0.31652894
  |
  | Atom        12: H, ESP charge:     -0.00528903
  |
  | Atom        13: C, ESP charge:      0.43213286
  |
  | Atom        14: H, ESP charge:     -0.11126445
  |
  | Atom        15: H, ESP charge:     -0.12970934
  |
  | Atom        16: H, ESP charge:     -0.08206445
  |
  | Atom        17: N, ESP charge:      0.92760227
  |
  | Atom        18: C, ESP charge:     -0.60052748
  |
  | Atom        19: C, ESP charge:     -0.10393421
  |
  | Atom        20: O, ESP charge:      0.48759295
  |
  | Atom        21: H, ESP charge:     -0.36496971
  |
  | Atom        22: H, ESP charge:     -0.08276727
  |
  | Atom        23: C, ESP charge:      0.91140934
  |
  | Atom        24: H, ESP charge:     -0.23603168
  |
  | Atom        25: H, ESP charge:     -0.29733928
  |
  | Atom        26: H, ESP charge:     -0.21608752
  |
  | Atom        27: N, ESP charge:      0.11900896
  |
  | Atom        28: C, ESP charge:      0.57221833
  |
  | Atom        29: H, ESP charge:     -0.28829646
  |
  | Atom        30: H, ESP charge:     -0.20157249
  |
  | Atom        31: H, ESP charge:     -0.24645134
  |
  | Atom        32: H, ESP charge:     -0.15448424

  RRMS:       0.00552840

  Done.

------------------------------------------------------------------------------
  Final output of selected total energy values:

  The following output summarizes some interesting total energy values
  at the end of a run (AFTER all relaxation, molecular dynamics, etc.).

  | Total energy of the DFT / Hartree-Fock s.c.f. calculation      :         -20208.609070661 eV
  | Final zero-broadening corrected energy (caution - metals only) :         -20208.609070661 eV
  | For reference only, the value of 1 Hartree used in FHI-aims is :             27.211384500 eV

  Before relying on these values, please be sure to understand exactly which
  total energy value is referred to by a given number. Different objects may
  all carry the same name 'total energy'. Definitions:

  Total energy of the DFT / Hartree-Fock s.c.f. calculation:
  | Note that this energy does not include ANY quantities calculated after the
  | s.c.f. cycle, in particular not ANY RPA, MP2, etc. many-body perturbation terms.

  Final zero-broadening corrected energy:
  | For metallic systems only, a broadening of the occupation numbers at the Fermi
  | level can be extrapolated back to zero broadening by an electron-gas inspired
  | formula. For all systems that are not real metals, this value can be
  | meaningless and should be avoided.

------------------------------------------------------------------------------
  Methods described in the following list of references were used in this FHI-aims run.
  If you publish the results, please make sure to cite these reference if they apply.
  FHI-aims is an academic code, and for our developers (often, Ph.D. students
  and postdocs), scientific credit in the community is essential.
  Thank you for helping us!

  For any use of FHI-aims, please cite:

    Volker Blum, Ralf Gehrke, Felix Hanke, Paula Havu, Ville Havu,
    Xinguo Ren, Karsten Reuter, and Matthias Scheffler
    'Ab initio molecular simulations with numeric atom-centered orbitals'
    Computer Physics Communications 180, 2175-2196 (2009)
    http://dx.doi.org/10.1016/j.cpc.2009.06.022


  The scalable eigensolver library ELPA was used in your run.
  ELPA is essential especially for large systems on hundreds or thousands of CPUs.
  For ELPA, please cite:

    Andreas Marek, Volker Blum, Rainer Johanni, Ville Havu, Bruno Lang,
    Thomas Auckenthaler, Alexander Heinecke, Hans-Joachim Bungartz, and Hermann Lederer,
    'The ELPA Library - Scalable Parallel Eigenvalue Solutions
    for Electronic Structure Theory and Computational Science'
    The Journal of Physics: Condensed Matter 26, 213201 (2014).
    http://dx.doi.org/10.1088/0953-8984/26/21/213201


  For ELPA's efficient two-stage tridiagonalization used in your run, please cite:

    T. Auckenthaler, V. Blum, H.-J. Bungartz, T. Huckle, R. Johanni, L. Kraemer,
    B. Lang, H. Lederer, and P. R. Willems,
    'Parallel solution of partial symmetric eigenvalue problems'
    'from  electronic structure calculations'
    Parallel Computing 37, 783-794 (2011).
    http://dx.doi.org/10.1016/j.parco.2011.05.002


  For the real-space grid partitioning and parallelization used in this calculation, please cite:

    Ville Havu, Volker Blum, Paula Havu, and Matthias Scheffler,
    'Efficient O(N) integration for all-electron electronic structure calculation'
    'using numerically tabulated basis functions'
    Journal of Computational Physics 228, 8367-8379 (2009).
    http://dx.doi.org/10.1016/j.jcp.2009.08.008

  Of course, there are many other important community references, e.g., those cited in the
  above references. Our list is limited to references that describe implementations in the
  FHI-aims code. The reason is purely practical (length of this list) - please credit others as well.

------------------------------------------------------------
          Leaving FHI-aims.
          Date     :  20170309, Time     :  185714.389

          Computational steps:
          | Number of self-consistency cycles          :           14

          Detailed time accounting                     :  max(cpu_time)    wall_clock(cpu1)
          | Total time                                 :       33.450 s          33.651 s
          | Preparation time                           :        0.240 s           0.237 s
          | Grid partitioning                          :        0.344 s           0.334 s
          | Preloading free-atom quantities on grid    :        0.028 s           0.028 s
          | Free-atom superposition energy             :        0.040 s           0.039 s
          | Total time for integrations                :       11.073 s          11.051 s
          | Total time for solution of K.-S. equations :        0.532 s           0.504 s
          | Total time for density & force components  :        9.761 s           9.742 s
          | Total time for mixing                      :        0.124 s           0.107 s
          | Total time for Hartree multipole update    :        0.080 s           0.057 s
          | Total time for Hartree multipole sum       :        6.372 s           6.358 s
          | Total time for total energy evaluation     :        0.024 s           0.024 s

          Have a nice day.
------------------------------------------------------------
