  MPI-parallelism will be employed.
------------------------------------------------------------
          Invoking FHI-aims ...
          Version 150427
          Git rev.: 9dd23e0 BL: Update Version stamp
          Compiled on 2015/11/03 at 22:05:20 on host eos03.

          When using FHI-aims, please cite the following reference:

          Volker Blum, Ralf Gehrke, Felix Hanke, Paula Havu,
          Ville Havu, Xinguo Ren, Karsten Reuter, and Matthias Scheffler,
          'Ab Initio Molecular Simulations with Numeric Atom-Centered Orbitals: FHI-aims',
          Computer Physics Communications 180, 2175-2196 (2009)

          For any questions about FHI-aims, please visit the aimsclub website
          with its forums and wiki. Contributions to both the forums and the
          wiki are warmly encouraged - they are for you, and everyone is welcome there.

------------------------------------------------------------

  Date     :  20170309, Time     :  184140.688
  Time zero on CPU 1             :   0.392024000000000E+00  s.
  Internal wall clock time zero  :           258316900.688  s.

  Using       32 parallel tasks.
  Task        0 on host eos026 reporting.
  Task        1 on host eos026 reporting.
  Task        2 on host eos026 reporting.
  Task        3 on host eos026 reporting.
  Task        4 on host eos026 reporting.
  Task        5 on host eos026 reporting.
  Task        6 on host eos026 reporting.
  Task        7 on host eos026 reporting.
  Task        8 on host eos026 reporting.
  Task        9 on host eos026 reporting.
  Task       10 on host eos026 reporting.
  Task       11 on host eos026 reporting.
  Task       12 on host eos026 reporting.
  Task       13 on host eos026 reporting.
  Task       14 on host eos026 reporting.
  Task       15 on host eos026 reporting.
  Task       16 on host eos026 reporting.
  Task       17 on host eos026 reporting.
  Task       18 on host eos026 reporting.
  Task       19 on host eos026 reporting.
  Task       20 on host eos026 reporting.
  Task       21 on host eos026 reporting.
  Task       22 on host eos026 reporting.
  Task       23 on host eos026 reporting.
  Task       24 on host eos026 reporting.
  Task       25 on host eos026 reporting.
  Task       26 on host eos026 reporting.
  Task       27 on host eos026 reporting.
  Task       28 on host eos026 reporting.
  Task       29 on host eos026 reporting.
  Task       30 on host eos026 reporting.
  Task       31 on host eos026 reporting.

  Performing system and environment tests:
  | Environment variable OMP_NUM_THREADS correctly set to 1.
  | Stacksize not measured: no C compiler
  | Checking for scalapack...
  | Testing pdtran()...
  | All pdtran() tests passed.

  Obtaining array dimensions for all initial allocations:
  
  -----------------------------------------------------------------------
  Parsing control.in (first pass over file, find array dimensions only).
  The contents of control.in will be repeated verbatim below
  unless switched off by setting 'verbatim_writeout .false.' .
  in the first line of control.in .
  -----------------------------------------------------------------------
  
  #########################################################################################
  #
  # Input for System
  #
  #########################################################################################
  #
  #
  #  Physical model
  #
    xc                 pbe
    many_body_dispersion
    spin               none
    charge             0.
  #
  #  SCF convergence
  #
    occupation_type    gaussian 0.05
    mixer              pulay
      n_max_pulay        10
      charge_mix_param   0.5
    sc_accuracy_rho    1E-4
    sc_accuracy_eev    1E-2
    sc_accuracy_etot   1E-5
    sc_accuracy_forces 1E-4
    sc_iter_limit      1000
  #
  #  ESP charge
  #
    output esp
    esp equal_grid_n 80 80 80
  #
  #
  ################################################################################
  #
  #  FHI-aims code project
  # Volker Blum, Fritz Haber Institute Berlin, 2009
  #
  #  Suggested "tight" defaults for H atom (to be pasted into control.in file)
  #
  ################################################################################
    species        H
  #     global species definitions
      nucleus             1
      mass                1.00794
  #
      l_hartree           6
  #
      cut_pot             4.0  2.0  1.0
      basis_dep_cutoff    1e-4
  #
      radial_base         24 7.0
      radial_multiplier   2
      angular_grids       specified
        division   0.1930   50
        division   0.3175  110
        division   0.4293  194
        division   0.5066  302
        division   0.5626  434
  #      division   0.5922  590
  #      division   0.6227  974
  #      division   0.6868 1202
  #      outer_grid  770
        outer_grid  434
  ################################################################################
  #
  #  Definition of "minimal" basis
  #
  ################################################################################
  #     valence basis states
      valence      1  s   1.
  #     ion occupancy
      ion_occ      1  s   0.5
  ################################################################################
  #
  #  Suggested additional basis functions. For production calculations,
  #  uncomment them one after another (the most important basis functions are
  #  listed first).
  #
  #  Basis constructed for dimers: 0.5 A, 0.7 A, 1.0 A, 1.5 A, 2.5 A
  #
  ################################################################################
  #  "First tier" - improvements: -1014.90 meV to -62.69 meV
       hydro 2 s 2.1
       hydro 2 p 3.5
  #  "Second tier" - improvements: -12.89 meV to -1.83 meV
       hydro 1 s 0.85
       hydro 2 p 3.7
       hydro 2 s 1.2
       hydro 3 d 7
  #  "Third tier" - improvements: -0.25 meV to -0.12 meV
  #     hydro 4 f 11.2
  #     hydro 3 p 4.8
  #     hydro 4 d 9
  #     hydro 3 s 3.2
  ################################################################################
  #
  # For methods that use the localized form of the "resolution of identity" for
  # the two-electron Coulomb operator (RI_method LVL), particularly Hartree-Fock and
  # hybrid density functional calculations, the highest accuracy can be obtained by
  # uncommenting the line beginning with "for_aux"  below, thus adding an extra g radial
  # function to the construction of the product basis set for the expansion.
  # See Ref. New J. Phys. 17, 093020 (2015) for more information, particularly Figs. 1 and 6.
  #
  ################################################################################
  #
  # for_aux hydro 5 g 6.0
  ################################################################################
  #
  #  FHI-aims code project
  # Volker Blum, Fritz Haber Institute Berlin, 2009
  #
  #  Suggested "tight" defaults for C atom (to be pasted into control.in file)
  #
  ################################################################################
    species        C
  #     global species definitions
      nucleus             6
      mass                12.0107
  #
      l_hartree           6
  #
      cut_pot             4.0  2.0  1.0
      basis_dep_cutoff    1e-4
  #
      radial_base         34 7.0
      radial_multiplier   2
      angular_grids specified
        division   0.2187   50
        division   0.4416  110
        division   0.6335  194
        division   0.7727  302
        division   0.8772  434
  #      division   0.9334  590
  #      division   0.9924  770
  #      division   1.0230  974
  #      division   1.5020 1202
  #     outer_grid  974
        outer_grid  434
  ################################################################################
  #
  #  Definition of "minimal" basis
  #
  ################################################################################
  #     valence basis states
      valence      2  s   2.
      valence      2  p   2.
  #     ion occupancy
      ion_occ      2  s   1.
      ion_occ      2  p   1.
  ################################################################################
  #
  #  Suggested additional basis functions. For production calculations,
  #  uncomment them one after another (the most important basis functions are
  #  listed first).
  #
  #  Constructed for dimers: 1.0 A, 1.25 A, 1.5 A, 2.0 A, 3.0 A
  #
  ################################################################################
  #  "First tier" - improvements: -1214.57 meV to -155.61 meV
       hydro 2 p 1.7
       hydro 3 d 6
       hydro 2 s 4.9
  #  "Second tier" - improvements: -67.75 meV to -5.23 meV
       hydro 4 f 9.8
       hydro 3 p 5.2
       hydro 3 s 4.3
       hydro 5 g 14.4
       hydro 3 d 6.2
  #  "Third tier" - improvements: -2.43 meV to -0.60 meV
  #     hydro 2 p 5.6
  #     hydro 2 s 1.4
  #     hydro 3 d 4.9
  #     hydro 4 f 11.2
  #  "Fourth tier" - improvements: -0.39 meV to -0.18 meV
  #     hydro 2 p 2.1
  #     hydro 5 g 16.4
  #     hydro 4 d 13.2
  #     hydro 3 s 13.6
  #     hydro 4 f 17.6
  #  Further basis functions - improvements: -0.08 meV and below
  #     hydro 3 s 2
  #     hydro 3 p 6
  #     hydro 4 d 20
  ################################################################################
  #
  # For methods that use the localized form of the "resolution of identity" for
  # the two-electron Coulomb operator (RI_method LVL), particularly Hartree-Fock and
  # hybrid density functional calculations, the highest accuracy can be obtained by
  # uncommenting the line beginning with "for_aux"  below, thus adding an extra g radial
  # function to the construction of the product basis set for the expansion.
  # See Ref. New J. Phys. 17, 093020 (2015) for more information, particularly Figs. 1 and 6.
  #
  ################################################################################
  #
  # for_aux hydro 5 g 6.0
  ################################################################################
  #
  #  FHI-aims code project
  # Volker Blum, Fritz Haber Institute Berlin, 2009
  #
  #  Suggested "tight" defaults for N atom (to be pasted into control.in file)
  #
  ################################################################################
    species        N
  #     global species definitions
      nucleus             7
      mass                14.0067
  #
      l_hartree           6
  #
      cut_pot             4.0  2.0  1.0
      basis_dep_cutoff    1e-4
  #
      radial_base         35 7.0
      radial_multiplier   2
      angular_grids       specified
        division   0.1841   50
        division   0.3514  110
        division   0.5126  194
        division   0.6292  302
        division   0.6939  434
  #      division   0.7396  590
  #      division   0.7632  770
  #      division   0.8122  974
  #      division   1.1604 1202
  #      outer_grid  974
        outer_grid  434
  ################################################################################
  #
  #  Definition of "minimal" basis
  #
  ################################################################################
  #     valence basis states
      valence      2  s   2.
      valence      2  p   3.
  #     ion occupancy
      ion_occ      2  s   1.
      ion_occ      2  p   2.
  ################################################################################
  #
  #  Suggested additional basis functions. For production calculations,
  #  uncomment them one after another (the most important basis functions are
  #  listed first).
  #
  #  Constructed for dimers: 1.0 A, 1.1 A, 1.5 A, 2.0 A, 3.0 A
  #
  ################################################################################
  #  "First tier" - improvements: -1193.42 meV to -220.60 meV
       hydro 2 p 1.8
       hydro 3 d 6.8
       hydro 3 s 5.8
  #  "Second tier" - improvements: -80.21 meV to -6.86 meV
       hydro 4 f 10.8
       hydro 3 p 5.8
       hydro 1 s 0.8
       hydro 5 g 16
       hydro 3 d 4.9
  #  "Third tier" - improvements: -4.29 meV to -0.53 meV
  #     hydro 3 s 16
  #     ionic 2 p auto
  #     hydro 3 d 6.6
  #     hydro 4 f 11.6
  #  "Fourth tier" - improvements: -0.75 meV to -0.25 meV
  #     hydro 2 p 4.5
  #     hydro 2 s 2.4
  #     hydro 5 g 14.4
  #     hydro 4 d 14.4
  #     hydro 4 f 16.8
  # Further basis functions - -0.21 meV and below
  #     hydro 3 p 14.8
  #     hydro 3 s 4.4
  #     hydro 3 d 19.6
  #     hydro 5 g 12.8
  ################################################################################
  #
  # For methods that use the localized form of the "resolution of identity" for
  # the two-electron Coulomb operator (RI_method LVL), particularly Hartree-Fock and
  # hybrid density functional calculations, the highest accuracy can be obtained by
  # uncommenting the line beginning with "for_aux"  below, thus adding an extra g radial
  # function to the construction of the product basis set for the expansion.
  # See Ref. New J. Phys. 17, 093020 (2015) for more information, particularly Figs. 1 and 6.
  #
  ################################################################################
  #
  # for_aux hydro 5 g 6.0
  ################################################################################
  #
  #  FHI-aims code project
  # Volker Blum, Fritz Haber Institute Berlin, 2009
  #
  #  Suggested "tight" defaults for O atom (to be pasted into control.in file)
  #
  ################################################################################
    species        O
  #     global species definitions
      nucleus             8
      mass                15.9994
  #
      l_hartree           6
  #
      cut_pot             4.0  2.0  1.0
      basis_dep_cutoff    1e-4
  #
      radial_base         36 7.0
      radial_multiplier   2
       angular_grids specified
        division   0.1817   50
        division   0.3417  110
        division   0.4949  194
        division   0.6251  302
        division   0.8014  434
  #      division   0.8507  590
  #      division   0.8762  770
  #      division   0.9023  974
  #      division   1.2339 1202
  #      outer_grid 974
        outer_grid  434
  ################################################################################
  #
  #  Definition of "minimal" basis
  #
  ################################################################################
  #     valence basis states
      valence      2  s   2.
      valence      2  p   4.
  #     ion occupancy
      ion_occ      2  s   1.
      ion_occ      2  p   3.
  ################################################################################
  #
  #  Suggested additional basis functions. For production calculations,
  #  uncomment them one after another (the most important basis functions are
  #  listed first).
  #
  #  Constructed for dimers: 1.0 A, 1.208 A, 1.5 A, 2.0 A, 3.0 A
  #
  ################################################################################
  #  "First tier" - improvements: -699.05 meV to -159.38 meV
       hydro 2 p 1.8
       hydro 3 d 7.6
       hydro 3 s 6.4
  #  "Second tier" - improvements: -49.91 meV to -5.39 meV
       hydro 4 f 11.6
       hydro 3 p 6.2
       hydro 3 d 5.6
       hydro 5 g 17.6
       hydro 1 s 0.75
  #  "Third tier" - improvements: -2.83 meV to -0.50 meV
  #     ionic 2 p auto
  #     hydro 4 f 10.8
  #     hydro 4 d 4.7
  #     hydro 2 s 6.8
  #  "Fourth tier" - improvements: -0.40 meV to -0.12 meV
  #     hydro 3 p 5
  #     hydro 3 s 3.3
  #     hydro 5 g 15.6
  #     hydro 4 f 17.6
  #     hydro 4 d 14
  # Further basis functions - -0.08 meV and below
  #     hydro 3 s 2.1
  #     hydro 4 d 11.6
  #     hydro 3 p 16
  #     hydro 2 s 17.2
  ################################################################################
  #
  # For methods that use the localized form of the "resolution of identity" for
  # the two-electron Coulomb operator (RI_method LVL), particularly Hartree-Fock and
  # hybrid density functional calculations, the highest accuracy can be obtained by
  # uncommenting the line beginning with "for_aux"  below, thus adding an extra g radial
  # function to the construction of the product basis set for the expansion.
  # See Ref. New J. Phys. 17, 093020 (2015) for more information, particularly Figs. 1 and 6.
  #
  ################################################################################
  #
  # for_aux hydro 5 g 6.0
  
  -----------------------------------------------------------------------
  Completed first pass over input file control.in .
  -----------------------------------------------------------------------
  
  
  -----------------------------------------------------------------------
  Parsing geometry.in (first pass over file, find array dimensions only).
  The contents of geometry.in will be repeated verbatim below
  unless switched off by setting 'verbatim_writeout .false.' .
  in the first line of geometry.in .
  -----------------------------------------------------------------------
  
  #
  # This is the geometry file that corresponds to the current relaxation step.
  # If you do not want this file to be written, set the "write_restart_geometry" flag to .false.
  #
  atom      -3.91703874     -0.88662913      1.72521054 C
  atom      -2.67469626     -0.23080238      2.29421716 C
  atom      -1.86388261      0.34750717      1.55800675 O
  atom      -4.54611469     -1.38133049      2.47499551 H
  atom      -3.60940240     -1.62467025      0.97412236 H
  atom      -4.51107246     -0.12326695      1.20624832 H
  atom      -2.53474097     -0.30770728      3.64627497 N
  atom      -1.40371778      0.17469173      4.46011468 C
  atom      -1.29586128      1.72034743      4.56699808 C
  atom      -1.24811061      2.25865450      5.67120789 O
  atom      -3.28086008     -0.76422739      4.15597615 H
  atom      -1.64484524     -0.12658054      5.48636705 H
  atom      -0.06648256     -0.46464558      4.06368032 C
  atom       0.71767870     -0.11166699      4.74543568 H
  atom       0.21887032     -0.20655134      3.03804842 H
  atom      -0.12883708     -1.55791582      4.14387348 H
  atom      -1.21475038      2.38514808      3.38688782 N
  atom      -1.02844560      3.82551228      3.31524773 C
  atom      -2.24892845      4.70520486      3.67820907 C
  atom      -2.05534032      5.78710805      4.22689338 O
  atom      -1.27385329      1.82421659      2.52841399 H
  atom      -0.29525905      4.10985837      4.08246757 H
  atom      -0.50301834      4.21729563      1.93055088 C
  atom      -0.34783468      5.30140266      1.88701790 H
  atom      -1.20883339      3.93945951      1.13470451 H
  atom       0.45397559      3.71857754      1.72868543 H
  atom      -3.51617225      4.31204453      3.34127639 N
  atom      -3.99753637      3.13882908      2.63127911 C
  atom      -4.21083892      4.98330377      3.65404789 H
  atom      -4.99548184      3.36537026      2.23603494 H
  atom      -4.07739837      2.25329175      3.28032455 H
  atom      -3.35931759      2.88348336      1.77769347 H
  
  -----------------------------------------------------------------------
  Completed first pass over input file geometry.in .
  -----------------------------------------------------------------------
  

  Basic array size parameters:
  | Number of species                 :        4
  | Number of atoms                   :       32
  | Max. basis fn. angular momentum   :        4
  | Max. atomic/ionic basis occupied n:        2
  | Max. number of basis fn. types    :        2
  | Max. radial fns per species/type  :        8
  | Max. logarithmic grid size        :     1301
  | Max. radial integration grid size :       73
  | Max. angular integration grid size:      434
  | Max. angular grid division number :        8
  | Radial grid for Hartree potential :     1301
  | Number of spin channels           :        1

------------------------------------------------------------
          Reading file control.in.
------------------------------------------------------------
  XC: Using PBE gradient-corrected functionals.
  Self-consistent screening and van der Waals energy (TS, TS+SCS,MBD) module
  Spin treatment: No spin polarisation.
  Charge =   0.000000E+00: Neutral system requested explicitly.
  Occupation type: Gaussian broadening, width =   0.500000E-01 eV.
  Using pulay charge density mixing.
  Pulay mixing - number of memorized iterations:   10
  Charge density mixing - mixing parameter:     0.5000
  Convergence accuracy of self-consistent charge density:  0.1000E-03
  Convergence accuracy of sum of eigenvalues:  0.1000E-01
  Convergence accuracy of total energy:  0.1000E-04
  Convergence accuracy of forces:  0.1000E-03
  Maximum number of s.-c. iterations  :  1000
  Fitting ESP-charges to Potential. 
  | Esp charge output options: 
  | ESP Grid method: 3, cubic grid
  | Number of points in x, ,y, z:  0080 0080 0080
  |
 
  Reading configuration options for species H                   .
  | Found nuclear charge :   1.0000
  | Found atomic mass :    1.00794000000000      amu
  | Found l_max for Hartree potential  :   6
  | Found cutoff potl. onset [A], width [A], scale factor :    4.00000    2.00000    1.00000
  | Threshold for basis-dependent cutoff potential is   0.100000E-03
  | Found data for basic radial integration grid :    24 points, outermost radius =    7.000 A
  | Found multiplier for basic radial grid :   2
  | Found angular grid specification: user-specified.
  | Specified grid contains     6 separate shells.
  | Check grid settings after all constraints further below.
  | Found free-atom valence shell :  1 s   1.000
  | No ionic wave fns used. Skipping ion_occ.
  | Found hydrogenic basis function :  2 s   2.100
  | Found hydrogenic basis function :  2 p   3.500
  | Found hydrogenic basis function :  1 s   0.850
  | Found hydrogenic basis function :  2 p   3.700
  | Found hydrogenic basis function :  2 s   1.200
  | Found hydrogenic basis function :  3 d   7.000
  Species H                   : Missing cutoff potential type.
  Defaulting to exp(1/x)/(1-x)^2 type cutoff potential.
  Species H : No 'logarithmic' tag. Using default grid for free atom:
  | Default logarithmic grid data [bohr] : 0.1000E-03 0.1000E+03 0.1012E+01
  Species H : On-site basis accuracy parameter (for Gram-Schmidt orthonormalisation) not specified.
  Using default value basis_acc =  0.1000000E-03.
  Species H                   : Using default innermost maximum threshold i_radial=  2 for radial functions.
  Species H                   : Default cutoff onset for free atom density etc. : 0.40000000E+01 AA.
  Species H                   : Basic radial grid will be enhanced according to radial_multiplier =   2, to contain    49 grid points.
 
  Reading configuration options for species C                   .
  | Found nuclear charge :   6.0000
  | Found atomic mass :    12.0107000000000      amu
  | Found l_max for Hartree potential  :   6
  | Found cutoff potl. onset [A], width [A], scale factor :    4.00000    2.00000    1.00000
  | Threshold for basis-dependent cutoff potential is   0.100000E-03
  | Found data for basic radial integration grid :    34 points, outermost radius =    7.000 A
  | Found multiplier for basic radial grid :   2
  | Found angular grid specification: user-specified.
  | Specified grid contains     6 separate shells.
  | Check grid settings after all constraints further below.
  | Found free-atom valence shell :  2 s   2.000
  | Found free-atom valence shell :  2 p   2.000
  | No ionic wave fns used. Skipping ion_occ.
  | No ionic wave fns used. Skipping ion_occ.
  | Found hydrogenic basis function :  2 p   1.700
  | Found hydrogenic basis function :  3 d   6.000
  | Found hydrogenic basis function :  2 s   4.900
  | Found hydrogenic basis function :  4 f   9.800
  | Found hydrogenic basis function :  3 p   5.200
  | Found hydrogenic basis function :  3 s   4.300
  | Found hydrogenic basis function :  5 g  14.400
  | Found hydrogenic basis function :  3 d   6.200
  Species C                   : Missing cutoff potential type.
  Defaulting to exp(1/x)/(1-x)^2 type cutoff potential.
  Species C : No 'logarithmic' tag. Using default grid for free atom:
  | Default logarithmic grid data [bohr] : 0.1000E-03 0.1000E+03 0.1012E+01
  Species C : On-site basis accuracy parameter (for Gram-Schmidt orthonormalisation) not specified.
  Using default value basis_acc =  0.1000000E-03.
  Species C                   : Using default innermost maximum threshold i_radial=  2 for radial functions.
  Species C                   : Default cutoff onset for free atom density etc. : 0.40000000E+01 AA.
  Species C                   : Basic radial grid will be enhanced according to radial_multiplier =   2, to contain    69 grid points.
 
  Reading configuration options for species N                   .
  | Found nuclear charge :   7.0000
  | Found atomic mass :    14.0067000000000      amu
  | Found l_max for Hartree potential  :   6
  | Found cutoff potl. onset [A], width [A], scale factor :    4.00000    2.00000    1.00000
  | Threshold for basis-dependent cutoff potential is   0.100000E-03
  | Found data for basic radial integration grid :    35 points, outermost radius =    7.000 A
  | Found multiplier for basic radial grid :   2
  | Found angular grid specification: user-specified.
  | Specified grid contains     6 separate shells.
  | Check grid settings after all constraints further below.
  | Found free-atom valence shell :  2 s   2.000
  | Found free-atom valence shell :  2 p   3.000
  | No ionic wave fns used. Skipping ion_occ.
  | No ionic wave fns used. Skipping ion_occ.
  | Found hydrogenic basis function :  2 p   1.800
  | Found hydrogenic basis function :  3 d   6.800
  | Found hydrogenic basis function :  3 s   5.800
  | Found hydrogenic basis function :  4 f  10.800
  | Found hydrogenic basis function :  3 p   5.800
  | Found hydrogenic basis function :  1 s   0.800
  | Found hydrogenic basis function :  5 g  16.000
  | Found hydrogenic basis function :  3 d   4.900
  Species N                   : Missing cutoff potential type.
  Defaulting to exp(1/x)/(1-x)^2 type cutoff potential.
  Species N : No 'logarithmic' tag. Using default grid for free atom:
  | Default logarithmic grid data [bohr] : 0.1000E-03 0.1000E+03 0.1012E+01
  Species N : On-site basis accuracy parameter (for Gram-Schmidt orthonormalisation) not specified.
  Using default value basis_acc =  0.1000000E-03.
  Species N                   : Using default innermost maximum threshold i_radial=  2 for radial functions.
  Species N                   : Default cutoff onset for free atom density etc. : 0.40000000E+01 AA.
  Species N                   : Basic radial grid will be enhanced according to radial_multiplier =   2, to contain    71 grid points.
 
  Reading configuration options for species O                   .
  | Found nuclear charge :   8.0000
  | Found atomic mass :    15.9994000000000      amu
  | Found l_max for Hartree potential  :   6
  | Found cutoff potl. onset [A], width [A], scale factor :    4.00000    2.00000    1.00000
  | Threshold for basis-dependent cutoff potential is   0.100000E-03
  | Found data for basic radial integration grid :    36 points, outermost radius =    7.000 A
  | Found multiplier for basic radial grid :   2
  | Found angular grid specification: user-specified.
  | Specified grid contains     6 separate shells.
  | Check grid settings after all constraints further below.
  | Found free-atom valence shell :  2 s   2.000
  | Found free-atom valence shell :  2 p   4.000
  | No ionic wave fns used. Skipping ion_occ.
  | No ionic wave fns used. Skipping ion_occ.
  | Found hydrogenic basis function :  2 p   1.800
  | Found hydrogenic basis function :  3 d   7.600
  | Found hydrogenic basis function :  3 s   6.400
  | Found hydrogenic basis function :  4 f  11.600
  | Found hydrogenic basis function :  3 p   6.200
  | Found hydrogenic basis function :  3 d   5.600
  | Found hydrogenic basis function :  5 g  17.600
  | Found hydrogenic basis function :  1 s   0.750
  Species O                   : Missing cutoff potential type.
  Defaulting to exp(1/x)/(1-x)^2 type cutoff potential.
  Species O : No 'logarithmic' tag. Using default grid for free atom:
  | Default logarithmic grid data [bohr] : 0.1000E-03 0.1000E+03 0.1012E+01
  Species O : On-site basis accuracy parameter (for Gram-Schmidt orthonormalisation) not specified.
  Using default value basis_acc =  0.1000000E-03.
  Species O                   : Using default innermost maximum threshold i_radial=  2 for radial functions.
  Species O                   : Default cutoff onset for free atom density etc. : 0.40000000E+01 AA.
  Species O                   : Basic radial grid will be enhanced according to radial_multiplier =   2, to contain    73 grid points.
 
  Finished reading input file 'control.in'. Consistency checks are next.
 
  Target number of points in a grid batch is not set. Defaulting to  100
  Method for grid partitioning is not set. Defaulting to parallel hash+maxmin partitioning.
  Batch size limit is not set. Defaulting to    200
  By default, will store active basis functions for each batch.
  If in need of memory, prune_basis_once .false. can be used to disable this option.
  communication_type for Hartree potential was not specified.
  Defaulting to calc_hartree .
  Pulay mixer: Number of initial linear mixing iterations not set.
  Defaulting to    0 iterations.
  Work space size for distributed Hartree potential not set.
  Defaulting to   0.200000E+03 MB.
  Algorithm-dependent basis array size parameters:
  | n_max_pulay                         :       10
  Geometry relaxation not requested: no relaxation will be performed.
  Handling of forces: Unphysical translation and rotation will be removed from forces.
  No accuracy limit for integral partition fn. given. Defaulting to  0.1000E-14.
  No threshold value for u(r) in integrations given. Defaulting to  0.1000E-05.
  No accuracy for occupation numbers given. Defaulting to  0.1000E-07.
  No threshold value for occupation numbers given. Defaulting to  0.0000E+00.
  No accuracy for fermi level given. Defaulting to  0.1000E-19.
  Maximum # of iterations to find E_F not set. Defaulting to  200.
  Preferred method for the eigenvalue solver ('KS_method') not specified in 'control.in'.
  Calling blacs routine to test compilation state
  Since scalapack support is enabled, defaulting to 'elpa'.
  Preferred method for the MBD eigenvalue solver ('mbd_eigensolver') not specified in 'control.in'.
  Calling blacs routine to test compilation state
  Since scalapack support is enabled, defaulting to 'scaLAPACK'.
  Will not use alltoall communication since running on < 1024 CPUs.
  Threshold for basis singularities not set.
  Default threshold for basis singularities:  0.1000E-04
  partition_type (choice of integration weights) for integrals was not specified.
  | Using a version of the partition function of Stratmann and coworkers ('stratmann_smoother').
  | At each grid point, the set of atoms used to build the partition table is smoothly restricted to
  | only those atoms whose free-atom density would be non-zero at that grid point.
  Partitioning for Hartree potential was not defined. Using partition_type for integrals.
  | Adjusted default value of keyword multip_moments_threshold to:       0.10000000E-11
  | This value may affect high angular momentum components of the Hartree potential in periodic systems.
  No q(lm)/r^(l+1) cutoff set for long-range Hartree potential.
  | Using default value of  0.100000E-09 .
  | Verify using the multipole_threshold keyword.
  Defaulting to new monopole extrapolation.
  Density update method: automatic selection selected.
------------------------------------------------------------


------------------------------------------------------------
          Reading geometry description geometry.in.
------------------------------------------------------------
 * Warning! You did not set the 'relativistic' flag in input file 'control.in'.
 * Since you are not attempting to treat any elements beyond Ca(Z=20), FHI-aims
 * will default to 'relativistic none'.
 * You must ensure that this is really what you want!!
 * For example, DO NOT compute total-energy differences between results from
 * different settings of the 'relativistic' flag.
  Input structure read successfully.
  The structure contains       32 atoms,  and a total of        116.000 electrons.

  Input geometry:
  | No unit cell requested.
  | Atomic structure:
  |       Atom                x [A]            y [A]            z [A]
  |    1: Species C             -3.917039        -0.886629         1.725211
  |    2: Species C             -2.674696        -0.230802         2.294217
  |    3: Species O             -1.863883         0.347507         1.558007
  |    4: Species H             -4.546115        -1.381330         2.474996
  |    5: Species H             -3.609402        -1.624670         0.974122
  |    6: Species H             -4.511072        -0.123267         1.206248
  |    7: Species N             -2.534741        -0.307707         3.646275
  |    8: Species C             -1.403718         0.174692         4.460115
  |    9: Species C             -1.295861         1.720347         4.566998
  |   10: Species O             -1.248111         2.258655         5.671208
  |   11: Species H             -3.280860        -0.764227         4.155976
  |   12: Species H             -1.644845        -0.126581         5.486367
  |   13: Species C             -0.066483        -0.464646         4.063680
  |   14: Species H              0.717679        -0.111667         4.745436
  |   15: Species H              0.218870        -0.206551         3.038048
  |   16: Species H             -0.128837        -1.557916         4.143873
  |   17: Species N             -1.214750         2.385148         3.386888
  |   18: Species C             -1.028446         3.825512         3.315248
  |   19: Species C             -2.248928         4.705205         3.678209
  |   20: Species O             -2.055340         5.787108         4.226893
  |   21: Species H             -1.273853         1.824217         2.528414
  |   22: Species H             -0.295259         4.109858         4.082468
  |   23: Species C             -0.503018         4.217296         1.930551
  |   24: Species H             -0.347835         5.301403         1.887018
  |   25: Species H             -1.208833         3.939460         1.134705
  |   26: Species H              0.453976         3.718578         1.728685
  |   27: Species N             -3.516172         4.312045         3.341276
  |   28: Species C             -3.997536         3.138829         2.631279
  |   29: Species H             -4.210839         4.983304         3.654048
  |   30: Species H             -4.995482         3.365370         2.236035
  |   31: Species H             -4.077398         2.253292         3.280325
  |   32: Species H             -3.359318         2.883483         1.777693
  |

  | The smallest distance between any two atoms is         1.01237327 AA.
  |
  | The first atom of this pair is atom number                      7 .
  | The second atom of this pair is atom number                    11 .

  Number of empty states per atom not set in control.in - providing a guess from actual geometry.
  | Total number of empty states used during s.c.f. cycle:       71
  If you use a very high smearing, use empty_states (per atom!) in control.in to increase this value.

  Structure-dependent array size parameters: 
  | Maximum number of distinct radial functions  :       40
  | Maximum number of basis functions            :      840
  | Number of Kohn-Sham states (occupied + empty):      129
------------------------------------------------------------

------------------------------------------------------------
          Preparing all fixed parts of the calculation.
------------------------------------------------------------
  Determining machine precision:
    2.225073858507201E-308
  Setting up grids for atomic and cluster calculations.

  Creating wave function, potential, and density for free atoms.

  Species: H

  List of occupied orbitals and eigenvalues:
    n    l              occ      energy [Ha]    energy [eV]
    1    0           1.0000        -0.238382        -6.4867


  Species: C

  List of occupied orbitals and eigenvalues:
    n    l              occ      energy [Ha]    energy [eV]
    1    0           2.0000       -10.041232      -273.2358
    2    0           2.0000        -0.504327       -13.7234
    2    1           2.0000        -0.193750        -5.2722


  Species: N

  List of occupied orbitals and eigenvalues:
    n    l              occ      energy [Ha]    energy [eV]
    1    0           2.0000       -14.129007      -384.4699
    2    0           2.0000        -0.681802       -18.5528
    2    1           3.0000        -0.260543        -7.0897


  Species: O

  List of occupied orbitals and eigenvalues:
    n    l              occ      energy [Ha]    energy [eV]
    1    0           2.0000       -18.898576      -514.2564
    2    0           2.0000        -0.878795       -23.9132
    2    1           4.0000        -0.332075        -9.0362

  Creating fixed part of basis set: Ionic, confined, hydrogenic.
 
  H                    hydrogenic:
 
  List of hydrogenic basis orbitals: 
    n    l      effective z      eigenvalue [eV]  inner max. [A]     outer max. [A]     outer radius [A]   
    2    0         2.100000       -14.9965           0.193243           1.317208           5.373006
    2    1         3.500000       -41.6672           0.602369           0.602369           4.056063
    1    0         0.850000        -9.8292           0.624871           0.624871           5.373006
    2    1         3.700000       -46.5653           0.573622           0.573622           3.910002
    2    0         1.200000        -4.5995           0.334980           2.228188           5.505995
    3    2         7.000000       -74.0753           0.680699           0.680699           3.769201
 
 
  C                    hydrogenic:
 
  List of hydrogenic basis orbitals: 
    n    l      effective z      eigenvalue [eV]  inner max. [A]     outer max. [A]     outer radius [A]   
    2    1         1.700000        -9.8152           1.245706           1.245706           5.401630
    3    2         6.000000       -54.4226           0.792453           0.792453           4.178599
    2    0         4.900000       -81.6681           0.082559           0.562749           3.353238
    4    3         9.800000       -81.6681           0.863254           0.863254           4.028125
    3    1         5.200000       -40.8774           0.305389           1.215618           4.898362
    3    0         4.300000       -27.9508           0.091041           1.610311           5.401630
    5    4        14.400000      -112.8510           0.917666           0.917666           3.883070
    3    2         6.200000       -58.1113           0.763917           0.763917           4.077671
 
 
  N                    hydrogenic:
 
  List of hydrogenic basis orbitals: 
    n    l      effective z      eigenvalue [eV]  inner max. [A]     outer max. [A]     outer radius [A]   
    2    1         1.800000       -11.0118           1.177451           1.177451           5.427479
    3    2         6.800000       -69.9029           0.704619           0.704619           3.854246
    3    0         5.800000       -50.8549           0.067388           1.191934           4.629968
    4    3        10.800000       -99.1854           0.786571           0.786571           3.761152
    3    1         5.800000       -50.8549           0.274880           1.094176           4.518138
    1    0         0.800000        -8.7059           0.662839           0.662839           5.361532
    5    4        16.000000      -139.3222           0.825990           0.825990           3.625711
    3    2         4.900000       -36.2967           0.968267           0.968267           4.862000
 
 
  O                    hydrogenic:
 
  List of hydrogenic basis orbitals: 
    n    l      effective z      eigenvalue [eV]  inner max. [A]     outer max. [A]     outer radius [A]   
    2    1         1.800000       -11.0118           1.178562           1.178562           5.432602
    3    2         7.600000       -87.3182           0.624125           0.624125           3.541477
    3    0         6.400000       -61.9209           0.061167           1.081902           4.306578
    4    3        11.600000      -114.4238           0.731631           0.731631           3.585037
    3    1         6.200000       -58.1113           0.255680           1.030270           4.306578
    3    2         5.600000       -47.4081           0.847233           0.847233           4.413171
    5    4        17.600000      -168.5799           0.749740           0.749740           3.372465
    1    0         0.750000        -7.6499           0.705284           0.705284           5.366593
 

  Adding cutoff potential to free-atom effective potential.
  Creating atomic-like basis functions for current effective potential.

  Species H                   :

  List of atomic basis orbitals and eigenvalues:
    n    l      energy [Ha]    energy [eV]    outer radius [A]
    1    0        -0.238382        -6.4867       5.373006


  Species C                   :

  List of atomic basis orbitals and eigenvalues:
    n    l      energy [Ha]    energy [eV]    outer radius [A]
    1    0       -10.041232      -273.2358       1.934409
    2    0        -0.504327       -13.7234       5.271162
    2    1        -0.193750        -5.2722       5.401630


  Species N                   :

  List of atomic basis orbitals and eigenvalues:
    n    l      energy [Ha]    energy [eV]    outer radius [A]
    1    0       -14.129007      -384.4699       1.637919
    2    0        -0.681802       -18.5528       5.168461
    2    1        -0.260543        -7.0897       5.361532


  Species O                   :

  List of atomic basis orbitals and eigenvalues:
    n    l      energy [Ha]    energy [eV]    outer radius [A]
    1    0       -18.898576      -514.2564       1.415765
    2    0        -0.878795       -23.9132       5.048385
    2    1        -0.332075        -9.0362       5.301386

  Assembling full basis from fixed parts.
  | Species H :   atomic orbital   1 s accepted.
  | Species H :    hydro orbital   2 s accepted.
  | Species H :    hydro orbital   1 s accepted.
  | Species H :    hydro orbital   2 s accepted.
  | Species H :    hydro orbital   2 p accepted.
  | Species H :    hydro orbital   2 p accepted.
  | Species H :    hydro orbital   3 d accepted.
  | Species C :   atomic orbital   1 s accepted.
  | Species C :    hydro orbital   2 s accepted.
  | Species C :   atomic orbital   2 s accepted.
  | Species C :    hydro orbital   3 s accepted.
  | Species C :    hydro orbital   3 p accepted.
  | Species C :   atomic orbital   2 p accepted.
  | Species C :    hydro orbital   2 p accepted.
  | Species C :    hydro orbital   3 d accepted.
  | Species C :    hydro orbital   3 d accepted.
  | Species C :    hydro orbital   4 f accepted.
  | Species C :    hydro orbital   5 g accepted.
  | Species N :   atomic orbital   1 s accepted.
  | Species N :    hydro orbital   3 s accepted.
  | Species N :   atomic orbital   2 s accepted.
  | Species N :    hydro orbital   1 s accepted.
  | Species N :    hydro orbital   3 p accepted.
  | Species N :   atomic orbital   2 p accepted.
  | Species N :    hydro orbital   2 p accepted.
  | Species N :    hydro orbital   3 d accepted.
  | Species N :    hydro orbital   3 d accepted.
  | Species N :    hydro orbital   4 f accepted.
  | Species N :    hydro orbital   5 g accepted.
  | Species O :   atomic orbital   1 s accepted.
  | Species O :    hydro orbital   3 s accepted.
  | Species O :   atomic orbital   2 s accepted.
  | Species O :    hydro orbital   1 s accepted.
  | Species O :    hydro orbital   3 p accepted.
  | Species O :   atomic orbital   2 p accepted.
  | Species O :    hydro orbital   2 p accepted.
  | Species O :    hydro orbital   3 d accepted.
  | Species O :    hydro orbital   3 d accepted.
  | Species O :    hydro orbital   4 f accepted.
  | Species O :    hydro orbital   5 g accepted.
 
  Basis size parameters after reduction:
  | Total number of radial functions:       40
  | Total number of basis functions :      840
 
  Testing on-site integration grid accuracy.
  |  Species  Function  <phi|h_atom|phi> (log., in eV)  <phi|h_atom|phi> (rad., in eV)
           1        1                 -6.4869821809                 -6.4870742227
           1        2                 13.5044133542                 13.5041049177
           1        3                 32.7854418792                 32.7779770519
           1        4                 33.7995553101                 33.7152624900 ***
           1        5                 28.8558651799                 28.8558652046
           1        6                 59.6361831893                 59.6362535845
           1        7                 60.2733718049                 60.2733715484
           2        8               -273.2358277112               -273.2358261765
           2        9                -10.7624923123                -10.7625144012
           2       10                 17.4634079027                 17.4634252127
           2       11                 53.0363661832                 53.0366180446
           2       12                 15.0981351967                 15.0981317714
           2       13                  3.8522181899                  3.8522770949
           2       14                 12.1181835661                 12.1206868578
           2       15                 29.4320778347                 29.4320780959
           2       16                 54.8753777694                 54.8752901936
           2       17                 59.3533975461                 59.3533974833
           2       18                 93.4537491195                 93.4537492066
           3       19               -384.4698526889               -384.4698499465
           3       20                 12.5691022037                 12.5690910168
           3       21                -15.7489097511                -15.7489165588
           3       22                 27.0978334940                 27.0985589490
           3       23                 18.5949116966                 18.5949125562
           3       24                  1.2212828291                  1.2212855301
           3       25                 13.4428926797                 13.4434051125
           3       26                 35.9380614500                 35.9380613666
           3       27                 39.9231532098                 39.9231654735
           3       28                 72.9957335806                 72.9957336833
           3       29                116.4231321147                116.4231321431
           4       30               -514.2564144315               -514.2564099626
           4       31                 15.1726678541                 15.1726530877
           4       32                -21.5447785304                -21.5447874973
           4       33                 14.4944558459                 14.4944698284
           4       34                 20.8882174564                 20.8882178906
           4       35                 -2.4850315908                 -2.4850322289
           4       36                 13.8600193195                 13.8599826966
           4       37                 45.8243383616                 45.8243383675
           4       38                 52.1840606465                 52.1840622440
           4       39                 85.4074185510                 85.4074185819
           4       40                142.0983717302                142.0983717339
 * Note: Onsite integrals marked "***" above are less accurate than
 * onsite_accuracy_threshold =    0.03000 eV. Usually, this is harmless.
 * When in doubt, tighten the "radial" and/or "radial_multiplier" flags to check.

  Preparing densities etc. for the partition functions (integrals / Hartree potential).

  Preparations completed.
  max(cpu_time)          :      0.240 s.
  Wall clock time (cpu1) :      0.239 s.
------------------------------------------------------------

------------------------------------------------------------
          Begin self-consistency loop: Initialization.

          Date     :  20170309, Time     :  184141.732
------------------------------------------------------------

  Initializing index lists of integration centers etc. from given atomic structure:
  | Number of centers in hartree potential         :        32
  | Number of centers in hartree multipole         :        32
  | Number of centers in electron density summation:        32
  | Number of centers in basis integrals           :        32
  | Number of centers in integrals                 :        32
  | Number of centers in hamiltonian               :        32
  Using modified Scalapack Eigenvalue solver (ELPA)
  * Using 32 tasks for Scalapack Eigenvalue solver.
  Detailed listing of tasks and assigned k-points:
  (for non-periodic systems, the "k-point" denotes an internal label only)
   Task     0 k-point     1 on eos026
   Task     1 k-point     1 on eos026
   Task     2 k-point     1 on eos026
   Task     3 k-point     1 on eos026
   Task     4 k-point     1 on eos026
   Task     5 k-point     1 on eos026
   Task     6 k-point     1 on eos026
   Task     7 k-point     1 on eos026
   Task     8 k-point     1 on eos026
   Task     9 k-point     1 on eos026
   Task    10 k-point     1 on eos026
   Task    11 k-point     1 on eos026
   Task    12 k-point     1 on eos026
   Task    13 k-point     1 on eos026
   Task    14 k-point     1 on eos026
   Task    15 k-point     1 on eos026
   Task    16 k-point     1 on eos026
   Task    17 k-point     1 on eos026
   Task    18 k-point     1 on eos026
   Task    19 k-point     1 on eos026
   Task    20 k-point     1 on eos026
   Task    21 k-point     1 on eos026
   Task    22 k-point     1 on eos026
   Task    23 k-point     1 on eos026
   Task    24 k-point     1 on eos026
   Task    25 k-point     1 on eos026
   Task    26 k-point     1 on eos026
   Task    27 k-point     1 on eos026
   Task    28 k-point     1 on eos026
   Task    29 k-point     1 on eos026
   Task    30 k-point     1 on eos026
   Task    31 k-point     1 on eos026
  Tasks:    32 split into      8 X      4 BLACS grid
  Calculating blocksize based on n_basis =          840 max_nprow =            8 max_npcol =            4
  Scalapack blocksize set to:           16
  Required Scalapack workspace - INTEGER:            1 REAL:             1
  Partitioning the integration grid into batches with parallel hashing+maxmin method.
  | Number of batches:     4934
  | Maximal batch size:     200
  | Minimal batch size:      50
  | Average batch size:     106.957
  | Standard deviation of batch sizes:      33.097

  Integration load balanced across    32 MPI tasks.
  Work distribution over tasks is as follows:
  Task     0 has      16539 integration points.
  Task     1 has      16536 integration points.
  Task     2 has      16532 integration points.
  Task     3 has      16512 integration points.
  Task     4 has      16433 integration points.
  Task     5 has      16480 integration points.
  Task     6 has      16521 integration points.
  Task     7 has      16415 integration points.
  Task     8 has      16434 integration points.
  Task     9 has      16524 integration points.
  Task    10 has      16468 integration points.
  Task    11 has      16490 integration points.
  Task    12 has      16395 integration points.
  Task    13 has      16485 integration points.
  Task    14 has      16484 integration points.
  Task    15 has      16386 integration points.
  Task    16 has      16534 integration points.
  Task    17 has      16484 integration points.
  Task    18 has      16477 integration points.
  Task    19 has      16436 integration points.
  Task    20 has      16544 integration points.
  Task    21 has      16548 integration points.
  Task    22 has      16514 integration points.
  Task    23 has      16519 integration points.
  Task    24 has      16526 integration points.
  Task    25 has      16478 integration points.
  Task    26 has      16516 integration points.
  Task    27 has      16439 integration points.
  Task    28 has      16517 integration points.
  Task    29 has      16538 integration points.
  Task    30 has      16542 integration points.
  Task    31 has      16482 integration points.
  Initializing partition tables, free-atom densities, potentials, etc. across the integration grid (initialize_grid_storage).
  | initialize_grid_storage: Actual outermost partition radius vs. multipole_radius_free
  | (-- VB: in principle, multipole_radius_free should be larger, hence this output)
  | Species        1: Confinement radius =              6.000000000000000 AA, multipole_radius_free =              6.071692442739658 AA.
  | Species        1: outer_partition_radius set to              6.071692442739658 AA .
  | Species        2: Confinement radius =              6.000000000000000 AA, multipole_radius_free =              6.029870734432609 AA.
  | Species        2: outer_partition_radius set to              6.029870734432609 AA .
  | Species        3: Confinement radius =              6.000000000000000 AA, multipole_radius_free =              6.058726835495003 AA.
  | Species        3: outer_partition_radius set to              6.058726835495003 AA .
  | Species        4: Confinement radius =              6.000000000000000 AA, multipole_radius_free =              6.064445521808699 AA.
  | Species        4: outer_partition_radius set to              6.064445521808699 AA .
  | Original list of interatomic distances with          32 x         32 entries is created.
  | Net number of integration points:   527728
  | of which are non-zero points    :   412614
  Obtaining max. number of non-zero basis functions in each batch (get_n_compute_maxes).
  | Maximal number of non-zero basis functions:      796 in task     0
  | Maximal number of non-zero basis functions:      810 in task     1
  | Maximal number of non-zero basis functions:      799 in task     2
  | Maximal number of non-zero basis functions:      803 in task     3
  | Maximal number of non-zero basis functions:      799 in task     4
  | Maximal number of non-zero basis functions:      792 in task     5
  | Maximal number of non-zero basis functions:      787 in task     6
  | Maximal number of non-zero basis functions:      795 in task     7
  | Maximal number of non-zero basis functions:      792 in task     8
  | Maximal number of non-zero basis functions:      804 in task     9
  | Maximal number of non-zero basis functions:      813 in task    10
  | Maximal number of non-zero basis functions:      797 in task    11
  | Maximal number of non-zero basis functions:      799 in task    12
  | Maximal number of non-zero basis functions:      799 in task    13
  | Maximal number of non-zero basis functions:      788 in task    14
  | Maximal number of non-zero basis functions:      808 in task    15
  | Maximal number of non-zero basis functions:      793 in task    16
  | Maximal number of non-zero basis functions:      796 in task    17
  | Maximal number of non-zero basis functions:      794 in task    18
  | Maximal number of non-zero basis functions:      811 in task    19
  | Maximal number of non-zero basis functions:      795 in task    20
  | Maximal number of non-zero basis functions:      801 in task    21
  | Maximal number of non-zero basis functions:      799 in task    22
  | Maximal number of non-zero basis functions:      789 in task    23
  | Maximal number of non-zero basis functions:      795 in task    24
  | Maximal number of non-zero basis functions:      784 in task    25
  | Maximal number of non-zero basis functions:      788 in task    26
  | Maximal number of non-zero basis functions:      794 in task    27
  | Maximal number of non-zero basis functions:      799 in task    28
  | Maximal number of non-zero basis functions:      791 in task    29
  | Maximal number of non-zero basis functions:      792 in task    30
  | Maximal number of non-zero basis functions:      799 in task    31
  Selecting the method for density update.
  Loop over occupied states selected for charge density update.
  Integrating Hamiltonian matrix: batch-based integration.
  Time summed over all CPUs for integration: real work       23.103 s, elapsed       23.911 s
  Integrating overlap matrix.
  Time summed over all CPUs for integration: real work       14.200 s, elapsed       14.651 s
  Deallocating overlap matrix.

  Updating Kohn-Sham eigenvalues, eigenvectors, occupation numbers, and Fermi level.
  Solving generalized eigenproblem
  Solving real symmetric generalised eigenvalue problem by standard ScaLAPACK.
  Transforming overlap matrix with ScaLAPACK and checking for singularities.
  : Overlap matrix is nonsingular, using Cholesky decomposition
  | Lowest eigenvalue:  0.807747E-04
  Factoring overlap matrix with Cholesky decomposition
  Using Cholesky factor for transformation
  Using 1-stage real ELPA solver
  Determining occupation numbers for Kohn-Sham eigenstates.
  | Chemical potential (Fermi level) in eV                 : -.95209072E+01
  | Error in electron count due to remaining E_F inaccuracy: 0.00000000E+00
  | Maximum occupation number of highest empty state:  0.00E+00

  Writing Kohn-Sham eigenvalues.

  State    Occupation    Eigenvalue [Ha]    Eigenvalue [eV]
      1       2.00000         -18.974293         -516.31679
      2       2.00000         -18.973916         -516.30652
      3       2.00000         -18.973884         -516.30566
      4       2.00000         -14.255002         -387.89833
      5       2.00000         -14.254151         -387.87517
      6       2.00000         -14.254078         -387.87320
      7       2.00000         -10.171105         -276.76986
      8       2.00000         -10.170855         -276.76304
      9       2.00000         -10.170718         -276.75930
     10       2.00000         -10.166508         -276.64476
     11       2.00000         -10.148660         -276.15909
     12       2.00000         -10.146735         -276.10671
     13       2.00000         -10.136178         -275.81943
     14       2.00000         -10.134555         -275.77527
     15       2.00000         -10.133683         -275.75153
     16       2.00000          -1.133927          -30.85571
     17       2.00000          -1.130673          -30.76718
     18       2.00000          -1.126646          -30.65759
     19       2.00000          -1.020951          -27.78149
     20       2.00000          -1.011208          -27.51637
     21       2.00000          -1.004234          -27.32660
     22       2.00000          -0.892641          -24.28999
     23       2.00000          -0.874315          -23.79133
     24       2.00000          -0.841729          -22.90461
     25       2.00000          -0.816980          -22.23114
     26       2.00000          -0.777414          -21.15450
     27       2.00000          -0.758616          -20.64299
     28       2.00000          -0.708070          -19.26756
     29       2.00000          -0.684360          -18.62238
     30       2.00000          -0.674694          -18.35937
     31       2.00000          -0.639218          -17.39402
     32       2.00000          -0.635109          -17.28218
     33       2.00000          -0.617038          -16.79047
     34       2.00000          -0.602334          -16.39034
     35       2.00000          -0.582986          -15.86384
     36       2.00000          -0.579035          -15.75634
     37       2.00000          -0.566216          -15.40753
     38       2.00000          -0.560486          -15.25160
     39       2.00000          -0.557450          -15.16899
     40       2.00000          -0.554843          -15.09805
     41       2.00000          -0.548924          -14.93698
     42       2.00000          -0.540110          -14.69713
     43       2.00000          -0.533127          -14.50713
     44       2.00000          -0.530461          -14.43458
     45       2.00000          -0.523099          -14.23426
     46       2.00000          -0.516471          -14.05389
     47       2.00000          -0.512150          -13.93632
     48       2.00000          -0.504328          -13.72347
     49       2.00000          -0.487376          -13.26219
     50       2.00000          -0.486689          -13.24348
     51       2.00000          -0.481561          -13.10393
     52       2.00000          -0.472890          -12.86799
     53       2.00000          -0.415680          -11.31122
     54       2.00000          -0.413183          -11.24329
     55       2.00000          -0.403472          -10.97902
     56       2.00000          -0.383916          -10.44690
     57       2.00000          -0.380517          -10.35441
     58       2.00000          -0.377576          -10.27436
     59       0.00000          -0.168173           -4.57623
     60       0.00000          -0.161588           -4.39703
     61       0.00000          -0.155157           -4.22203
     62       0.00000          -0.081914           -2.22901
     63       0.00000          -0.070986           -1.93162
     64       0.00000          -0.058044           -1.57946
     65       0.00000          -0.052610           -1.43160
     66       0.00000          -0.041017           -1.11614
     67       0.00000          -0.038880           -1.05797
     68       0.00000          -0.031780           -0.86478
     69       0.00000          -0.029938           -0.81465
     70       0.00000          -0.023074           -0.62789
     71       0.00000          -0.019703           -0.53614
     72       0.00000          -0.016264           -0.44256
     73       0.00000          -0.013446           -0.36587
     74       0.00000          -0.008137           -0.22143
     75       0.00000          -0.003832           -0.10427
     76       0.00000           0.000094            0.00255
     77       0.00000           0.002987            0.08127
     78       0.00000           0.007332            0.19951
     79       0.00000           0.012779            0.34772
     80       0.00000           0.015965            0.43443
     81       0.00000           0.021166            0.57595
     82       0.00000           0.030181            0.82126
     83       0.00000           0.040961            1.11462
     84       0.00000           0.045128            1.22800
     85       0.00000           0.049054            1.33484
     86       0.00000           0.051135            1.39145
     87       0.00000           0.057824            1.57348
     88       0.00000           0.060031            1.63352
     89       0.00000           0.062984            1.71388
     90       0.00000           0.068279            1.85797
     91       0.00000           0.074348            2.02312
     92       0.00000           0.079653            2.16747
     93       0.00000           0.084693            2.30460
     94       0.00000           0.086717            2.35968
     95       0.00000           0.098726            2.68647
     96       0.00000           0.101105            2.75121
     97       0.00000           0.106099            2.88710
     98       0.00000           0.117017            3.18418
     99       0.00000           0.123702            3.36611
    100       0.00000           0.124004            3.37431
    101       0.00000           0.132111            3.59493
    102       0.00000           0.138186            3.76023
    103       0.00000           0.140135            3.81326
    104       0.00000           0.142223            3.87010
    105       0.00000           0.147295            4.00809
    106       0.00000           0.149120            4.05776
    107       0.00000           0.156397            4.25578
    108       0.00000           0.161881            4.40502
    109       0.00000           0.171117            4.65634
    110       0.00000           0.172723            4.70003
    111       0.00000           0.175841            4.78488
    112       0.00000           0.177814            4.83858
    113       0.00000           0.186627            5.07838
    114       0.00000           0.189994            5.17001
    115       0.00000           0.196205            5.33900
    116       0.00000           0.201601            5.48584
    117       0.00000           0.206132            5.60915
    118       0.00000           0.215259            5.85750
    119       0.00000           0.220787            6.00793
    120       0.00000           0.223309            6.07656
    121       0.00000           0.225566            6.13797
    122       0.00000           0.227269            6.18430
    123       0.00000           0.229820            6.25371
    124       0.00000           0.233295            6.34827
    125       0.00000           0.245415            6.67807
    126       0.00000           0.248974            6.77492
    127       0.00000           0.249998            6.80279
    128       0.00000           0.256767            6.98699
    129       0.00000           0.272296            7.40955

  Highest occupied state (VBM) at    -10.27436445 eV
  | Occupation number:      2.00000000

  Lowest unoccupied state (CBM) at    -4.57623067 eV
  | Occupation number:      0.00000000

  Overall HOMO-LUMO gap:      5.69813378 eV.
  Calculating total energy contributions from superposition of free atom densities.

  Total energy components:
  | Sum of eigenvalues            :        -437.85404592 Ha      -11914.61479849 eV
  | XC energy correction          :         -98.81881760 Ha       -2688.99684158 eV
  | XC potential correction       :         127.02016353 Ha        3456.39450913 eV
  | Free-atom electrostatic energy:        -333.63340810 Ha       -9078.62694975 eV
  | Hartree energy correction     :           0.00000000 Ha           0.00000000 eV
  | MBD@rsSCS energy              :           0.00000000 Ha           0.00000000 eV
  | Entropy correction            :          -0.00000000 Ha          -0.00000000 eV
  | ---------------------------
  | Total energy                  :        -743.28610809 Ha      -20225.84408069 eV
  | Total energy, T -> 0          :        -743.28610809 Ha      -20225.84408069 eV  <-- do not rely on this value for anything but (periodic) metals
  | Electronic free energy        :        -743.28610809 Ha      -20225.84408069 eV

  Derived energy quantities:
  | Kinetic energy                :         735.15354696 Ha       20004.54583273 eV
  | Electrostatic energy          :       -1379.62083744 Ha      -37541.39307185 eV
  | Energy correction for multipole
  | error in Hartree potential    :           0.00000000 Ha           0.00000000 eV
  | Sum of eigenvalues per atom                           :        -372.33171245 eV
  | Total energy (T->0) per atom                          :        -632.05762752 eV  <-- do not rely on this value for anything but (periodic) metals
  | Electronic free energy per atom                       :        -632.05762752 eV
  Initialize hartree_potential_storage
  Max. number of atoms included in rho_multipole:           32

  End scf initialization - timings             :  max(cpu_time)    wall_clock(cpu1)
  | Time for scf. initialization               :        1.932 s           1.932 s
  | Boundary condition initialization          :        0.000 s           0.000 s
  | Integration                                :        1.228 s           1.227 s
  | Solution of K.-S. eqns.                    :        0.076 s           0.075 s
  | Grid partitioning                          :        0.264 s           0.261 s
  | Preloading free-atom quantities on grid    :        0.028 s           0.028 s
  | Free-atom superposition energy             :        0.040 s           0.040 s
  | Total energy evaluation                    :        0.004 s           0.000 s
------------------------------------------------------------

------------------------------------------------------------
          Begin self-consistency iteration #    1

  Date     :  20170309, Time     :  184143.665
------------------------------------------------------------
  Evaluating new KS density.
  Integration grid: deviation in total charge (<rho> - N_e) =   2.842171E-14
  Pulay mixing of updated and previous charge densities.

  Evaluating partitioned Hartree potential by multipole expansion.
  | Analytical far-field extrapolation by fixed multipoles:
  | Hartree multipole sum: apparent total charge =  -0.352168E-04
  Summing up the Hartree potential.
  Time summed over all CPUs for potential: real work        9.606 s, elapsed        9.853 s
  | RMS charge density error from multipole expansion :   0.105147E-01

  Integrating Hamiltonian matrix: batch-based integration.
  Time summed over all CPUs for integration: real work       22.939 s, elapsed       23.684 s

  Updating Kohn-Sham eigenvalues, eigenvectors, occupation numbers, and Fermi level.
  Solving generalized eigenproblem
  Solving real symmetric generalised eigenvalue problem by standard ScaLAPACK.
  Using Cholesky factor for transformation
  Using 2-stage real ELPA solver
  K-Point:    1, Trafo times: 1-stage=     0.021 s, 2-stage=     0.019 s ==> Using 2-stage solver
  Determining occupation numbers for Kohn-Sham eigenstates.
  | Chemical potential (Fermi level) in eV                 : -.38370814E+01
  | Error in electron count due to remaining E_F inaccuracy: 0.00000000E+00
  | Maximum occupation number of highest empty state:  0.00E+00

  Writing Kohn-Sham eigenvalues.

  State    Occupation    Eigenvalue [Ha]    Eigenvalue [eV]
      1       2.00000         -18.642084         -507.27693
      2       2.00000         -18.612296         -506.46634
      3       2.00000         -18.596459         -506.03541
      4       2.00000         -14.014145         -381.34430
      5       2.00000         -13.977567         -380.34896
      6       2.00000         -13.974396         -380.26265
      7       2.00000         -10.070739         -274.03876
      8       2.00000         -10.047231         -273.39906
      9       2.00000         -10.034998         -273.06620
     10       2.00000          -9.969492         -271.28368
     11       2.00000          -9.943282         -270.57047
     12       2.00000          -9.892182         -269.17996
     13       2.00000          -9.863572         -268.40146
     14       2.00000          -9.834826         -267.61922
     15       2.00000          -9.831737         -267.53517
     16       2.00000          -0.977051          -26.58690
     17       2.00000          -0.955275          -25.99435
     18       2.00000          -0.943251          -25.66716
     19       2.00000          -0.882415          -24.01172
     20       2.00000          -0.857387          -23.33069
     21       2.00000          -0.842726          -22.93173
     22       2.00000          -0.750085          -20.41085
     23       2.00000          -0.715648          -19.47376
     24       2.00000          -0.696797          -18.96081
     25       2.00000          -0.668799          -18.19894
     26       2.00000          -0.629810          -17.13801
     27       2.00000          -0.614529          -16.72219
     28       2.00000          -0.581021          -15.81039
     29       2.00000          -0.548000          -14.91185
     30       2.00000          -0.545033          -14.83109
     31       2.00000          -0.516307          -14.04942
     32       2.00000          -0.492815          -13.41017
     33       2.00000          -0.465127          -12.65674
     34       2.00000          -0.456233          -12.41473
     35       2.00000          -0.446782          -12.15757
     36       2.00000          -0.438551          -11.93359
     37       2.00000          -0.431900          -11.75261
     38       2.00000          -0.428307          -11.65483
     39       2.00000          -0.410023          -11.15729
     40       2.00000          -0.405957          -11.04665
     41       2.00000          -0.393732          -10.71401
     42       2.00000          -0.389710          -10.60455
     43       2.00000          -0.387258          -10.53782
     44       2.00000          -0.375754          -10.22477
     45       2.00000          -0.370725          -10.08794
     46       2.00000          -0.360676           -9.81449
     47       2.00000          -0.357583           -9.73032
     48       2.00000          -0.356279           -9.69484
     49       2.00000          -0.350307           -9.53235
     50       2.00000          -0.345785           -9.40929
     51       2.00000          -0.330761           -9.00048
     52       2.00000          -0.321515           -8.74888
     53       2.00000          -0.259320           -7.05645
     54       2.00000          -0.235847           -6.41771
     55       2.00000          -0.231180           -6.29074
     56       2.00000          -0.215639           -5.86784
     57       2.00000          -0.204815           -5.57329
     58       2.00000          -0.193155           -5.25601
     59       0.00000          -0.064094           -1.74408
     60       0.00000          -0.049536           -1.34794
     61       0.00000          -0.037588           -1.02282
     62       0.00000          -0.032059           -0.87237
     63       0.00000          -0.022264           -0.60583
     64       0.00000          -0.014859           -0.40434
     65       0.00000          -0.006632           -0.18046
     66       0.00000           0.004556            0.12398
     67       0.00000           0.010121            0.27541
     68       0.00000           0.017008            0.46282
     69       0.00000           0.025343            0.68963
     70       0.00000           0.026628            0.72459
     71       0.00000           0.037086            1.00917
     72       0.00000           0.039338            1.07044
     73       0.00000           0.044157            1.20157
     74       0.00000           0.047151            1.28303
     75       0.00000           0.054923            1.49454
     76       0.00000           0.061920            1.68494
     77       0.00000           0.071008            1.93223
     78       0.00000           0.073934            2.01184
     79       0.00000           0.079724            2.16939
     80       0.00000           0.089404            2.43282
     81       0.00000           0.090811            2.47108
     82       0.00000           0.097865            2.66304
     83       0.00000           0.102963            2.80176
     84       0.00000           0.109848            2.98912
     85       0.00000           0.113835            3.09761
     86       0.00000           0.118340            3.22019
     87       0.00000           0.121493            3.30600
     88       0.00000           0.123913            3.37184
     89       0.00000           0.133424            3.63065
     90       0.00000           0.139791            3.80389
     91       0.00000           0.146697            3.99181
     92       0.00000           0.152935            4.16157
     93       0.00000           0.154047            4.19182
     94       0.00000           0.157732            4.29210
     95       0.00000           0.163151            4.43957
     96       0.00000           0.167039            4.54535
     97       0.00000           0.174555            4.74988
     98       0.00000           0.180247            4.90476
     99       0.00000           0.190132            5.17376
    100       0.00000           0.195862            5.32969
    101       0.00000           0.199025            5.41575
    102       0.00000           0.202380            5.50705
    103       0.00000           0.203605            5.54036
    104       0.00000           0.207026            5.63347
    105       0.00000           0.212793            5.79039
    106       0.00000           0.214579            5.83898
    107       0.00000           0.216166            5.88217
    108       0.00000           0.225921            6.14763
    109       0.00000           0.229536            6.24599
    110       0.00000           0.236863            6.44538
    111       0.00000           0.238263            6.48346
    112       0.00000           0.242833            6.60781
    113       0.00000           0.250534            6.81737
    114       0.00000           0.253928            6.90974
    115       0.00000           0.258964            7.04678
    116       0.00000           0.267861            7.28886
    117       0.00000           0.272232            7.40782
    118       0.00000           0.275521            7.49730
    119       0.00000           0.282322            7.68238
    120       0.00000           0.286729            7.80230
    121       0.00000           0.294094            8.00270
    122       0.00000           0.297029            8.08258
    123       0.00000           0.303954            8.27101
    124       0.00000           0.307265            8.36110
    125       0.00000           0.318148            8.65724
    126       0.00000           0.324006            8.81665
    127       0.00000           0.332091            9.03665
    128       0.00000           0.336450            9.15527
    129       0.00000           0.342776            9.32740

  Highest occupied state (VBM) at     -5.25601194 eV
  | Occupation number:      2.00000000

  Lowest unoccupied state (CBM) at    -1.74407943 eV
  | Occupation number:      0.00000000

  Overall HOMO-LUMO gap:      3.51193251 eV.

  Total energy components:
  | Sum of eigenvalues            :        -417.36974989 Ha      -11357.20874282 eV
  | XC energy correction          :        -100.74857256 Ha       -2741.50814578 eV
  | XC potential correction       :         129.52246414 Ha        3524.48557320 eV
  | Free-atom electrostatic energy:        -333.63340810 Ha       -9078.62694975 eV
  | Hartree energy correction     :         -20.48608286 Ha        -557.45467750 eV
  | MBD@rsSCS energy              :           0.00000000 Ha           0.00000000 eV
  | Entropy correction            :           0.00000000 Ha           0.00000000 eV
  | ---------------------------
  | Total energy                  :        -742.71534926 Ha      -20210.31294266 eV
  | Total energy, T -> 0          :        -742.71534926 Ha      -20210.31294266 eV  <-- do not rely on this value for anything but (periodic) metals
  | Electronic free energy        :        -742.71534926 Ha      -20210.31294266 eV

  Derived energy quantities:
  | Kinetic energy                :         744.00959787 Ha       20245.53123926 eV
  | Electrostatic energy          :       -1385.97637456 Ha      -37714.33603614 eV
  | Energy correction for multipole
  | error in Hartree potential    :          -0.04185436 Ha          -1.13891498 eV
  | Sum of eigenvalues per atom                           :        -354.91277321 eV
  | Total energy (T->0) per atom                          :        -631.57227946 eV  <-- do not rely on this value for anything but (periodic) metals
  | Electronic free energy per atom                       :        -631.57227946 eV

  Self-consistency convergence accuracy:
  | Change of charge density      :  0.9016E+00
  | Change of sum of eigenvalues  :  0.5574E+03 eV
  | Change of total energy        :  0.1553E+02 eV

  End self-consistency iteration #     1       :  max(cpu_time)    wall_clock(cpu1)
  | Time for this iteration                    :        1.608 s           1.608 s
[...]
   Multipole                     : -0.988390E-01 -0.477548E+00 -0.261034E+00
   Pulay + GGA                   : -0.270625E+01 -0.112564E+02 -0.606255E+01
   MBD@rsSCS                     :  0.546899E-02 -0.178682E-01 -0.938157E-02
   ----------------------------------------------------------------
   Total forces(  20)            :  0.105692E-01 -0.239889E-02 -0.120745E-01
  atom #   21
   Hellmann-Feynman              :  0.100667E-01 -0.188085E-02  0.449675E-01
   Ionic forces                  :  0.000000E+00  0.000000E+00  0.000000E+00
   Multipole                     :  0.280652E-02  0.428265E-01 -0.113879E-01
   Pulay + GGA                   : -0.872672E-02 -0.426545E-01 -0.351680E-01
   MBD@rsSCS                     : -0.595371E-02  0.529484E-02  0.322668E-02
   ----------------------------------------------------------------
   Total forces(  21)            : -0.180721E-02  0.358607E-02  0.163828E-02
  atom #   22
   Hellmann-Feynman              : -0.468090E-01 -0.656020E-02 -0.257151E-01
   Ionic forces                  :  0.000000E+00  0.000000E+00  0.000000E+00
   Multipole                     : -0.775922E-02 -0.182069E-02 -0.548767E-02
   Pulay + GGA                   :  0.593402E-01  0.104104E-01  0.289107E-01
   MBD@rsSCS                     : -0.300659E-02 -0.470394E-02 -0.146749E-02
   ----------------------------------------------------------------
   Total forces(  22)            :  0.176532E-02 -0.267442E-02 -0.375954E-02
  atom #   23
   Hellmann-Feynman              :  0.504643E+00  0.417353E+00 -0.855428E+00
   Ionic forces                  :  0.000000E+00  0.000000E+00  0.000000E+00
   Multipole                     : -0.406098E-01 -0.549590E-01  0.294819E+00
   Pulay + GGA                   : -0.457699E+00 -0.345704E+00  0.558760E+00
   MBD@rsSCS                     : -0.141439E-01 -0.110095E-01  0.780050E-02
   ----------------------------------------------------------------
   Total forces(  23)            : -0.780964E-02  0.568051E-02  0.595182E-02
  atom #   24
   Hellmann-Feynman              : -0.193812E-01 -0.313999E-01  0.584212E-01
   Ionic forces                  :  0.000000E+00  0.000000E+00  0.000000E+00
   Multipole                     :  0.637864E-02 -0.189861E-01 -0.317048E-01
   Pulay + GGA                   :  0.140599E-01  0.542424E-01 -0.206060E-01
   MBD@rsSCS                     : -0.602888E-02 -0.286057E-02  0.850933E-02
   ----------------------------------------------------------------
   Total forces(  24)            : -0.497149E-02  0.995803E-03  0.146196E-01
  atom #   25
   Hellmann-Feynman              :  0.230820E-01  0.124160E-01  0.363995E-01
   Ionic forces                  :  0.000000E+00  0.000000E+00  0.000000E+00
   Multipole                     :  0.226475E-01  0.715346E-02  0.880043E-02
   Pulay + GGA                   : -0.444903E-01 -0.225861E-01 -0.405087E-01
   MBD@rsSCS                     : -0.133906E-01 -0.965569E-02  0.995096E-02
   ----------------------------------------------------------------
   Total forces(  25)            : -0.121515E-01 -0.126723E-01  0.146423E-01
  atom #   26
   Hellmann-Feynman              : -0.347137E-01  0.724035E-02  0.441836E-01
   Ionic forces                  :  0.000000E+00  0.000000E+00  0.000000E+00
   Multipole                     : -0.190370E-01  0.172545E-01 -0.224639E-01
   Pulay + GGA                   :  0.535701E-01 -0.275382E-01 -0.173623E-01
   MBD@rsSCS                     : -0.561203E-02 -0.692168E-02  0.864319E-02
   ----------------------------------------------------------------
   Total forces(  26)            : -0.579273E-02 -0.996502E-02  0.130006E-01
  atom #   27
   Hellmann-Feynman              :  0.478113E+00  0.132440E+01  0.711835E+00
   Ionic forces                  :  0.000000E+00  0.000000E+00  0.000000E+00
   Multipole                     :  0.883933E-01  0.108979E+00  0.264717E-01
   Pulay + GGA                   : -0.577270E+00 -0.142800E+01 -0.741648E+00
   MBD@rsSCS                     :  0.241538E-01 -0.164404E-01 -0.242303E-02
   ----------------------------------------------------------------
   Total forces(  27)            :  0.133899E-01 -0.110596E-01 -0.576441E-02
  atom #   28
   Hellmann-Feynman              : -0.937347E+00 -0.149071E+01 -0.108503E+01
   Ionic forces                  :  0.000000E+00  0.000000E+00  0.000000E+00
   Multipole                     :  0.518263E-01  0.955628E-01  0.359899E-01
   Pulay + GGA                   :  0.883014E+00  0.141903E+01  0.105392E+01
   MBD@rsSCS                     :  0.262886E-01 -0.953119E-02  0.581532E-02
   ----------------------------------------------------------------
   Total forces(  28)            :  0.237828E-01  0.143474E-01  0.106999E-01
  atom #   29
   Hellmann-Feynman              :  0.748492E-01  0.236874E-02  0.964784E-02
   Ionic forces                  :  0.000000E+00  0.000000E+00  0.000000E+00
   Multipole                     : -0.257191E-01 -0.334835E-01 -0.204432E-01
   Pulay + GGA                   : -0.569514E-01  0.351027E-01  0.124668E-01
   MBD@rsSCS                     :  0.462497E-02 -0.598531E-02 -0.242788E-02
   ----------------------------------------------------------------
   Total forces(  29)            : -0.319631E-02 -0.199732E-02 -0.756390E-03
  atom #   30
   Hellmann-Feynman              :  0.367358E-01  0.313603E-01  0.231605E-01
   Ionic forces                  :  0.000000E+00  0.000000E+00  0.000000E+00
   Multipole                     :  0.142263E-01 -0.355469E-01 -0.211394E-02
   Pulay + GGA                   : -0.603653E-01  0.847947E-02 -0.218183E-01
   MBD@rsSCS                     :  0.520135E-02  0.764914E-03  0.239065E-02
   ----------------------------------------------------------------
   Total forces(  30)            : -0.420180E-02  0.505782E-02  0.161893E-02
  atom #   31
   Hellmann-Feynman              :  0.213450E-01  0.627205E-01  0.200703E-01
   Ionic forces                  :  0.000000E+00  0.000000E+00  0.000000E+00
   Multipole                     :  0.213578E-02  0.136059E-01 -0.304585E-01
   Pulay + GGA                   : -0.250036E-01 -0.669053E-01  0.123143E-01
   MBD@rsSCS                     :  0.188186E-01 -0.163523E-01  0.534266E-02
   ----------------------------------------------------------------
   Total forces(  31)            :  0.172958E-01 -0.693110E-02  0.726873E-02
  atom #   32
   Hellmann-Feynman              :  0.688566E-02  0.389469E-01  0.284299E-01
   Ionic forces                  :  0.000000E+00  0.000000E+00  0.000000E+00
   Multipole                     : -0.153280E-01 -0.141432E-01  0.240113E-01
   Pulay + GGA                   :  0.255713E-01 -0.129351E-01 -0.484075E-01
   MBD@rsSCS                     :  0.224754E-01 -0.853764E-02  0.193777E-02
   ----------------------------------------------------------------
   Total forces(  32)            :  0.396044E-01  0.333091E-02  0.597154E-02

  Removing unitary transformations (pure translations, rotations) from forces on atoms.
  Atomic forces before filtering:
  | Net force on center of mass :  -0.166971E-03 -0.833869E-03 -0.658628E-04 eV/A
  | Net torque on center of mass:  -0.324952E-02  0.273226E-03 -0.301393E-02 eV
  Atomic forces after filtering:
  | Net force on center of mass :   0.000000E+00 -0.306636E-16  0.104535E-16 eV/A
  | Net torque on center of mass:   0.000000E+00  0.221270E-16  0.413037E-16 eV

  Energy and forces in a compact form:
  | Total energy uncorrected      :         -0.202090442027672E+05 eV
  | Total energy corrected        :         -0.202090442027672E+05 eV  <-- do not rely on this value for anything but (periodic) metals
  | Electronic free energy        :         -0.202090442027672E+05 eV
  Total atomic forces (unitary forces cleaned) [eV/Ang]:
  |   1         -0.243628483538958E-02         -0.565351601135501E-02         -0.264706609187081E-02
  |   2          0.355444726794921E-01          0.271499938079774E-01          0.352193957445669E-01
  |   3         -0.146560578550598E-02         -0.577168764356494E-02          0.253494340835753E-01
  |   4          0.630735883233602E-02          0.197690726692296E-02          0.652660553758482E-02
  |   5          0.517085345933468E-02          0.278917247929058E-02          0.598070204781354E-03
  |   6          0.486175758945924E-02         -0.396658259704731E-03         -0.636174206717931E-03
  |   7          0.194623382728292E-01          0.143975879834954E-01         -0.212193250816507E-01
  |   8         -0.116440804150589E-02         -0.245964972470841E-02         -0.112175025474175E-01
  |   9          0.140219498771621E-02          0.521697266223166E-02         -0.259127476779206E-01
  |  10          0.418977821669731E-02          0.725100347231013E-02         -0.102879225806482E-01
  |  11         -0.586587715899936E-02         -0.703276104151988E-02          0.604921231007338E-03
  |  12          0.910796607247866E-02         -0.655035214928602E-02          0.234411124015053E-02
  |  13         -0.256794853629121E-01          0.250079792167002E-01         -0.230638034633886E-01
  |  14         -0.885606350291081E-02          0.389282208221324E-02          0.576448783855894E-02
  |  15         -0.348401787563177E-01          0.190682386097956E-01         -0.553592132090947E-02
  |  16         -0.100039795853900E-01          0.182323641090027E-02          0.455214478830346E-02
  |  17         -0.429505117196796E-01         -0.353933874030865E-01         -0.246609483329429E-01
  |  18         -0.193171848458976E-01          0.206903926378162E-03          0.163945691370107E-02
  |  19          0.336808350885559E-03         -0.312199948735883E-01         -0.109317299330307E-01
  |  20          0.105191010071503E-01         -0.239144854375613E-02         -0.120069109391122E-01
  |  21         -0.180158886917052E-02          0.363189821035445E-02          0.164189119010108E-02
  |  22          0.173801182374653E-02         -0.264091785349496E-02         -0.371706836681034E-02
  |  23         -0.783539743038733E-02          0.574652575287786E-02          0.599576409511711E-02
  |  24         -0.501178637678658E-02          0.106461975697382E-02          0.146815969751170E-01
  |  25         -0.121723928943235E-01         -0.126027693430485E-01          0.146806799144721E-01
  |  26         -0.581149585314481E-02         -0.988281399411680E-02          0.130376667224925E-01
  |  27          0.133608681421263E-01         -0.110572716075472E-01         -0.572310966824729E-02
  |  28          0.237705757277007E-01          0.143549024283244E-01          0.107213101522683E-01
  |  29         -0.323478296895131E-02         -0.200950493248823E-02         -0.705041261612490E-03
  |  30         -0.421651914164680E-02          0.505834457284552E-02          0.164264311819118E-02
  |  31          0.172946060954451E-01         -0.693535187687488E-02          0.727547020165632E-02
  |  32          0.395968518715215E-01          0.336097661854873E-02          0.598962152063444E-02

  ------------------------------------ 
  Start decomposition of the XC Energy 
  ------------------------------------ 
  Hartree-Fock part   :          0.000000000 Ha              0.000000000 eV
  ------------------------------------ 
  X Energy            :        -96.988162465 Ha          -2639.182180786 eV
  C Energy GGA        :         -3.869193608 Ha           -105.286114967 eV
  Total XC Energy     :       -100.857356073 Ha          -2744.468295752 eV
  LDA X and C from self-consistent density 
  X Energy LDA        :        -88.005659589 Ha          -2394.755841249 eV
  C Energy LDA        :         -7.532394167 Ha           -204.966873882 eV
  ------------------------------------ 
  End decomposition of the XC Energy 
  ------------------------------------ 
   
  ESP charge fitting starts.
  | Calculation :  00000001  of  00000001
  | Full density
  Computing multipole expansion for total density.
  Generating points for esp charges.
  Partitioning the integration grid into batches with parallel hashing+maxmin method.
  | Number of batches:     3864
  | Maximal batch size:     199
  | Minimal batch size:      52
  | Average batch size:     125.700
  | Standard deviation of batch sizes:      18.372

  Integration load balanced across    32 MPI tasks.
  Work distribution over tasks is as follows:
  Initializing partition tables, free-atom densities, potentials, etc. across the integration grid (initialize_grid_storage).
  | Original list of interatomic distances with          32 x         32 entries is created.
  | Net number of integration points:   485703
  | of which are non-zero points    :   485703
  Summing up potential from multipole expanded  density.
  Summing up the Hartree potential.
  Time summed over all CPUs for potential: real work        6.433 s, elapsed        6.644 s
  Fitting esp charges to potential.
  |
  | ESP charges fitted to the electrostatic potential :
  |
  | Atom         1: C, ESP charge:      0.76727702
  |
  | Atom         2: C, ESP charge:     -0.56577732
  |
  | Atom         3: O, ESP charge:      0.45159291
  |
  | Atom         4: H, ESP charge:     -0.19617742
  |
  | Atom         5: H, ESP charge:     -0.23923586
  |
  | Atom         6: H, ESP charge:     -0.22040259
  |
  | Atom         7: N, ESP charge:      0.43359780
  |
  | Atom         8: C, ESP charge:     -0.26177604
  |
  | Atom         9: C, ESP charge:     -0.36415316
  |
  | Atom        10: O, ESP charge:      0.52371177
  |
  | Atom        11: H, ESP charge:     -0.29427297
  |
  | Atom        12: H, ESP charge:     -0.04888910
  |
  | Atom        13: C, ESP charge:      0.54814681
  |
  | Atom        14: H, ESP charge:     -0.15238662
  |
  | Atom        15: H, ESP charge:     -0.16672511
  |
  | Atom        16: H, ESP charge:     -0.15044372
  |
  | Atom        17: N, ESP charge:      0.13332329
  |
  | Atom        18: C, ESP charge:     -0.21144669
  |
  | Atom        19: C, ESP charge:     -0.46297772
  |
  | Atom        20: O, ESP charge:      0.52712703
  |
  | Atom        21: H, ESP charge:     -0.09513106
  |
  | Atom        22: H, ESP charge:     -0.10699508
  |
  | Atom        23: C, ESP charge:      0.94565178
  |
  | Atom        24: H, ESP charge:     -0.26809415
  |
  | Atom        25: H, ESP charge:     -0.28896377
  |
  | Atom        26: H, ESP charge:     -0.25531947
  |
  | Atom        27: N, ESP charge:      0.50788160
  |
  | Atom        28: C, ESP charge:     -0.21132133
  |
  | Atom        29: H, ESP charge:     -0.31620511
  |
  | Atom        30: H, ESP charge:     -0.03702173
  |
  | Atom        31: H, ESP charge:      0.04020606
  |
  | Atom        32: H, ESP charge:      0.03519994

  RRMS:       0.00230870

  Done.

------------------------------------------------------------------------------
  Final output of selected total energy values:

  The following output summarizes some interesting total energy values
  at the end of a run (AFTER all relaxation, molecular dynamics, etc.).

  | Total energy of the DFT / Hartree-Fock s.c.f. calculation      :         -20209.044202767 eV
  | Final zero-broadening corrected energy (caution - metals only) :         -20209.044202767 eV
  | For reference only, the value of 1 Hartree used in FHI-aims is :             27.211384500 eV

  Before relying on these values, please be sure to understand exactly which
  total energy value is referred to by a given number. Different objects may
  all carry the same name 'total energy'. Definitions:

  Total energy of the DFT / Hartree-Fock s.c.f. calculation:
  | Note that this energy does not include ANY quantities calculated after the
  | s.c.f. cycle, in particular not ANY RPA, MP2, etc. many-body perturbation terms.

  Final zero-broadening corrected energy:
  | For metallic systems only, a broadening of the occupation numbers at the Fermi
  | level can be extrapolated back to zero broadening by an electron-gas inspired
  | formula. For all systems that are not real metals, this value can be
  | meaningless and should be avoided.

------------------------------------------------------------------------------
  Methods described in the following list of references were used in this FHI-aims run.
  If you publish the results, please make sure to cite these reference if they apply.
  FHI-aims is an academic code, and for our developers (often, Ph.D. students
  and postdocs), scientific credit in the community is essential.
  Thank you for helping us!

  For any use of FHI-aims, please cite:

    Volker Blum, Ralf Gehrke, Felix Hanke, Paula Havu, Ville Havu,
    Xinguo Ren, Karsten Reuter, and Matthias Scheffler
    'Ab initio molecular simulations with numeric atom-centered orbitals'
    Computer Physics Communications 180, 2175-2196 (2009)
    http://dx.doi.org/10.1016/j.cpc.2009.06.022


  The scalable eigensolver library ELPA was used in your run.
  ELPA is essential especially for large systems on hundreds or thousands of CPUs.
  For ELPA, please cite:

    Andreas Marek, Volker Blum, Rainer Johanni, Ville Havu, Bruno Lang,
    Thomas Auckenthaler, Alexander Heinecke, Hans-Joachim Bungartz, and Hermann Lederer,
    'The ELPA Library - Scalable Parallel Eigenvalue Solutions
    for Electronic Structure Theory and Computational Science'
    The Journal of Physics: Condensed Matter 26, 213201 (2014).
    http://dx.doi.org/10.1088/0953-8984/26/21/213201


  For ELPA's efficient two-stage tridiagonalization used in your run, please cite:

    T. Auckenthaler, V. Blum, H.-J. Bungartz, T. Huckle, R. Johanni, L. Kraemer,
    B. Lang, H. Lederer, and P. R. Willems,
    'Parallel solution of partial symmetric eigenvalue problems'
    'from  electronic structure calculations'
    Parallel Computing 37, 783-794 (2011).
    http://dx.doi.org/10.1016/j.parco.2011.05.002


  For the real-space grid partitioning and parallelization used in this calculation, please cite:

    Ville Havu, Volker Blum, Paula Havu, and Matthias Scheffler,
    'Efficient O(N) integration for all-electron electronic structure calculation'
    'using numerically tabulated basis functions'
    Journal of Computational Physics 228, 8367-8379 (2009).
    http://dx.doi.org/10.1016/j.jcp.2009.08.008

  Of course, there are many other important community references, e.g., those cited in the
  above references. Our list is limited to references that describe implementations in the
  FHI-aims code. The reason is purely practical (length of this list) - please credit others as well.

------------------------------------------------------------
          Leaving FHI-aims.
          Date     :  20170309, Time     :  184215.290

          Computational steps:
          | Number of self-consistency cycles          :           14

          Detailed time accounting                     :  max(cpu_time)    wall_clock(cpu1)
          | Total time                                 :       34.418 s          34.602 s
          | Preparation time                           :        0.240 s           0.239 s
          | Grid partitioning                          :        0.264 s           0.261 s
          | Preloading free-atom quantities on grid    :        0.028 s           0.028 s
          | Free-atom superposition energy             :        0.040 s           0.040 s
          | Total time for integrations                :       11.805 s          11.790 s
          | Total time for solution of K.-S. equations :        0.536 s           0.504 s
          | Total time for density & force components  :       10.133 s          10.104 s
          | Total time for mixing                      :        0.128 s           0.107 s
          | Total time for Hartree multipole update    :        0.088 s           0.060 s
          | Total time for Hartree multipole sum       :        6.320 s           6.286 s
          | Total time for total energy evaluation     :        0.028 s           0.023 s

          Have a nice day.
------------------------------------------------------------
