  MPI-parallelism will be employed.
------------------------------------------------------------
          Invoking FHI-aims ...
          Version 150427
          Git rev.: 9dd23e0 BL: Update Version stamp
          Compiled on 2015/11/03 at 22:05:20 on host eos03.

          When using FHI-aims, please cite the following reference:

          Volker Blum, Ralf Gehrke, Felix Hanke, Paula Havu,
          Ville Havu, Xinguo Ren, Karsten Reuter, and Matthias Scheffler,
          'Ab Initio Molecular Simulations with Numeric Atom-Centered Orbitals: FHI-aims',
          Computer Physics Communications 180, 2175-2196 (2009)

          For any questions about FHI-aims, please visit the aimsclub website
          with its forums and wiki. Contributions to both the forums and the
          wiki are warmly encouraged - they are for you, and everyone is welcome there.

------------------------------------------------------------

  Date     :  20170309, Time     :  183355.414
  Time zero on CPU 1             :   0.272017000000000E+00  s.
  Internal wall clock time zero  :           258316435.414  s.

  Using       32 parallel tasks.
  Task        0 on host eos195 reporting.
  Task        1 on host eos195 reporting.
  Task        2 on host eos195 reporting.
  Task        3 on host eos195 reporting.
  Task        4 on host eos195 reporting.
  Task        5 on host eos195 reporting.
  Task        6 on host eos195 reporting.
  Task        7 on host eos195 reporting.
  Task        8 on host eos195 reporting.
  Task        9 on host eos195 reporting.
  Task       10 on host eos195 reporting.
  Task       11 on host eos195 reporting.
  Task       12 on host eos195 reporting.
  Task       13 on host eos195 reporting.
  Task       14 on host eos195 reporting.
  Task       15 on host eos195 reporting.
  Task       16 on host eos195 reporting.
  Task       17 on host eos195 reporting.
  Task       18 on host eos195 reporting.
  Task       19 on host eos195 reporting.
  Task       20 on host eos195 reporting.
  Task       21 on host eos195 reporting.
  Task       22 on host eos195 reporting.
  Task       23 on host eos195 reporting.
  Task       24 on host eos195 reporting.
  Task       25 on host eos195 reporting.
  Task       26 on host eos195 reporting.
  Task       27 on host eos195 reporting.
  Task       28 on host eos195 reporting.
  Task       29 on host eos195 reporting.
  Task       30 on host eos195 reporting.
  Task       31 on host eos195 reporting.

  Performing system and environment tests:
  | Environment variable OMP_NUM_THREADS correctly set to 1.
  | Stacksize not measured: no C compiler
  | Checking for scalapack...
  | Testing pdtran()...
  | All pdtran() tests passed.

  Obtaining array dimensions for all initial allocations:
  
  -----------------------------------------------------------------------
  Parsing control.in (first pass over file, find array dimensions only).
  The contents of control.in will be repeated verbatim below
  unless switched off by setting 'verbatim_writeout .false.' .
  in the first line of control.in .
  -----------------------------------------------------------------------
  
  #########################################################################################
  #
  # Input for System
  #
  #########################################################################################
  #
  #
  #  Physical model
  #
    xc                 pbe
    many_body_dispersion
    spin               none
    charge             0.
  #
  #  SCF convergence
  #
    occupation_type    gaussian 0.05
    mixer              pulay
      n_max_pulay        10
      charge_mix_param   0.5
    sc_accuracy_rho    1E-4
    sc_accuracy_eev    1E-2
    sc_accuracy_etot   1E-5
    sc_accuracy_forces 1E-4
    sc_iter_limit      1000
  #
  #  ESP charge
  #
    output esp
    esp equal_grid_n 80 80 80
  #
  #
  ################################################################################
  #
  #  FHI-aims code project
  # Volker Blum, Fritz Haber Institute Berlin, 2009
  #
  #  Suggested "tight" defaults for H atom (to be pasted into control.in file)
  #
  ################################################################################
    species        H
  #     global species definitions
      nucleus             1
      mass                1.00794
  #
      l_hartree           6
  #
      cut_pot             4.0  2.0  1.0
      basis_dep_cutoff    1e-4
  #
      radial_base         24 7.0
      radial_multiplier   2
      angular_grids       specified
        division   0.1930   50
        division   0.3175  110
        division   0.4293  194
        division   0.5066  302
        division   0.5626  434
  #      division   0.5922  590
  #      division   0.6227  974
  #      division   0.6868 1202
  #      outer_grid  770
        outer_grid  434
  ################################################################################
  #
  #  Definition of "minimal" basis
  #
  ################################################################################
  #     valence basis states
      valence      1  s   1.
  #     ion occupancy
      ion_occ      1  s   0.5
  ################################################################################
  #
  #  Suggested additional basis functions. For production calculations,
  #  uncomment them one after another (the most important basis functions are
  #  listed first).
  #
  #  Basis constructed for dimers: 0.5 A, 0.7 A, 1.0 A, 1.5 A, 2.5 A
  #
  ################################################################################
  #  "First tier" - improvements: -1014.90 meV to -62.69 meV
       hydro 2 s 2.1
       hydro 2 p 3.5
  #  "Second tier" - improvements: -12.89 meV to -1.83 meV
       hydro 1 s 0.85
       hydro 2 p 3.7
       hydro 2 s 1.2
       hydro 3 d 7
  #  "Third tier" - improvements: -0.25 meV to -0.12 meV
  #     hydro 4 f 11.2
  #     hydro 3 p 4.8
  #     hydro 4 d 9
  #     hydro 3 s 3.2
  ################################################################################
  #
  # For methods that use the localized form of the "resolution of identity" for
  # the two-electron Coulomb operator (RI_method LVL), particularly Hartree-Fock and
  # hybrid density functional calculations, the highest accuracy can be obtained by
  # uncommenting the line beginning with "for_aux"  below, thus adding an extra g radial
  # function to the construction of the product basis set for the expansion.
  # See Ref. New J. Phys. 17, 093020 (2015) for more information, particularly Figs. 1 and 6.
  #
  ################################################################################
  #
  # for_aux hydro 5 g 6.0
  ################################################################################
  #
  #  FHI-aims code project
  # Volker Blum, Fritz Haber Institute Berlin, 2009
  #
  #  Suggested "tight" defaults for C atom (to be pasted into control.in file)
  #
  ################################################################################
    species        C
  #     global species definitions
      nucleus             6
      mass                12.0107
  #
      l_hartree           6
  #
      cut_pot             4.0  2.0  1.0
      basis_dep_cutoff    1e-4
  #
      radial_base         34 7.0
      radial_multiplier   2
      angular_grids specified
        division   0.2187   50
        division   0.4416  110
        division   0.6335  194
        division   0.7727  302
        division   0.8772  434
  #      division   0.9334  590
  #      division   0.9924  770
  #      division   1.0230  974
  #      division   1.5020 1202
  #     outer_grid  974
        outer_grid  434
  ################################################################################
  #
  #  Definition of "minimal" basis
  #
  ################################################################################
  #     valence basis states
      valence      2  s   2.
      valence      2  p   2.
  #     ion occupancy
      ion_occ      2  s   1.
      ion_occ      2  p   1.
  ################################################################################
  #
  #  Suggested additional basis functions. For production calculations,
  #  uncomment them one after another (the most important basis functions are
  #  listed first).
  #
  #  Constructed for dimers: 1.0 A, 1.25 A, 1.5 A, 2.0 A, 3.0 A
  #
  ################################################################################
  #  "First tier" - improvements: -1214.57 meV to -155.61 meV
       hydro 2 p 1.7
       hydro 3 d 6
       hydro 2 s 4.9
  #  "Second tier" - improvements: -67.75 meV to -5.23 meV
       hydro 4 f 9.8
       hydro 3 p 5.2
       hydro 3 s 4.3
       hydro 5 g 14.4
       hydro 3 d 6.2
  #  "Third tier" - improvements: -2.43 meV to -0.60 meV
  #     hydro 2 p 5.6
  #     hydro 2 s 1.4
  #     hydro 3 d 4.9
  #     hydro 4 f 11.2
  #  "Fourth tier" - improvements: -0.39 meV to -0.18 meV
  #     hydro 2 p 2.1
  #     hydro 5 g 16.4
  #     hydro 4 d 13.2
  #     hydro 3 s 13.6
  #     hydro 4 f 17.6
  #  Further basis functions - improvements: -0.08 meV and below
  #     hydro 3 s 2
  #     hydro 3 p 6
  #     hydro 4 d 20
  ################################################################################
  #
  # For methods that use the localized form of the "resolution of identity" for
  # the two-electron Coulomb operator (RI_method LVL), particularly Hartree-Fock and
  # hybrid density functional calculations, the highest accuracy can be obtained by
  # uncommenting the line beginning with "for_aux"  below, thus adding an extra g radial
  # function to the construction of the product basis set for the expansion.
  # See Ref. New J. Phys. 17, 093020 (2015) for more information, particularly Figs. 1 and 6.
  #
  ################################################################################
  #
  # for_aux hydro 5 g 6.0
  ################################################################################
  #
  #  FHI-aims code project
  # Volker Blum, Fritz Haber Institute Berlin, 2009
  #
  #  Suggested "tight" defaults for N atom (to be pasted into control.in file)
  #
  ################################################################################
    species        N
  #     global species definitions
      nucleus             7
      mass                14.0067
  #
      l_hartree           6
  #
      cut_pot             4.0  2.0  1.0
      basis_dep_cutoff    1e-4
  #
      radial_base         35 7.0
      radial_multiplier   2
      angular_grids       specified
        division   0.1841   50
        division   0.3514  110
        division   0.5126  194
        division   0.6292  302
        division   0.6939  434
  #      division   0.7396  590
  #      division   0.7632  770
  #      division   0.8122  974
  #      division   1.1604 1202
  #      outer_grid  974
        outer_grid  434
  ################################################################################
  #
  #  Definition of "minimal" basis
  #
  ################################################################################
  #     valence basis states
      valence      2  s   2.
      valence      2  p   3.
  #     ion occupancy
      ion_occ      2  s   1.
      ion_occ      2  p   2.
  ################################################################################
  #
  #  Suggested additional basis functions. For production calculations,
  #  uncomment them one after another (the most important basis functions are
  #  listed first).
  #
  #  Constructed for dimers: 1.0 A, 1.1 A, 1.5 A, 2.0 A, 3.0 A
  #
  ################################################################################
  #  "First tier" - improvements: -1193.42 meV to -220.60 meV
       hydro 2 p 1.8
       hydro 3 d 6.8
       hydro 3 s 5.8
  #  "Second tier" - improvements: -80.21 meV to -6.86 meV
       hydro 4 f 10.8
       hydro 3 p 5.8
       hydro 1 s 0.8
       hydro 5 g 16
       hydro 3 d 4.9
  #  "Third tier" - improvements: -4.29 meV to -0.53 meV
  #     hydro 3 s 16
  #     ionic 2 p auto
  #     hydro 3 d 6.6
  #     hydro 4 f 11.6
  #  "Fourth tier" - improvements: -0.75 meV to -0.25 meV
  #     hydro 2 p 4.5
  #     hydro 2 s 2.4
  #     hydro 5 g 14.4
  #     hydro 4 d 14.4
  #     hydro 4 f 16.8
  # Further basis functions - -0.21 meV and below
  #     hydro 3 p 14.8
  #     hydro 3 s 4.4
  #     hydro 3 d 19.6
  #     hydro 5 g 12.8
  ################################################################################
  #
  # For methods that use the localized form of the "resolution of identity" for
  # the two-electron Coulomb operator (RI_method LVL), particularly Hartree-Fock and
  # hybrid density functional calculations, the highest accuracy can be obtained by
  # uncommenting the line beginning with "for_aux"  below, thus adding an extra g radial
  # function to the construction of the product basis set for the expansion.
  # See Ref. New J. Phys. 17, 093020 (2015) for more information, particularly Figs. 1 and 6.
  #
  ################################################################################
  #
  # for_aux hydro 5 g 6.0
  ################################################################################
  #
  #  FHI-aims code project
  # Volker Blum, Fritz Haber Institute Berlin, 2009
  #
  #  Suggested "tight" defaults for O atom (to be pasted into control.in file)
  #
  ################################################################################
    species        O
  #     global species definitions
      nucleus             8
      mass                15.9994
  #
      l_hartree           6
  #
      cut_pot             4.0  2.0  1.0
      basis_dep_cutoff    1e-4
  #
      radial_base         36 7.0
      radial_multiplier   2
       angular_grids specified
        division   0.1817   50
        division   0.3417  110
        division   0.4949  194
        division   0.6251  302
        division   0.8014  434
  #      division   0.8507  590
  #      division   0.8762  770
  #      division   0.9023  974
  #      division   1.2339 1202
  #      outer_grid 974
        outer_grid  434
  ################################################################################
  #
  #  Definition of "minimal" basis
  #
  ################################################################################
  #     valence basis states
      valence      2  s   2.
      valence      2  p   4.
  #     ion occupancy
      ion_occ      2  s   1.
      ion_occ      2  p   3.
  ################################################################################
  #
  #  Suggested additional basis functions. For production calculations,
  #  uncomment them one after another (the most important basis functions are
  #  listed first).
  #
  #  Constructed for dimers: 1.0 A, 1.208 A, 1.5 A, 2.0 A, 3.0 A
  #
  ################################################################################
  #  "First tier" - improvements: -699.05 meV to -159.38 meV
       hydro 2 p 1.8
       hydro 3 d 7.6
       hydro 3 s 6.4
  #  "Second tier" - improvements: -49.91 meV to -5.39 meV
       hydro 4 f 11.6
       hydro 3 p 6.2
       hydro 3 d 5.6
       hydro 5 g 17.6
       hydro 1 s 0.75
  #  "Third tier" - improvements: -2.83 meV to -0.50 meV
  #     ionic 2 p auto
  #     hydro 4 f 10.8
  #     hydro 4 d 4.7
  #     hydro 2 s 6.8
  #  "Fourth tier" - improvements: -0.40 meV to -0.12 meV
  #     hydro 3 p 5
  #     hydro 3 s 3.3
  #     hydro 5 g 15.6
  #     hydro 4 f 17.6
  #     hydro 4 d 14
  # Further basis functions - -0.08 meV and below
  #     hydro 3 s 2.1
  #     hydro 4 d 11.6
  #     hydro 3 p 16
  #     hydro 2 s 17.2
  ################################################################################
  #
  # For methods that use the localized form of the "resolution of identity" for
  # the two-electron Coulomb operator (RI_method LVL), particularly Hartree-Fock and
  # hybrid density functional calculations, the highest accuracy can be obtained by
  # uncommenting the line beginning with "for_aux"  below, thus adding an extra g radial
  # function to the construction of the product basis set for the expansion.
  # See Ref. New J. Phys. 17, 093020 (2015) for more information, particularly Figs. 1 and 6.
  #
  ################################################################################
  #
  # for_aux hydro 5 g 6.0
  
  -----------------------------------------------------------------------
  Completed first pass over input file control.in .
  -----------------------------------------------------------------------
  
  
  -----------------------------------------------------------------------
  Parsing geometry.in (first pass over file, find array dimensions only).
  The contents of geometry.in will be repeated verbatim below
  unless switched off by setting 'verbatim_writeout .false.' .
  in the first line of geometry.in .
  -----------------------------------------------------------------------
  
  #
  # This is the geometry file that corresponds to the current relaxation step.
  # If you do not want this file to be written, set the "write_restart_geometry" flag to .false.
  #
  atom       0.00284269      1.71719690      0.05069872 C
  atom       0.11504702      1.41389520      1.53743069 C
  atom       1.07886641      1.78180625      2.20376839 O
  atom       0.92099003      2.22461651     -0.25636748 H
  atom      -0.85081135      2.37847651     -0.15877690 H
  atom      -0.12184111      0.80697925     -0.55236902 H
  atom      -0.91970980      0.72322086      2.11340297 N
  atom      -2.09211684      0.16166441      1.46669239 C
  atom      -3.24700703      0.23876542      2.47785385 C
  atom      -3.05761297     -0.05097449      3.65690375 O
  atom      -0.83282796      0.53745861      3.11132565 H
  atom      -2.31991866      0.76660594      0.58042087 H
  atom      -1.88980964     -1.30794263      1.04882518 C
  atom      -2.79231635     -1.72290506      0.57993652 H
  atom      -1.65075210     -1.91337266      1.93206455 H
  atom      -1.05838188     -1.38652362      0.33708243 H
  atom      -4.49389139      0.58131242      2.02425011 N
  atom      -4.86335414      1.21676335      0.74996921 C
  atom      -6.13854013      2.06732383      0.92724444 C
  atom      -6.13148695      3.24838022      0.59512735 O
  atom      -5.15614504      0.67482556      2.79104093 H
  atom      -4.10949326      1.97415254      0.49543068 H
  atom      -4.99697586      0.24673631     -0.43586989 C
  atom      -5.36067959      0.79189130     -1.31681803 H
  atom      -5.68827445     -0.57682807     -0.22395419 H
  atom      -4.02515723     -0.19012251     -0.69496039 H
  atom      -7.25772826      1.49566243      1.47951932 N
  atom      -7.61739120      0.09205006      1.63925611 C
  atom      -8.02400680      2.16317603      1.52454271 H
  atom      -8.29823065     -0.00905367      2.49332055 H
  atom      -6.73584722     -0.52253610      1.84475167 H
  atom      -8.11824127     -0.31200510      0.74514186 H
  
  -----------------------------------------------------------------------
  Completed first pass over input file geometry.in .
  -----------------------------------------------------------------------
  

  Basic array size parameters:
  | Number of species                 :        4
  | Number of atoms                   :       32
  | Max. basis fn. angular momentum   :        4
  | Max. atomic/ionic basis occupied n:        2
  | Max. number of basis fn. types    :        2
  | Max. radial fns per species/type  :        8
  | Max. logarithmic grid size        :     1301
  | Max. radial integration grid size :       73
  | Max. angular integration grid size:      434
  | Max. angular grid division number :        8
  | Radial grid for Hartree potential :     1301
  | Number of spin channels           :        1

------------------------------------------------------------
          Reading file control.in.
------------------------------------------------------------
  XC: Using PBE gradient-corrected functionals.
  Self-consistent screening and van der Waals energy (TS, TS+SCS,MBD) module
  Spin treatment: No spin polarisation.
  Charge =   0.000000E+00: Neutral system requested explicitly.
  Occupation type: Gaussian broadening, width =   0.500000E-01 eV.
  Using pulay charge density mixing.
  Pulay mixing - number of memorized iterations:   10
  Charge density mixing - mixing parameter:     0.5000
  Convergence accuracy of self-consistent charge density:  0.1000E-03
  Convergence accuracy of sum of eigenvalues:  0.1000E-01
  Convergence accuracy of total energy:  0.1000E-04
  Convergence accuracy of forces:  0.1000E-03
  Maximum number of s.-c. iterations  :  1000
  Fitting ESP-charges to Potential. 
  | Esp charge output options: 
  | ESP Grid method: 3, cubic grid
  | Number of points in x, ,y, z:  0080 0080 0080
  |
 
  Reading configuration options for species H                   .
  | Found nuclear charge :   1.0000
  | Found atomic mass :    1.00794000000000      amu
  | Found l_max for Hartree potential  :   6
  | Found cutoff potl. onset [A], width [A], scale factor :    4.00000    2.00000    1.00000
  | Threshold for basis-dependent cutoff potential is   0.100000E-03
  | Found data for basic radial integration grid :    24 points, outermost radius =    7.000 A
  | Found multiplier for basic radial grid :   2
  | Found angular grid specification: user-specified.
  | Specified grid contains     6 separate shells.
  | Check grid settings after all constraints further below.
  | Found free-atom valence shell :  1 s   1.000
  | No ionic wave fns used. Skipping ion_occ.
  | Found hydrogenic basis function :  2 s   2.100
  | Found hydrogenic basis function :  2 p   3.500
  | Found hydrogenic basis function :  1 s   0.850
  | Found hydrogenic basis function :  2 p   3.700
  | Found hydrogenic basis function :  2 s   1.200
  | Found hydrogenic basis function :  3 d   7.000
  Species H                   : Missing cutoff potential type.
  Defaulting to exp(1/x)/(1-x)^2 type cutoff potential.
  Species H : No 'logarithmic' tag. Using default grid for free atom:
  | Default logarithmic grid data [bohr] : 0.1000E-03 0.1000E+03 0.1012E+01
  Species H : On-site basis accuracy parameter (for Gram-Schmidt orthonormalisation) not specified.
  Using default value basis_acc =  0.1000000E-03.
  Species H                   : Using default innermost maximum threshold i_radial=  2 for radial functions.
  Species H                   : Default cutoff onset for free atom density etc. : 0.40000000E+01 AA.
  Species H                   : Basic radial grid will be enhanced according to radial_multiplier =   2, to contain    49 grid points.
 
  Reading configuration options for species C                   .
  | Found nuclear charge :   6.0000
  | Found atomic mass :    12.0107000000000      amu
  | Found l_max for Hartree potential  :   6
  | Found cutoff potl. onset [A], width [A], scale factor :    4.00000    2.00000    1.00000
  | Threshold for basis-dependent cutoff potential is   0.100000E-03
  | Found data for basic radial integration grid :    34 points, outermost radius =    7.000 A
  | Found multiplier for basic radial grid :   2
  | Found angular grid specification: user-specified.
  | Specified grid contains     6 separate shells.
  | Check grid settings after all constraints further below.
  | Found free-atom valence shell :  2 s   2.000
  | Found free-atom valence shell :  2 p   2.000
  | No ionic wave fns used. Skipping ion_occ.
  | No ionic wave fns used. Skipping ion_occ.
  | Found hydrogenic basis function :  2 p   1.700
  | Found hydrogenic basis function :  3 d   6.000
  | Found hydrogenic basis function :  2 s   4.900
  | Found hydrogenic basis function :  4 f   9.800
  | Found hydrogenic basis function :  3 p   5.200
  | Found hydrogenic basis function :  3 s   4.300
  | Found hydrogenic basis function :  5 g  14.400
  | Found hydrogenic basis function :  3 d   6.200
  Species C                   : Missing cutoff potential type.
  Defaulting to exp(1/x)/(1-x)^2 type cutoff potential.
  Species C : No 'logarithmic' tag. Using default grid for free atom:
  | Default logarithmic grid data [bohr] : 0.1000E-03 0.1000E+03 0.1012E+01
  Species C : On-site basis accuracy parameter (for Gram-Schmidt orthonormalisation) not specified.
  Using default value basis_acc =  0.1000000E-03.
  Species C                   : Using default innermost maximum threshold i_radial=  2 for radial functions.
  Species C                   : Default cutoff onset for free atom density etc. : 0.40000000E+01 AA.
  Species C                   : Basic radial grid will be enhanced according to radial_multiplier =   2, to contain    69 grid points.
 
  Reading configuration options for species N                   .
  | Found nuclear charge :   7.0000
  | Found atomic mass :    14.0067000000000      amu
  | Found l_max for Hartree potential  :   6
  | Found cutoff potl. onset [A], width [A], scale factor :    4.00000    2.00000    1.00000
  | Threshold for basis-dependent cutoff potential is   0.100000E-03
  | Found data for basic radial integration grid :    35 points, outermost radius =    7.000 A
  | Found multiplier for basic radial grid :   2
  | Found angular grid specification: user-specified.
  | Specified grid contains     6 separate shells.
  | Check grid settings after all constraints further below.
  | Found free-atom valence shell :  2 s   2.000
  | Found free-atom valence shell :  2 p   3.000
  | No ionic wave fns used. Skipping ion_occ.
  | No ionic wave fns used. Skipping ion_occ.
  | Found hydrogenic basis function :  2 p   1.800
  | Found hydrogenic basis function :  3 d   6.800
  | Found hydrogenic basis function :  3 s   5.800
  | Found hydrogenic basis function :  4 f  10.800
  | Found hydrogenic basis function :  3 p   5.800
  | Found hydrogenic basis function :  1 s   0.800
  | Found hydrogenic basis function :  5 g  16.000
  | Found hydrogenic basis function :  3 d   4.900
  Species N                   : Missing cutoff potential type.
  Defaulting to exp(1/x)/(1-x)^2 type cutoff potential.
  Species N : No 'logarithmic' tag. Using default grid for free atom:
  | Default logarithmic grid data [bohr] : 0.1000E-03 0.1000E+03 0.1012E+01
  Species N : On-site basis accuracy parameter (for Gram-Schmidt orthonormalisation) not specified.
  Using default value basis_acc =  0.1000000E-03.
  Species N                   : Using default innermost maximum threshold i_radial=  2 for radial functions.
  Species N                   : Default cutoff onset for free atom density etc. : 0.40000000E+01 AA.
  Species N                   : Basic radial grid will be enhanced according to radial_multiplier =   2, to contain    71 grid points.
 
  Reading configuration options for species O                   .
  | Found nuclear charge :   8.0000
  | Found atomic mass :    15.9994000000000      amu
  | Found l_max for Hartree potential  :   6
  | Found cutoff potl. onset [A], width [A], scale factor :    4.00000    2.00000    1.00000
  | Threshold for basis-dependent cutoff potential is   0.100000E-03
  | Found data for basic radial integration grid :    36 points, outermost radius =    7.000 A
  | Found multiplier for basic radial grid :   2
  | Found angular grid specification: user-specified.
  | Specified grid contains     6 separate shells.
  | Check grid settings after all constraints further below.
  | Found free-atom valence shell :  2 s   2.000
  | Found free-atom valence shell :  2 p   4.000
  | No ionic wave fns used. Skipping ion_occ.
  | No ionic wave fns used. Skipping ion_occ.
  | Found hydrogenic basis function :  2 p   1.800
  | Found hydrogenic basis function :  3 d   7.600
  | Found hydrogenic basis function :  3 s   6.400
  | Found hydrogenic basis function :  4 f  11.600
  | Found hydrogenic basis function :  3 p   6.200
  | Found hydrogenic basis function :  3 d   5.600
  | Found hydrogenic basis function :  5 g  17.600
  | Found hydrogenic basis function :  1 s   0.750
  Species O                   : Missing cutoff potential type.
  Defaulting to exp(1/x)/(1-x)^2 type cutoff potential.
  Species O : No 'logarithmic' tag. Using default grid for free atom:
  | Default logarithmic grid data [bohr] : 0.1000E-03 0.1000E+03 0.1012E+01
  Species O : On-site basis accuracy parameter (for Gram-Schmidt orthonormalisation) not specified.
  Using default value basis_acc =  0.1000000E-03.
  Species O                   : Using default innermost maximum threshold i_radial=  2 for radial functions.
  Species O                   : Default cutoff onset for free atom density etc. : 0.40000000E+01 AA.
  Species O                   : Basic radial grid will be enhanced according to radial_multiplier =   2, to contain    73 grid points.
 
  Finished reading input file 'control.in'. Consistency checks are next.
 
  Target number of points in a grid batch is not set. Defaulting to  100
  Method for grid partitioning is not set. Defaulting to parallel hash+maxmin partitioning.
  Batch size limit is not set. Defaulting to    200
  By default, will store active basis functions for each batch.
  If in need of memory, prune_basis_once .false. can be used to disable this option.
  communication_type for Hartree potential was not specified.
  Defaulting to calc_hartree .
  Pulay mixer: Number of initial linear mixing iterations not set.
  Defaulting to    0 iterations.
  Work space size for distributed Hartree potential not set.
  Defaulting to   0.200000E+03 MB.
  Algorithm-dependent basis array size parameters:
  | n_max_pulay                         :       10
  Geometry relaxation not requested: no relaxation will be performed.
  Handling of forces: Unphysical translation and rotation will be removed from forces.
  No accuracy limit for integral partition fn. given. Defaulting to  0.1000E-14.
  No threshold value for u(r) in integrations given. Defaulting to  0.1000E-05.
  No accuracy for occupation numbers given. Defaulting to  0.1000E-07.
  No threshold value for occupation numbers given. Defaulting to  0.0000E+00.
  No accuracy for fermi level given. Defaulting to  0.1000E-19.
  Maximum # of iterations to find E_F not set. Defaulting to  200.
  Preferred method for the eigenvalue solver ('KS_method') not specified in 'control.in'.
  Calling blacs routine to test compilation state
  Since scalapack support is enabled, defaulting to 'elpa'.
  Preferred method for the MBD eigenvalue solver ('mbd_eigensolver') not specified in 'control.in'.
  Calling blacs routine to test compilation state
  Since scalapack support is enabled, defaulting to 'scaLAPACK'.
  Will not use alltoall communication since running on < 1024 CPUs.
  Threshold for basis singularities not set.
  Default threshold for basis singularities:  0.1000E-04
  partition_type (choice of integration weights) for integrals was not specified.
  | Using a version of the partition function of Stratmann and coworkers ('stratmann_smoother').
  | At each grid point, the set of atoms used to build the partition table is smoothly restricted to
  | only those atoms whose free-atom density would be non-zero at that grid point.
  Partitioning for Hartree potential was not defined. Using partition_type for integrals.
  | Adjusted default value of keyword multip_moments_threshold to:       0.10000000E-11
  | This value may affect high angular momentum components of the Hartree potential in periodic systems.
  No q(lm)/r^(l+1) cutoff set for long-range Hartree potential.
  | Using default value of  0.100000E-09 .
  | Verify using the multipole_threshold keyword.
  Defaulting to new monopole extrapolation.
  Density update method: automatic selection selected.
------------------------------------------------------------


------------------------------------------------------------
          Reading geometry description geometry.in.
------------------------------------------------------------
 * Warning! You did not set the 'relativistic' flag in input file 'control.in'.
 * Since you are not attempting to treat any elements beyond Ca(Z=20), FHI-aims
 * will default to 'relativistic none'.
 * You must ensure that this is really what you want!!
 * For example, DO NOT compute total-energy differences between results from
 * different settings of the 'relativistic' flag.
  Input structure read successfully.
  The structure contains       32 atoms,  and a total of        116.000 electrons.

  Input geometry:
  | No unit cell requested.
  | Atomic structure:
  |       Atom                x [A]            y [A]            z [A]
  |    1: Species C              0.002843         1.717197         0.050699
  |    2: Species C              0.115047         1.413895         1.537431
  |    3: Species O              1.078866         1.781806         2.203768
  |    4: Species H              0.920990         2.224617        -0.256367
  |    5: Species H             -0.850811         2.378477        -0.158777
  |    6: Species H             -0.121841         0.806979        -0.552369
  |    7: Species N             -0.919710         0.723221         2.113403
  |    8: Species C             -2.092117         0.161664         1.466692
  |    9: Species C             -3.247007         0.238765         2.477854
  |   10: Species O             -3.057613        -0.050974         3.656904
  |   11: Species H             -0.832828         0.537459         3.111326
  |   12: Species H             -2.319919         0.766606         0.580421
  |   13: Species C             -1.889810        -1.307943         1.048825
  |   14: Species H             -2.792316        -1.722905         0.579937
  |   15: Species H             -1.650752        -1.913373         1.932065
  |   16: Species H             -1.058382        -1.386524         0.337082
  |   17: Species N             -4.493891         0.581312         2.024250
  |   18: Species C             -4.863354         1.216763         0.749969
  |   19: Species C             -6.138540         2.067324         0.927244
  |   20: Species O             -6.131487         3.248380         0.595127
  |   21: Species H             -5.156145         0.674826         2.791041
  |   22: Species H             -4.109493         1.974153         0.495431
  |   23: Species C             -4.996976         0.246736        -0.435870
  |   24: Species H             -5.360680         0.791891        -1.316818
  |   25: Species H             -5.688274        -0.576828        -0.223954
  |   26: Species H             -4.025157        -0.190123        -0.694960
  |   27: Species N             -7.257728         1.495662         1.479519
  |   28: Species C             -7.617391         0.092050         1.639256
  |   29: Species H             -8.024007         2.163176         1.524543
  |   30: Species H             -8.298231        -0.009054         2.493321
  |   31: Species H             -6.735847        -0.522536         1.844752
  |   32: Species H             -8.118241        -0.312005         0.745142
  |

  | The smallest distance between any two atoms is         1.01724349 AA.
  |
  | The first atom of this pair is atom number                     27 .
  | The second atom of this pair is atom number                    29 .

  Number of empty states per atom not set in control.in - providing a guess from actual geometry.
  | Total number of empty states used during s.c.f. cycle:       71
  If you use a very high smearing, use empty_states (per atom!) in control.in to increase this value.

  Structure-dependent array size parameters: 
  | Maximum number of distinct radial functions  :       40
  | Maximum number of basis functions            :      840
  | Number of Kohn-Sham states (occupied + empty):      129
------------------------------------------------------------

------------------------------------------------------------
          Preparing all fixed parts of the calculation.
------------------------------------------------------------
  Determining machine precision:
    2.225073858507201E-308
  Setting up grids for atomic and cluster calculations.

  Creating wave function, potential, and density for free atoms.

  Species: H

  List of occupied orbitals and eigenvalues:
    n    l              occ      energy [Ha]    energy [eV]
    1    0           1.0000        -0.238382        -6.4867


  Species: C

  List of occupied orbitals and eigenvalues:
    n    l              occ      energy [Ha]    energy [eV]
    1    0           2.0000       -10.041232      -273.2358
    2    0           2.0000        -0.504327       -13.7234
    2    1           2.0000        -0.193750        -5.2722


  Species: N

  List of occupied orbitals and eigenvalues:
    n    l              occ      energy [Ha]    energy [eV]
    1    0           2.0000       -14.129007      -384.4699
    2    0           2.0000        -0.681802       -18.5528
    2    1           3.0000        -0.260543        -7.0897


  Species: O

  List of occupied orbitals and eigenvalues:
    n    l              occ      energy [Ha]    energy [eV]
    1    0           2.0000       -18.898576      -514.2564
    2    0           2.0000        -0.878795       -23.9132
    2    1           4.0000        -0.332075        -9.0362

  Creating fixed part of basis set: Ionic, confined, hydrogenic.
 
  H                    hydrogenic:
 
  List of hydrogenic basis orbitals: 
    n    l      effective z      eigenvalue [eV]  inner max. [A]     outer max. [A]     outer radius [A]   
    2    0         2.100000       -14.9965           0.193243           1.317208           5.373006
    2    1         3.500000       -41.6672           0.602369           0.602369           4.056063
    1    0         0.850000        -9.8292           0.624871           0.624871           5.373006
    2    1         3.700000       -46.5653           0.573622           0.573622           3.910002
    2    0         1.200000        -4.5995           0.334980           2.228188           5.505995
    3    2         7.000000       -74.0753           0.680699           0.680699           3.769201
 
 
  C                    hydrogenic:
 
  List of hydrogenic basis orbitals: 
    n    l      effective z      eigenvalue [eV]  inner max. [A]     outer max. [A]     outer radius [A]   
    2    1         1.700000        -9.8152           1.245706           1.245706           5.401630
    3    2         6.000000       -54.4226           0.792453           0.792453           4.178599
    2    0         4.900000       -81.6681           0.082559           0.562749           3.353238
    4    3         9.800000       -81.6681           0.863254           0.863254           4.028125
    3    1         5.200000       -40.8774           0.305389           1.215618           4.898362
    3    0         4.300000       -27.9508           0.091041           1.610311           5.401630
    5    4        14.400000      -112.8510           0.917666           0.917666           3.883070
    3    2         6.200000       -58.1113           0.763917           0.763917           4.077671
 
 
  N                    hydrogenic:
 
  List of hydrogenic basis orbitals: 
    n    l      effective z      eigenvalue [eV]  inner max. [A]     outer max. [A]     outer radius [A]   
    2    1         1.800000       -11.0118           1.177451           1.177451           5.427479
    3    2         6.800000       -69.9029           0.704619           0.704619           3.854246
    3    0         5.800000       -50.8549           0.067388           1.191934           4.629968
    4    3        10.800000       -99.1854           0.786571           0.786571           3.761152
    3    1         5.800000       -50.8549           0.274880           1.094176           4.518138
    1    0         0.800000        -8.7059           0.662839           0.662839           5.361532
    5    4        16.000000      -139.3222           0.825990           0.825990           3.625711
    3    2         4.900000       -36.2967           0.968267           0.968267           4.862000
 
 
  O                    hydrogenic:
 
  List of hydrogenic basis orbitals: 
    n    l      effective z      eigenvalue [eV]  inner max. [A]     outer max. [A]     outer radius [A]   
    2    1         1.800000       -11.0118           1.178562           1.178562           5.432602
    3    2         7.600000       -87.3182           0.624125           0.624125           3.541477
    3    0         6.400000       -61.9209           0.061167           1.081902           4.306578
    4    3        11.600000      -114.4238           0.731631           0.731631           3.585037
    3    1         6.200000       -58.1113           0.255680           1.030270           4.306578
    3    2         5.600000       -47.4081           0.847233           0.847233           4.413171
    5    4        17.600000      -168.5799           0.749740           0.749740           3.372465
    1    0         0.750000        -7.6499           0.705284           0.705284           5.366593
 

  Adding cutoff potential to free-atom effective potential.
  Creating atomic-like basis functions for current effective potential.

  Species H                   :

  List of atomic basis orbitals and eigenvalues:
    n    l      energy [Ha]    energy [eV]    outer radius [A]
    1    0        -0.238382        -6.4867       5.373006


  Species C                   :

  List of atomic basis orbitals and eigenvalues:
    n    l      energy [Ha]    energy [eV]    outer radius [A]
    1    0       -10.041232      -273.2358       1.934409
    2    0        -0.504327       -13.7234       5.271162
    2    1        -0.193750        -5.2722       5.401630


  Species N                   :

  List of atomic basis orbitals and eigenvalues:
    n    l      energy [Ha]    energy [eV]    outer radius [A]
    1    0       -14.129007      -384.4699       1.637919
    2    0        -0.681802       -18.5528       5.168461
    2    1        -0.260543        -7.0897       5.361532


  Species O                   :

  List of atomic basis orbitals and eigenvalues:
    n    l      energy [Ha]    energy [eV]    outer radius [A]
    1    0       -18.898576      -514.2564       1.415765
    2    0        -0.878795       -23.9132       5.048385
    2    1        -0.332075        -9.0362       5.301386

  Assembling full basis from fixed parts.
  | Species H :   atomic orbital   1 s accepted.
  | Species H :    hydro orbital   2 s accepted.
  | Species H :    hydro orbital   1 s accepted.
  | Species H :    hydro orbital   2 s accepted.
  | Species H :    hydro orbital   2 p accepted.
  | Species H :    hydro orbital   2 p accepted.
  | Species H :    hydro orbital   3 d accepted.
  | Species C :   atomic orbital   1 s accepted.
  | Species C :    hydro orbital   2 s accepted.
  | Species C :   atomic orbital   2 s accepted.
  | Species C :    hydro orbital   3 s accepted.
  | Species C :    hydro orbital   3 p accepted.
  | Species C :   atomic orbital   2 p accepted.
  | Species C :    hydro orbital   2 p accepted.
  | Species C :    hydro orbital   3 d accepted.
  | Species C :    hydro orbital   3 d accepted.
  | Species C :    hydro orbital   4 f accepted.
  | Species C :    hydro orbital   5 g accepted.
  | Species N :   atomic orbital   1 s accepted.
  | Species N :    hydro orbital   3 s accepted.
  | Species N :   atomic orbital   2 s accepted.
  | Species N :    hydro orbital   1 s accepted.
  | Species N :    hydro orbital   3 p accepted.
  | Species N :   atomic orbital   2 p accepted.
  | Species N :    hydro orbital   2 p accepted.
  | Species N :    hydro orbital   3 d accepted.
  | Species N :    hydro orbital   3 d accepted.
  | Species N :    hydro orbital   4 f accepted.
  | Species N :    hydro orbital   5 g accepted.
  | Species O :   atomic orbital   1 s accepted.
  | Species O :    hydro orbital   3 s accepted.
  | Species O :   atomic orbital   2 s accepted.
  | Species O :    hydro orbital   1 s accepted.
  | Species O :    hydro orbital   3 p accepted.
  | Species O :   atomic orbital   2 p accepted.
  | Species O :    hydro orbital   2 p accepted.
  | Species O :    hydro orbital   3 d accepted.
  | Species O :    hydro orbital   3 d accepted.
  | Species O :    hydro orbital   4 f accepted.
  | Species O :    hydro orbital   5 g accepted.
 
  Basis size parameters after reduction:
  | Total number of radial functions:       40
  | Total number of basis functions :      840
 
  Testing on-site integration grid accuracy.
  |  Species  Function  <phi|h_atom|phi> (log., in eV)  <phi|h_atom|phi> (rad., in eV)
           1        1                 -6.4869821809                 -6.4870742227
           1        2                 13.5044133542                 13.5041049177
           1        3                 32.7854418792                 32.7779770519
           1        4                 33.7995553101                 33.7152624900 ***
           1        5                 28.8558651799                 28.8558652046
           1        6                 59.6361831893                 59.6362535845
           1        7                 60.2733718049                 60.2733715484
           2        8               -273.2358277112               -273.2358261765
           2        9                -10.7624923123                -10.7625144012
           2       10                 17.4634079027                 17.4634252127
           2       11                 53.0363661832                 53.0366180446
           2       12                 15.0981351967                 15.0981317714
           2       13                  3.8522181899                  3.8522770949
           2       14                 12.1181835661                 12.1206868578
           2       15                 29.4320778347                 29.4320780959
           2       16                 54.8753777694                 54.8752901936
           2       17                 59.3533975461                 59.3533974833
           2       18                 93.4537491195                 93.4537492066
           3       19               -384.4698526889               -384.4698499465
           3       20                 12.5691022037                 12.5690910168
           3       21                -15.7489097511                -15.7489165588
           3       22                 27.0978334940                 27.0985589490
           3       23                 18.5949116966                 18.5949125562
           3       24                  1.2212828291                  1.2212855301
           3       25                 13.4428926797                 13.4434051125
           3       26                 35.9380614500                 35.9380613666
           3       27                 39.9231532098                 39.9231654735
           3       28                 72.9957335806                 72.9957336833
           3       29                116.4231321147                116.4231321431
           4       30               -514.2564144315               -514.2564099626
           4       31                 15.1726678541                 15.1726530877
           4       32                -21.5447785304                -21.5447874973
           4       33                 14.4944558459                 14.4944698284
           4       34                 20.8882174564                 20.8882178906
           4       35                 -2.4850315908                 -2.4850322289
           4       36                 13.8600193195                 13.8599826966
           4       37                 45.8243383616                 45.8243383675
           4       38                 52.1840606465                 52.1840622440
           4       39                 85.4074185510                 85.4074185819
           4       40                142.0983717302                142.0983717339
 * Note: Onsite integrals marked "***" above are less accurate than
 * onsite_accuracy_threshold =    0.03000 eV. Usually, this is harmless.
 * When in doubt, tighten the "radial" and/or "radial_multiplier" flags to check.

  Preparing densities etc. for the partition functions (integrals / Hartree potential).

  Preparations completed.
  max(cpu_time)          :      0.232 s.
  Wall clock time (cpu1) :      0.235 s.
------------------------------------------------------------

------------------------------------------------------------
          Begin self-consistency loop: Initialization.

          Date     :  20170309, Time     :  183356.485
------------------------------------------------------------

  Initializing index lists of integration centers etc. from given atomic structure:
  | Number of centers in hartree potential         :        32
  | Number of centers in hartree multipole         :        32
  | Number of centers in electron density summation:        32
  | Number of centers in basis integrals           :        32
  | Number of centers in integrals                 :        32
  | Number of centers in hamiltonian               :        32
  Using modified Scalapack Eigenvalue solver (ELPA)
  * Using 32 tasks for Scalapack Eigenvalue solver.
  Detailed listing of tasks and assigned k-points:
  (for non-periodic systems, the "k-point" denotes an internal label only)
   Task     0 k-point     1 on eos195
   Task     1 k-point     1 on eos195
   Task     2 k-point     1 on eos195
   Task     3 k-point     1 on eos195
   Task     4 k-point     1 on eos195
   Task     5 k-point     1 on eos195
   Task     6 k-point     1 on eos195
   Task     7 k-point     1 on eos195
   Task     8 k-point     1 on eos195
   Task     9 k-point     1 on eos195
   Task    10 k-point     1 on eos195
   Task    11 k-point     1 on eos195
   Task    12 k-point     1 on eos195
   Task    13 k-point     1 on eos195
   Task    14 k-point     1 on eos195
   Task    15 k-point     1 on eos195
   Task    16 k-point     1 on eos195
   Task    17 k-point     1 on eos195
   Task    18 k-point     1 on eos195
   Task    19 k-point     1 on eos195
   Task    20 k-point     1 on eos195
   Task    21 k-point     1 on eos195
   Task    22 k-point     1 on eos195
   Task    23 k-point     1 on eos195
   Task    24 k-point     1 on eos195
   Task    25 k-point     1 on eos195
   Task    26 k-point     1 on eos195
   Task    27 k-point     1 on eos195
   Task    28 k-point     1 on eos195
   Task    29 k-point     1 on eos195
   Task    30 k-point     1 on eos195
   Task    31 k-point     1 on eos195
  Tasks:    32 split into      8 X      4 BLACS grid
  Calculating blocksize based on n_basis =          840 max_nprow =            8 max_npcol =            4
  Scalapack blocksize set to:           16
  Required Scalapack workspace - INTEGER:            1 REAL:             1
  Partitioning the integration grid into batches with parallel hashing+maxmin method.
  | Number of batches:     5005
  | Maximal batch size:     192
  | Minimal batch size:      51
  | Average batch size:     105.440
  | Standard deviation of batch sizes:      28.678

  Integration load balanced across    32 MPI tasks.
  Work distribution over tasks is as follows:
  Task     0 has      16506 integration points.
  Task     1 has      16508 integration points.
  Task     2 has      16593 integration points.
  Task     3 has      16440 integration points.
  Task     4 has      16445 integration points.
  Task     5 has      16510 integration points.
  Task     6 has      16514 integration points.
  Task     7 has      16448 integration points.
  Task     8 has      16516 integration points.
  Task     9 has      16584 integration points.
  Task    10 has      16471 integration points.
  Task    11 has      16523 integration points.
  Task    12 has      16442 integration points.
  Task    13 has      16474 integration points.
  Task    14 has      16472 integration points.
  Task    15 has      16519 integration points.
  Task    16 has      16438 integration points.
  Task    17 has      16517 integration points.
  Task    18 has      16444 integration points.
  Task    19 has      16469 integration points.
  Task    20 has      16511 integration points.
  Task    21 has      16517 integration points.
  Task    22 has      16523 integration points.
  Task    23 has      16502 integration points.
  Task    24 has      16468 integration points.
  Task    25 has      16445 integration points.
  Task    26 has      16505 integration points.
  Task    27 has      16519 integration points.
  Task    28 has      16463 integration points.
  Task    29 has      16478 integration points.
  Task    30 has      16453 integration points.
  Task    31 has      16511 integration points.
  Initializing partition tables, free-atom densities, potentials, etc. across the integration grid (initialize_grid_storage).
  | initialize_grid_storage: Actual outermost partition radius vs. multipole_radius_free
  | (-- VB: in principle, multipole_radius_free should be larger, hence this output)
  | Species        1: Confinement radius =              6.000000000000000 AA, multipole_radius_free =              6.071692442739658 AA.
  | Species        1: outer_partition_radius set to              6.071692442739658 AA .
  | Species        2: Confinement radius =              6.000000000000000 AA, multipole_radius_free =              6.029870734432609 AA.
  | Species        2: outer_partition_radius set to              6.029870734432609 AA .
  | Species        3: Confinement radius =              6.000000000000000 AA, multipole_radius_free =              6.058726835495003 AA.
  | Species        3: outer_partition_radius set to              6.058726835495003 AA .
  | Species        4: Confinement radius =              6.000000000000000 AA, multipole_radius_free =              6.064445521808699 AA.
  | Species        4: outer_partition_radius set to              6.064445521808699 AA .
  | Original list of interatomic distances with          32 x         32 entries is created.
  | Net number of integration points:   527728
  | of which are non-zero points    :   414919
  Obtaining max. number of non-zero basis functions in each batch (get_n_compute_maxes).
  | Maximal number of non-zero basis functions:      749 in task     0
  | Maximal number of non-zero basis functions:      752 in task     1
  | Maximal number of non-zero basis functions:      760 in task     2
  | Maximal number of non-zero basis functions:      736 in task     3
  | Maximal number of non-zero basis functions:      729 in task     4
  | Maximal number of non-zero basis functions:      735 in task     5
  | Maximal number of non-zero basis functions:      732 in task     6
  | Maximal number of non-zero basis functions:      742 in task     7
  | Maximal number of non-zero basis functions:      763 in task     8
  | Maximal number of non-zero basis functions:      761 in task     9
  | Maximal number of non-zero basis functions:      745 in task    10
  | Maximal number of non-zero basis functions:      757 in task    11
  | Maximal number of non-zero basis functions:      745 in task    12
  | Maximal number of non-zero basis functions:      754 in task    13
  | Maximal number of non-zero basis functions:      742 in task    14
  | Maximal number of non-zero basis functions:      751 in task    15
  | Maximal number of non-zero basis functions:      759 in task    16
  | Maximal number of non-zero basis functions:      724 in task    17
  | Maximal number of non-zero basis functions:      762 in task    18
  | Maximal number of non-zero basis functions:      756 in task    19
  | Maximal number of non-zero basis functions:      766 in task    20
  | Maximal number of non-zero basis functions:      759 in task    21
  | Maximal number of non-zero basis functions:      759 in task    22
  | Maximal number of non-zero basis functions:      762 in task    23
  | Maximal number of non-zero basis functions:      745 in task    24
  | Maximal number of non-zero basis functions:      763 in task    25
  | Maximal number of non-zero basis functions:      754 in task    26
  | Maximal number of non-zero basis functions:      763 in task    27
  | Maximal number of non-zero basis functions:      759 in task    28
  | Maximal number of non-zero basis functions:      757 in task    29
  | Maximal number of non-zero basis functions:      707 in task    30
  | Maximal number of non-zero basis functions:      757 in task    31
  Selecting the method for density update.
  Loop over occupied states selected for charge density update.
  Integrating Hamiltonian matrix: batch-based integration.
  Time summed over all CPUs for integration: real work       21.140 s, elapsed       21.583 s
  Integrating overlap matrix.
  Time summed over all CPUs for integration: real work       12.777 s, elapsed       13.147 s
  Deallocating overlap matrix.

  Updating Kohn-Sham eigenvalues, eigenvectors, occupation numbers, and Fermi level.
  Solving generalized eigenproblem
  Solving real symmetric generalised eigenvalue problem by standard ScaLAPACK.
  Transforming overlap matrix with ScaLAPACK and checking for singularities.
  : Overlap matrix is nonsingular, using Cholesky decomposition
  | Lowest eigenvalue:  0.970007E-04
  Factoring overlap matrix with Cholesky decomposition
  Using Cholesky factor for transformation
  Using 1-stage real ELPA solver
  Determining occupation numbers for Kohn-Sham eigenstates.
  | Chemical potential (Fermi level) in eV                 : -.91865466E+01
  | Error in electron count due to remaining E_F inaccuracy: 0.00000000E+00
  | Maximum occupation number of highest empty state:  0.00E+00

  Writing Kohn-Sham eigenvalues.

  State    Occupation    Eigenvalue [Ha]    Eigenvalue [eV]
      1       2.00000         -18.974663         -516.32684
      2       2.00000         -18.974411         -516.32000
      3       2.00000         -18.974027         -516.30956
      4       2.00000         -14.254116         -387.87423
      5       2.00000         -14.252959         -387.84275
      6       2.00000         -14.252065         -387.81843
      7       2.00000         -10.170603         -276.75618
      8       2.00000         -10.170576         -276.75546
      9       2.00000         -10.169992         -276.73958
     10       2.00000         -10.166459         -276.64343
     11       2.00000         -10.149510         -276.18221
     12       2.00000         -10.147341         -276.12320
     13       2.00000         -10.135652         -275.80512
     14       2.00000         -10.134590         -275.77622
     15       2.00000         -10.134124         -275.76354
     16       2.00000          -1.134775          -30.87881
     17       2.00000          -1.132717          -30.82281
     18       2.00000          -1.129837          -30.74444
     19       2.00000          -1.016320          -27.65548
     20       2.00000          -1.013796          -27.58680
     21       2.00000          -1.001641          -27.25604
     22       2.00000          -0.880026          -23.94672
     23       2.00000          -0.875023          -23.81059
     24       2.00000          -0.846421          -23.03228
     25       2.00000          -0.816330          -22.21347
     26       2.00000          -0.778676          -21.18886
     27       2.00000          -0.766286          -20.85169
     28       2.00000          -0.697635          -18.98363
     29       2.00000          -0.686268          -18.67431
     30       2.00000          -0.679037          -18.47755
     31       2.00000          -0.640276          -17.42279
     32       2.00000          -0.619246          -16.85053
     33       2.00000          -0.610652          -16.61669
     34       2.00000          -0.601483          -16.36718
     35       2.00000          -0.584809          -15.91347
     36       2.00000          -0.576609          -15.69032
     37       2.00000          -0.570266          -15.51772
     38       2.00000          -0.564716          -15.36671
     39       2.00000          -0.556865          -15.15307
     40       2.00000          -0.552561          -15.03596
     41       2.00000          -0.548687          -14.93054
     42       2.00000          -0.545996          -14.85730
     43       2.00000          -0.538139          -14.64352
     44       2.00000          -0.527652          -14.35815
     45       2.00000          -0.524599          -14.27506
     46       2.00000          -0.519905          -14.14734
     47       2.00000          -0.510849          -13.90090
     48       2.00000          -0.498882          -13.57526
     49       2.00000          -0.490116          -13.33674
     50       2.00000          -0.486317          -13.23335
     51       2.00000          -0.481280          -13.09629
     52       2.00000          -0.477532          -12.99430
     53       2.00000          -0.410586          -11.17260
     54       2.00000          -0.402104          -10.94181
     55       2.00000          -0.398610          -10.84673
     56       2.00000          -0.388037          -10.55903
     57       2.00000          -0.382814          -10.41691
     58       2.00000          -0.381125          -10.37093
     59       0.00000          -0.174802           -4.75661
     60       0.00000          -0.161092           -4.38352
     61       0.00000          -0.151370           -4.11899
     62       0.00000          -0.085737           -2.33303
     63       0.00000          -0.070418           -1.91618
     64       0.00000          -0.057212           -1.55682
     65       0.00000          -0.048934           -1.33155
     66       0.00000          -0.044020           -1.19783
     67       0.00000          -0.039249           -1.06801
     68       0.00000          -0.037187           -1.01190
     69       0.00000          -0.031267           -0.85082
     70       0.00000          -0.025365           -0.69023
     71       0.00000          -0.022442           -0.61067
     72       0.00000          -0.015598           -0.42444
     73       0.00000          -0.012433           -0.33832
     74       0.00000          -0.006942           -0.18890
     75       0.00000          -0.005834           -0.15876
     76       0.00000          -0.002997           -0.08154
     77       0.00000          -0.002372           -0.06456
     78       0.00000           0.000318            0.00864
     79       0.00000           0.006629            0.18038
     80       0.00000           0.013133            0.35738
     81       0.00000           0.017842            0.48550
     82       0.00000           0.028491            0.77528
     83       0.00000           0.032810            0.89279
     84       0.00000           0.038584            1.04991
     85       0.00000           0.044609            1.21388
     86       0.00000           0.056140            1.52765
     87       0.00000           0.061102            1.66267
     88       0.00000           0.065724            1.78845
     89       0.00000           0.071206            1.93762
     90       0.00000           0.076987            2.09493
     91       0.00000           0.077889            2.11947
     92       0.00000           0.085235            2.31937
     93       0.00000           0.090683            2.46760
     94       0.00000           0.094612            2.57453
     95       0.00000           0.100870            2.74482
     96       0.00000           0.103386            2.81326
     97       0.00000           0.107870            2.93529
     98       0.00000           0.113067            3.07671
     99       0.00000           0.117942            3.20936
    100       0.00000           0.124630            3.39136
    101       0.00000           0.128313            3.49157
    102       0.00000           0.131964            3.59093
    103       0.00000           0.140060            3.81123
    104       0.00000           0.143000            3.89122
    105       0.00000           0.150630            4.09885
    106       0.00000           0.150916            4.10664
    107       0.00000           0.154164            4.19501
    108       0.00000           0.155303            4.22600
    109       0.00000           0.164972            4.48912
    110       0.00000           0.173278            4.71514
    111       0.00000           0.176608            4.80575
    112       0.00000           0.180892            4.92231
    113       0.00000           0.182584            4.96837
    114       0.00000           0.190513            5.18412
    115       0.00000           0.196325            5.34229
    116       0.00000           0.201531            5.48395
    117       0.00000           0.207698            5.65174
    118       0.00000           0.211268            5.74891
    119       0.00000           0.213253            5.80290
    120       0.00000           0.220514            6.00048
    121       0.00000           0.223939            6.09368
    122       0.00000           0.232794            6.33465
    123       0.00000           0.237233            6.45543
    124       0.00000           0.242087            6.58751
    125       0.00000           0.245027            6.66752
    126       0.00000           0.250068            6.80470
    127       0.00000           0.250776            6.82397
    128       0.00000           0.257342            7.00263
    129       0.00000           0.264971            7.21023

  Highest occupied state (VBM) at    -10.37092762 eV
  | Occupation number:      2.00000000

  Lowest unoccupied state (CBM) at    -4.75661071 eV
  | Occupation number:      0.00000000

  Overall HOMO-LUMO gap:      5.61431691 eV.
  Calculating total energy contributions from superposition of free atom densities.

  Total energy components:
  | Sum of eigenvalues            :        -437.81317908 Ha      -11913.50275513 eV
  | XC energy correction          :         -98.81664177 Ha       -2688.93763430 eV
  | XC potential correction       :         127.01690493 Ha        3456.30583795 eV
  | Free-atom electrostatic energy:        -333.65652136 Ha       -9079.25589363 eV
  | Hartree energy correction     :           0.00000000 Ha           0.00000000 eV
  | MBD@rsSCS energy              :           0.00000000 Ha           0.00000000 eV
  | Entropy correction            :          -0.00000000 Ha          -0.00000000 eV
  | ---------------------------
  | Total energy                  :        -743.26943729 Ha      -20225.39044510 eV
  | Total energy, T -> 0          :        -743.26943729 Ha      -20225.39044510 eV  <-- do not rely on this value for anything but (periodic) metals
  | Electronic free energy        :        -743.26943729 Ha      -20225.39044510 eV

  Derived energy quantities:
  | Kinetic energy                :         735.16138196 Ha       20004.75903405 eV
  | Electrostatic energy          :       -1379.61417747 Ha      -37541.21184485 eV
  | Energy correction for multipole
  | error in Hartree potential    :           0.00000000 Ha           0.00000000 eV
  | Sum of eigenvalues per atom                           :        -372.29696110 eV
  | Total energy (T->0) per atom                          :        -632.04345141 eV  <-- do not rely on this value for anything but (periodic) metals
  | Electronic free energy per atom                       :        -632.04345141 eV
  Initialize hartree_potential_storage
  Max. number of atoms included in rho_multipole:           32

  End scf initialization - timings             :  max(cpu_time)    wall_clock(cpu1)
  | Time for scf. initialization               :        1.756 s           1.754 s
  | Boundary condition initialization          :        0.000 s           0.000 s
  | Integration                                :        1.108 s           1.106 s
  | Solution of K.-S. eqns.                    :        0.076 s           0.075 s
  | Grid partitioning                          :        0.236 s           0.229 s
  | Preloading free-atom quantities on grid    :        0.028 s           0.028 s
  | Free-atom superposition energy             :        0.040 s           0.038 s
  | Total energy evaluation                    :        0.004 s           0.001 s
------------------------------------------------------------

------------------------------------------------------------
          Begin self-consistency iteration #    1

  Date     :  20170309, Time     :  183358.240
------------------------------------------------------------
  Evaluating new KS density.
  Integration grid: deviation in total charge (<rho> - N_e) =   5.684342E-14
  Pulay mixing of updated and previous charge densities.

  Evaluating partitioned Hartree potential by multipole expansion.
  | Analytical far-field extrapolation by fixed multipoles:
  | Hartree multipole sum: apparent total charge =  -0.307783E-04
  Summing up the Hartree potential.
  Time summed over all CPUs for potential: real work        9.515 s, elapsed        9.688 s
  | RMS charge density error from multipole expansion :   0.105892E-01

  Integrating Hamiltonian matrix: batch-based integration.
  Time summed over all CPUs for integration: real work       21.031 s, elapsed       21.603 s

  Updating Kohn-Sham eigenvalues, eigenvectors, occupation numbers, and Fermi level.
  Solving generalized eigenproblem
  Solving real symmetric generalised eigenvalue problem by standard ScaLAPACK.
  Using Cholesky factor for transformation
  Using 2-stage real ELPA solver
  K-Point:    1, Trafo times: 1-stage=     0.021 s, 2-stage=     0.019 s ==> Using 2-stage solver
  Determining occupation numbers for Kohn-Sham eigenstates.
  | Chemical potential (Fermi level) in eV                 : -.20851430E+01
  | Error in electron count due to remaining E_F inaccuracy: 0.26773250E-10
  | Maximum occupation number of highest empty state:  0.00E+00

  Writing Kohn-Sham eigenvalues.

  State    Occupation    Eigenvalue [Ha]    Eigenvalue [eV]
      1       2.00000         -18.630021         -506.94867
      2       2.00000         -18.626770         -506.86021
      3       2.00000         -18.597510         -506.06400
      4       2.00000         -14.010807         -381.25346
      5       2.00000         -13.998925         -380.93013
      6       2.00000         -13.976608         -380.32286
      7       2.00000         -10.070081         -274.02085
      8       2.00000         -10.068727         -273.98400
      9       2.00000         -10.042659         -273.27466
     10       2.00000          -9.982543         -271.63881
     11       2.00000          -9.970903         -271.32208
     12       2.00000          -9.909632         -269.65481
     13       2.00000          -9.854993         -268.16801
     14       2.00000          -9.845602         -267.91247
     15       2.00000          -9.843162         -267.84605
     16       2.00000          -0.979302          -26.64816
     17       2.00000          -0.972233          -26.45580
     18       2.00000          -0.945088          -25.71715
     19       2.00000          -0.882819          -24.02272
     20       2.00000          -0.866588          -23.58107
     21       2.00000          -0.857407          -23.33122
     22       2.00000          -0.744501          -20.25891
     23       2.00000          -0.729856          -19.86038
     24       2.00000          -0.692915          -18.85517
     25       2.00000          -0.687790          -18.71571
     26       2.00000          -0.648820          -17.65529
     27       2.00000          -0.633381          -17.23518
     28       2.00000          -0.578661          -15.74615
     29       2.00000          -0.566483          -15.41480
     30       2.00000          -0.552336          -15.02983
     31       2.00000          -0.517470          -14.08108
     32       2.00000          -0.488306          -13.28748
     33       2.00000          -0.475446          -12.93753
     34       2.00000          -0.469541          -12.77685
     35       2.00000          -0.453931          -12.35210
     36       2.00000          -0.440745          -11.99327
     37       2.00000          -0.438858          -11.94194
     38       2.00000          -0.428781          -11.66772
     39       2.00000          -0.425915          -11.58973
     40       2.00000          -0.413380          -11.24863
     41       2.00000          -0.407428          -11.08669
     42       2.00000          -0.403478          -10.97918
     43       2.00000          -0.392475          -10.67979
     44       2.00000          -0.383565          -10.43732
     45       2.00000          -0.380684          -10.35895
     46       2.00000          -0.378537          -10.30051
     47       2.00000          -0.367281           -9.99421
     48       2.00000          -0.359629           -9.78601
     49       2.00000          -0.355829           -9.68260
     50       2.00000          -0.349477           -9.50975
     51       2.00000          -0.345756           -9.40850
     52       2.00000          -0.332425           -9.04573
     53       2.00000          -0.252446           -6.86940
     54       2.00000          -0.243854           -6.63562
     55       2.00000          -0.232142           -6.31691
     56       2.00000          -0.219607           -5.97581
     57       2.00000          -0.215433           -5.86222
     58       2.00000          -0.197121           -5.36394
     59       0.00000          -0.067970           -1.84956
     60       0.00000          -0.054834           -1.49212
     61       0.00000          -0.042176           -1.14767
     62       0.00000          -0.033737           -0.91804
     63       0.00000          -0.031690           -0.86234
     64       0.00000          -0.019187           -0.52211
     65       0.00000          -0.006603           -0.17968
     66       0.00000           0.000358            0.00974
     67       0.00000           0.002547            0.06931
     68       0.00000           0.013141            0.35757
     69       0.00000           0.015096            0.41079
     70       0.00000           0.026440            0.71947
     71       0.00000           0.028737            0.78199
     72       0.00000           0.035481            0.96549
     73       0.00000           0.043307            1.17845
     74       0.00000           0.044819            1.21959
     75       0.00000           0.053507            1.45601
     76       0.00000           0.055723            1.51629
     77       0.00000           0.059000            1.60546
     78       0.00000           0.069427            1.88920
     79       0.00000           0.072829            1.98179
     80       0.00000           0.074790            2.03514
     81       0.00000           0.079285            2.15744
     82       0.00000           0.080449            2.18913
     83       0.00000           0.089976            2.44837
     84       0.00000           0.094087            2.56025
     85       0.00000           0.102401            2.78646
     86       0.00000           0.109991            2.99301
     87       0.00000           0.120740            3.28549
     88       0.00000           0.128238            3.48955
     89       0.00000           0.133214            3.62493
     90       0.00000           0.136424            3.71229
     91       0.00000           0.142715            3.88347
     92       0.00000           0.146413            3.98411
     93       0.00000           0.152293            4.14411
     94       0.00000           0.157578            4.28791
     95       0.00000           0.159543            4.34140
     96       0.00000           0.166124            4.52047
     97       0.00000           0.169298            4.60684
     98       0.00000           0.174775            4.75586
     99       0.00000           0.177351            4.82597
    100       0.00000           0.182312            4.96097
    101       0.00000           0.186012            5.06165
    102       0.00000           0.190441            5.18217
    103       0.00000           0.194887            5.30314
    104       0.00000           0.197945            5.38635
    105       0.00000           0.204774            5.57219
    106       0.00000           0.207406            5.64380
    107       0.00000           0.211697            5.76056
    108       0.00000           0.214702            5.84235
    109       0.00000           0.217402            5.91582
    110       0.00000           0.224555            6.11046
    111       0.00000           0.230231            6.26489
    112       0.00000           0.238906            6.50095
    113       0.00000           0.242096            6.58778
    114       0.00000           0.250107            6.80576
    115       0.00000           0.251842            6.85297
    116       0.00000           0.260003            7.07504
    117       0.00000           0.263343            7.16593
    118       0.00000           0.266088            7.24063
    119       0.00000           0.275491            7.49650
    120       0.00000           0.281299            7.65453
    121       0.00000           0.282609            7.69017
    122       0.00000           0.287736            7.82970
    123       0.00000           0.295033            8.02826
    124       0.00000           0.302171            8.22248
    125       0.00000           0.306777            8.34782
    126       0.00000           0.314819            8.56667
    127       0.00000           0.321561            8.75013
    128       0.00000           0.329007            8.95273
    129       0.00000           0.330399            8.99061

  Highest occupied state (VBM) at     -5.36394168 eV
  | Occupation number:      2.00000000

  Lowest unoccupied state (CBM) at    -1.84955833 eV
  | Occupation number:      0.00000000

  Overall HOMO-LUMO gap:      3.51438334 eV.

  Total energy components:
  | Sum of eigenvalues            :        -418.27332514 Ha      -11381.79627645 eV
  | XC energy correction          :        -100.74377229 Ha       -2741.37752387 eV
  | XC potential correction       :         129.51580555 Ha        3524.30438365 eV
  | Free-atom electrostatic energy:        -333.65652136 Ha       -9079.25589363 eV
  | Hartree energy correction     :         -19.54677295 Ha        -531.89475457 eV
  | MBD@rsSCS energy              :           0.00000000 Ha           0.00000000 eV
  | Entropy correction            :          -0.00000000 Ha          -0.00000000 eV
  | ---------------------------
  | Total energy                  :        -742.70458619 Ha      -20210.02006486 eV
  | Total energy, T -> 0          :        -742.70458619 Ha      -20210.02006486 eV  <-- do not rely on this value for anything but (periodic) metals
  | Electronic free energy        :        -742.70458619 Ha      -20210.02006486 eV

  Derived energy quantities:
  | Kinetic energy                :         744.01296918 Ha       20245.62297748 eV
  | Electrostatic energy          :       -1385.97378309 Ha      -37714.26551847 eV
  | Energy correction for multipole
  | error in Hartree potential    :          -0.04068923 Ha          -1.10721023 eV
  | Sum of eigenvalues per atom                           :        -355.68113364 eV
  | Total energy (T->0) per atom                          :        -631.56312703 eV  <-- do not rely on this value for anything but (periodic) metals
  | Electronic free energy per atom                       :        -631.56312703 eV

  Self-consistency convergence accuracy:
  | Change of charge density      :  0.9040E+00
  | Change of sum of eigenvalues  :  0.5317E+03 eV
  | Change of total energy        :  0.1537E+02 eV

  End self-consistency iteration #     1       :  max(cpu_time)    wall_clock(cpu1)
  | Time for this iteration                    :        1.508 s           1.503 s
[...]
   Multipole                     : -0.773354E-02 -0.543081E+00  0.108720E+00
   Pulay + GGA                   : -0.749300E+00 -0.125563E+02  0.370113E+01
   MBD@rsSCS                     :  0.622468E-02 -0.184617E-01  0.163898E-02
   ----------------------------------------------------------------
   Total forces(  20)            :  0.189627E-02  0.297190E-03 -0.256647E-02
  atom #   21
   Hellmann-Feynman              :  0.675267E-01  0.440673E-03  0.268535E-02
   Ionic forces                  :  0.000000E+00  0.000000E+00  0.000000E+00
   Multipole                     : -0.296461E-01 -0.217124E-02 -0.312536E-01
   Pulay + GGA                   : -0.513812E-01  0.694726E-03  0.325464E-01
   MBD@rsSCS                     : -0.529576E-02 -0.755871E-03 -0.101458E-01
   ----------------------------------------------------------------
   Total forces(  21)            : -0.187964E-01 -0.179171E-02 -0.616762E-02
  atom #   22
   Hellmann-Feynman              : -0.744221E-01  0.120715E-02  0.234464E-01
   Ionic forces                  :  0.000000E+00  0.000000E+00  0.000000E+00
   Multipole                     :  0.122788E-01 -0.321532E-01 -0.437943E-02
   Pulay + GGA                   :  0.642684E-01  0.240406E-01 -0.210785E-01
   MBD@rsSCS                     :  0.123639E-01 -0.662531E-02  0.829494E-03
   ----------------------------------------------------------------
   Total forces(  22)            :  0.144890E-01 -0.135308E-01 -0.118206E-02
  atom #   23
   Hellmann-Feynman              : -0.143039E+00 -0.595659E+00 -0.777281E+00
   Ionic forces                  :  0.000000E+00  0.000000E+00  0.000000E+00
   Multipole                     :  0.633846E-01  0.245522E+00  0.252510E+00
   Pulay + GGA                   :  0.707054E-01  0.356610E+00  0.531920E+00
   MBD@rsSCS                     :  0.732473E-02 -0.418812E-04  0.253325E-01
   ----------------------------------------------------------------
   Total forces(  23)            : -0.162443E-02  0.643080E-02  0.324803E-01
  atom #   24
   Hellmann-Feynman              :  0.122945E-01  0.223155E-01  0.427359E-01
   Ionic forces                  :  0.000000E+00  0.000000E+00  0.000000E+00
   Multipole                     :  0.952818E-02 -0.381296E-01  0.347876E-03
   Pulay + GGA                   : -0.199965E-01  0.195194E-01 -0.495461E-01
   MBD@rsSCS                     : -0.186858E-02  0.590858E-02  0.880364E-02
   ----------------------------------------------------------------
   Total forces(  24)            : -0.423731E-04  0.961379E-02  0.234126E-02
  atom #   25
   Hellmann-Feynman              :  0.102054E-01  0.250463E-01  0.834315E-02
   Ionic forces                  :  0.000000E+00  0.000000E+00  0.000000E+00
   Multipole                     :  0.155926E-01  0.201890E-01 -0.163441E-01
   Pulay + GGA                   : -0.423354E-01 -0.407026E-01  0.155320E-01
   MBD@rsSCS                     : -0.449229E-02  0.477025E-02  0.153910E-01
   ----------------------------------------------------------------
   Total forces(  25)            : -0.210298E-01  0.930301E-02  0.229221E-01
  atom #   26
   Hellmann-Feynman              : -0.126301E-01  0.338237E-01  0.152233E-01
   Ionic forces                  :  0.000000E+00  0.000000E+00  0.000000E+00
   Multipole                     : -0.320707E-01 -0.125224E-01 -0.311633E-02
   Pulay + GGA                   :  0.559054E-01 -0.223461E-01 -0.383030E-02
   MBD@rsSCS                     :  0.139037E-01  0.222359E-02  0.179001E-01
   ----------------------------------------------------------------
   Total forces(  26)            :  0.251082E-01  0.117874E-02  0.261768E-01
  atom #   27
   Hellmann-Feynman              :  0.939069E+00  0.164745E+01  0.188659E+01
   Ionic forces                  :  0.000000E+00  0.000000E+00  0.000000E+00
   Multipole                     :  0.807120E-01  0.905633E-01 -0.960161E-01
   Pulay + GGA                   : -0.101253E+01 -0.174450E+01 -0.178378E+01
   MBD@rsSCS                     :  0.189981E-01 -0.549671E-02 -0.705362E-02
   ----------------------------------------------------------------
   Total forces(  27)            :  0.262482E-01 -0.119847E-01 -0.259519E-03
  atom #   28
   Hellmann-Feynman              : -0.631107E+00 -0.224267E+01  0.393797E+00
   Ionic forces                  :  0.000000E+00  0.000000E+00  0.000000E+00
   Multipole                     :  0.186265E-01  0.203924E+00 -0.106613E-01
   Pulay + GGA                   :  0.634593E+00  0.204003E+01 -0.387134E+00
   MBD@rsSCS                     :  0.216394E-01  0.196289E-02 -0.273959E-02
   ----------------------------------------------------------------
   Total forces(  28)            :  0.437517E-01  0.324044E-02 -0.673804E-02
  atom #   29
   Hellmann-Feynman              :  0.622425E-01  0.566859E-02 -0.204181E-01
   Ionic forces                  :  0.000000E+00  0.000000E+00  0.000000E+00
   Multipole                     : -0.150279E-01 -0.391862E-01  0.129826E-01
   Pulay + GGA                   : -0.577216E-01  0.337922E-01  0.906349E-02
   MBD@rsSCS                     :  0.508073E-02 -0.664281E-02  0.249826E-04
   ----------------------------------------------------------------
   Total forces(  29)            : -0.542629E-02 -0.636824E-02  0.165294E-02
  atom #   30
   Hellmann-Feynman              :  0.270353E-01  0.439221E-01 -0.186783E-01
   Ionic forces                  :  0.000000E+00  0.000000E+00  0.000000E+00
   Multipole                     :  0.671205E-02 -0.310386E-01 -0.259597E-01
   Pulay + GGA                   : -0.431820E-01 -0.120107E-01  0.467810E-01
   MBD@rsSCS                     :  0.499779E-02  0.503917E-02 -0.183647E-02
   ----------------------------------------------------------------
   Total forces(  30)            : -0.443679E-02  0.591195E-02  0.306565E-03
  atom #   31
   Hellmann-Feynman              : -0.112841E-01  0.329302E-01 -0.777802E-02
   Ionic forces                  :  0.000000E+00  0.000000E+00  0.000000E+00
   Multipole                     : -0.286334E-01  0.114121E-03 -0.108230E-01
   Pulay + GGA                   :  0.479178E-01 -0.238412E-01  0.942607E-02
   MBD@rsSCS                     :  0.131491E-01  0.922976E-02 -0.622957E-02
   ----------------------------------------------------------------
   Total forces(  31)            :  0.211494E-01  0.184329E-01 -0.154045E-01
  atom #   32
   Hellmann-Feynman              :  0.619596E-02  0.452236E-01  0.214138E-01
   Ionic forces                  :  0.000000E+00  0.000000E+00  0.000000E+00
   Multipole                     :  0.117442E-01 -0.347431E-02  0.263801E-01
   Pulay + GGA                   : -0.264194E-01 -0.417530E-01 -0.458074E-01
   MBD@rsSCS                     :  0.927616E-02  0.531014E-02 -0.389162E-02
   ----------------------------------------------------------------
   Total forces(  32)            :  0.796898E-03  0.530646E-02 -0.190510E-02

  Removing unitary transformations (pure translations, rotations) from forces on atoms.
  Atomic forces before filtering:
  | Net force on center of mass :   0.492573E-04 -0.735132E-03 -0.772900E-03 eV/A
  | Net torque on center of mass:   0.152949E-03  0.183152E-02  0.375893E-02 eV
  Atomic forces after filtering:
  | Net force on center of mass :   0.175967E-16 -0.348449E-17 -0.243915E-17 eV/A
  | Net torque on center of mass:  -0.409349E-16  0.442540E-17 -0.715439E-16 eV

  Energy and forces in a compact form:
  | Total energy uncorrected      :         -0.202086488641809E+05 eV
  | Total energy corrected        :         -0.202086488641809E+05 eV  <-- do not rely on this value for anything but (periodic) metals
  | Electronic free energy        :         -0.202086488641809E+05 eV
  Total atomic forces (unitary forces cleaned) [eV/Ang]:
  |   1         -0.694981334110996E-02         -0.207474788138223E-02          0.121650615204375E-02
  |   2         -0.517269881963516E-02         -0.551482762227352E-02          0.213307146630387E-02
  |   3          0.795840063355018E-03          0.938037294215106E-03         -0.409122012021791E-02
  |   4          0.350749079217350E-02          0.102368818659952E-02          0.407143047852810E-02
  |   5         -0.655441812509457E-02         -0.110220742798059E-01          0.121655807417745E-01
  |   6         -0.181352915567612E-01         -0.129064536399282E-01          0.198752147323836E-01
  |   7          0.651786600237809E-02         -0.109706643874966E-01         -0.176664544025070E-01
  |   8         -0.127447240878158E-01          0.159586765481179E-01         -0.249656710103885E-01
  |   9         -0.420557238347713E-02         -0.800191831499884E-02         -0.114341558967148E-01
  |  10          0.175102458227989E-01         -0.776172062405565E-02         -0.108331550816203E-01
  |  11         -0.822861997662235E-02         -0.797806008692352E-02         -0.147887468555881E-02
  |  12         -0.782168268050110E-02          0.565375533210666E-02         -0.256304760610682E-01
  |  13         -0.162660175898186E-02          0.142431509742418E-01          0.186465762033812E-01
  |  14         -0.914870515235173E-02          0.118391325024545E-01         -0.352609899153214E-02
  |  15         -0.287580624041691E-02          0.167625498511268E-01          0.121643299173446E-01
  |  16          0.736913807559558E-02          0.167828609304022E-01         -0.161701306628419E-02
  |  17         -0.173657474002994E-01         -0.751340710124506E-02         -0.243176266478895E-01
  |  18         -0.697560253873168E-02         -0.182584960322125E-01          0.706101967723327E-02
  |  19         -0.999321542897254E-02         -0.179631713223866E-01         -0.353730447832704E-02
  |  20          0.193047154489508E-02          0.350922009178591E-03         -0.255967464417383E-02
  |  21         -0.188071500090298E-01         -0.174808685496257E-02         -0.615268660758268E-02
  |  22          0.145079420321891E-01         -0.135022828238350E-01         -0.116207789767195E-02
  |  23         -0.162134185720094E-02          0.646951879140806E-02          0.324965844689872E-01
  |  24         -0.272808871784968E-04          0.965622614530576E-02          0.235487045578413E-02
  |  25         -0.210381528524443E-01          0.935050100042993E-02          0.229349869966962E-01
  |  26          0.251074404741298E-01          0.120516619116553E-02          0.261992669173321E-01
  |  27          0.262554386690376E-01         -0.119161604869427E-01         -0.257830456790086E-03
  |  28          0.437404777211116E-01          0.331355111635845E-02         -0.673721922189195E-02
  |  29         -0.541108300048099E-02         -0.629017917387414E-02          0.164946378236884E-02
  |  30         -0.445429335471102E-02          0.599429123043729E-02          0.303429657407328E-03
  |  31          0.211294201814106E-01          0.184952395805626E-01         -0.153979017425262E-01
  |  32          0.786030072742089E-03          0.538498294821256E-02         -0.190689063482353E-02

  ------------------------------------ 
  Start decomposition of the XC Energy 
  ------------------------------------ 
  Hartree-Fock part   :          0.000000000 Ha              0.000000000 eV
  ------------------------------------ 
  X Energy            :        -96.978300979 Ha          -2638.913836089 eV
  C Energy GGA        :         -3.867025815 Ha           -105.227126333 eV
  Total XC Energy     :       -100.845326794 Ha          -2744.140962422 eV
  LDA X and C from self-consistent density 
  X Energy LDA        :        -87.991831614 Ha          -2394.379562916 eV
  C Energy LDA        :         -7.531213778 Ha           -204.934753875 eV
  ------------------------------------ 
  End decomposition of the XC Energy 
  ------------------------------------ 
   
  ESP charge fitting starts.
  | Calculation :  00000001  of  00000001
  | Full density
  Computing multipole expansion for total density.
  Generating points for esp charges.
  Partitioning the integration grid into batches with parallel hashing+maxmin method.
  | Number of batches:     3897
  | Maximal batch size:     200
  | Minimal batch size:      94
  | Average batch size:     124.801
  | Standard deviation of batch sizes:      17.932

  Integration load balanced across    32 MPI tasks.
  Work distribution over tasks is as follows:
  Initializing partition tables, free-atom densities, potentials, etc. across the integration grid (initialize_grid_storage).
  | Original list of interatomic distances with          32 x         32 entries is created.
  | Net number of integration points:   486348
  | of which are non-zero points    :   486348
  Summing up potential from multipole expanded  density.
  Summing up the Hartree potential.
  Time summed over all CPUs for potential: real work        6.443 s, elapsed        6.720 s
  Fitting esp charges to potential.
  |
  | ESP charges fitted to the electrostatic potential :
  |
  | Atom         1: C, ESP charge:      0.59831024
  |
  | Atom         2: C, ESP charge:     -0.73594407
  |
  | Atom         3: O, ESP charge:      0.55870318
  |
  | Atom         4: H, ESP charge:     -0.16825997
  |
  | Atom         5: H, ESP charge:     -0.17723235
  |
  | Atom         6: H, ESP charge:     -0.16086513
  |
  | Atom         7: N, ESP charge:      0.69942948
  |
  | Atom         8: C, ESP charge:     -0.60969443
  |
  | Atom         9: C, ESP charge:     -0.39116896
  |
  | Atom        10: O, ESP charge:      0.49274558
  |
  | Atom        11: H, ESP charge:     -0.31959004
  |
  | Atom        12: H, ESP charge:      0.13683710
  |
  | Atom        13: C, ESP charge:      0.47713254
  |
  | Atom        14: H, ESP charge:     -0.10425324
  |
  | Atom        15: H, ESP charge:     -0.12456643
  |
  | Atom        16: H, ESP charge:     -0.13290562
  |
  | Atom        17: N, ESP charge:      0.47621524
  |
  | Atom        18: C, ESP charge:     -0.57262732
  |
  | Atom        19: C, ESP charge:     -0.19289165
  |
  | Atom        20: O, ESP charge:      0.46560960
  |
  | Atom        21: H, ESP charge:     -0.24120462
  |
  | Atom        22: H, ESP charge:      0.06495372
  |
  | Atom        23: C, ESP charge:      0.22155802
  |
  | Atom        24: H, ESP charge:     -0.07863749
  |
  | Atom        25: H, ESP charge:     -0.05381716
  |
  | Atom        26: H, ESP charge:     -0.02045944
  |
  | Atom        27: N, ESP charge:      0.30640756
  |
  | Atom        28: C, ESP charge:      0.01088219
  |
  | Atom        29: H, ESP charge:     -0.28606015
  |
  | Atom        30: H, ESP charge:     -0.07234165
  |
  | Atom        31: H, ESP charge:     -0.02064594
  |
  | Atom        32: H, ESP charge:     -0.04561879

  RRMS:       0.00166293

  Done.

------------------------------------------------------------------------------
  Final output of selected total energy values:

  The following output summarizes some interesting total energy values
  at the end of a run (AFTER all relaxation, molecular dynamics, etc.).

  | Total energy of the DFT / Hartree-Fock s.c.f. calculation      :         -20208.648864181 eV
  | Final zero-broadening corrected energy (caution - metals only) :         -20208.648864181 eV
  | For reference only, the value of 1 Hartree used in FHI-aims is :             27.211384500 eV

  Before relying on these values, please be sure to understand exactly which
  total energy value is referred to by a given number. Different objects may
  all carry the same name 'total energy'. Definitions:

  Total energy of the DFT / Hartree-Fock s.c.f. calculation:
  | Note that this energy does not include ANY quantities calculated after the
  | s.c.f. cycle, in particular not ANY RPA, MP2, etc. many-body perturbation terms.

  Final zero-broadening corrected energy:
  | For metallic systems only, a broadening of the occupation numbers at the Fermi
  | level can be extrapolated back to zero broadening by an electron-gas inspired
  | formula. For all systems that are not real metals, this value can be
  | meaningless and should be avoided.

------------------------------------------------------------------------------
  Methods described in the following list of references were used in this FHI-aims run.
  If you publish the results, please make sure to cite these reference if they apply.
  FHI-aims is an academic code, and for our developers (often, Ph.D. students
  and postdocs), scientific credit in the community is essential.
  Thank you for helping us!

  For any use of FHI-aims, please cite:

    Volker Blum, Ralf Gehrke, Felix Hanke, Paula Havu, Ville Havu,
    Xinguo Ren, Karsten Reuter, and Matthias Scheffler
    'Ab initio molecular simulations with numeric atom-centered orbitals'
    Computer Physics Communications 180, 2175-2196 (2009)
    http://dx.doi.org/10.1016/j.cpc.2009.06.022


  The scalable eigensolver library ELPA was used in your run.
  ELPA is essential especially for large systems on hundreds or thousands of CPUs.
  For ELPA, please cite:

    Andreas Marek, Volker Blum, Rainer Johanni, Ville Havu, Bruno Lang,
    Thomas Auckenthaler, Alexander Heinecke, Hans-Joachim Bungartz, and Hermann Lederer,
    'The ELPA Library - Scalable Parallel Eigenvalue Solutions
    for Electronic Structure Theory and Computational Science'
    The Journal of Physics: Condensed Matter 26, 213201 (2014).
    http://dx.doi.org/10.1088/0953-8984/26/21/213201


  For ELPA's efficient two-stage tridiagonalization used in your run, please cite:

    T. Auckenthaler, V. Blum, H.-J. Bungartz, T. Huckle, R. Johanni, L. Kraemer,
    B. Lang, H. Lederer, and P. R. Willems,
    'Parallel solution of partial symmetric eigenvalue problems'
    'from  electronic structure calculations'
    Parallel Computing 37, 783-794 (2011).
    http://dx.doi.org/10.1016/j.parco.2011.05.002


  For the real-space grid partitioning and parallelization used in this calculation, please cite:

    Ville Havu, Volker Blum, Paula Havu, and Matthias Scheffler,
    'Efficient O(N) integration for all-electron electronic structure calculation'
    'using numerically tabulated basis functions'
    Journal of Computational Physics 228, 8367-8379 (2009).
    http://dx.doi.org/10.1016/j.jcp.2009.08.008

  Of course, there are many other important community references, e.g., those cited in the
  above references. Our list is limited to references that describe implementations in the
  FHI-aims code. The reason is purely practical (length of this list) - please credit others as well.

------------------------------------------------------------
          Leaving FHI-aims.
          Date     :  20170309, Time     :  183428.405

          Computational steps:
          | Number of self-consistency cycles          :           14

          Detailed time accounting                     :  max(cpu_time)    wall_clock(cpu1)
          | Total time                                 :       32.826 s          32.991 s
          | Preparation time                           :        0.232 s           0.235 s
          | Grid partitioning                          :        0.236 s           0.229 s
          | Preloading free-atom quantities on grid    :        0.028 s           0.028 s
          | Free-atom superposition energy             :        0.040 s           0.038 s
          | Total time for integrations                :       10.789 s          10.767 s
          | Total time for solution of K.-S. equations :        0.528 s           0.499 s
          | Total time for density & force components  :        9.577 s           9.548 s
          | Total time for mixing                      :        0.128 s           0.103 s
          | Total time for Hartree multipole update    :        0.064 s           0.058 s
          | Total time for Hartree multipole sum       :        6.312 s           6.302 s
          | Total time for total energy evaluation     :        0.028 s           0.018 s

          Have a nice day.
------------------------------------------------------------
