  MPI-parallelism will be employed.
------------------------------------------------------------
          Invoking FHI-aims ...
          Version 150427
          Git rev.: 9dd23e0 BL: Update Version stamp
          Compiled on 2015/11/03 at 22:05:20 on host eos03.

          When using FHI-aims, please cite the following reference:

          Volker Blum, Ralf Gehrke, Felix Hanke, Paula Havu,
          Ville Havu, Xinguo Ren, Karsten Reuter, and Matthias Scheffler,
          'Ab Initio Molecular Simulations with Numeric Atom-Centered Orbitals: FHI-aims',
          Computer Physics Communications 180, 2175-2196 (2009)

          For any questions about FHI-aims, please visit the aimsclub website
          with its forums and wiki. Contributions to both the forums and the
          wiki are warmly encouraged - they are for you, and everyone is welcome there.

------------------------------------------------------------

  Date     :  20170309, Time     :  185210.665
  Time zero on CPU 1             :   0.384023000000000E+00  s.
  Internal wall clock time zero  :           258317530.665  s.

  Using       32 parallel tasks.
  Task        0 on host eos026 reporting.
  Task        1 on host eos026 reporting.
  Task        2 on host eos026 reporting.
  Task        3 on host eos026 reporting.
  Task        4 on host eos026 reporting.
  Task        5 on host eos026 reporting.
  Task        6 on host eos026 reporting.
  Task        7 on host eos026 reporting.
  Task        8 on host eos026 reporting.
  Task        9 on host eos026 reporting.
  Task       10 on host eos026 reporting.
  Task       11 on host eos026 reporting.
  Task       12 on host eos026 reporting.
  Task       13 on host eos026 reporting.
  Task       14 on host eos026 reporting.
  Task       15 on host eos026 reporting.
  Task       16 on host eos026 reporting.
  Task       17 on host eos026 reporting.
  Task       18 on host eos026 reporting.
  Task       19 on host eos026 reporting.
  Task       20 on host eos026 reporting.
  Task       21 on host eos026 reporting.
  Task       22 on host eos026 reporting.
  Task       23 on host eos026 reporting.
  Task       24 on host eos026 reporting.
  Task       25 on host eos026 reporting.
  Task       26 on host eos026 reporting.
  Task       27 on host eos026 reporting.
  Task       28 on host eos026 reporting.
  Task       29 on host eos026 reporting.
  Task       30 on host eos026 reporting.
  Task       31 on host eos026 reporting.

  Performing system and environment tests:
  | Environment variable OMP_NUM_THREADS correctly set to 1.
  | Stacksize not measured: no C compiler
  | Checking for scalapack...
  | Testing pdtran()...
  | All pdtran() tests passed.

  Obtaining array dimensions for all initial allocations:
  
  -----------------------------------------------------------------------
  Parsing control.in (first pass over file, find array dimensions only).
  The contents of control.in will be repeated verbatim below
  unless switched off by setting 'verbatim_writeout .false.' .
  in the first line of control.in .
  -----------------------------------------------------------------------
  
  #########################################################################################
  #
  # Input for System
  #
  #########################################################################################
  #
  #
  #  Physical model
  #
    xc                 pbe
    many_body_dispersion
    spin               none
    charge             0.
  #
  #  SCF convergence
  #
    occupation_type    gaussian 0.05
    mixer              pulay
      n_max_pulay        10
      charge_mix_param   0.5
    sc_accuracy_rho    1E-4
    sc_accuracy_eev    1E-2
    sc_accuracy_etot   1E-5
    sc_accuracy_forces 1E-4
    sc_iter_limit      1000
  #
  #  ESP charge
  #
    output esp
    esp equal_grid_n 80 80 80
  #
  #
  ################################################################################
  #
  #  FHI-aims code project
  # Volker Blum, Fritz Haber Institute Berlin, 2009
  #
  #  Suggested "tight" defaults for H atom (to be pasted into control.in file)
  #
  ################################################################################
    species        H
  #     global species definitions
      nucleus             1
      mass                1.00794
  #
      l_hartree           6
  #
      cut_pot             4.0  2.0  1.0
      basis_dep_cutoff    1e-4
  #
      radial_base         24 7.0
      radial_multiplier   2
      angular_grids       specified
        division   0.1930   50
        division   0.3175  110
        division   0.4293  194
        division   0.5066  302
        division   0.5626  434
  #      division   0.5922  590
  #      division   0.6227  974
  #      division   0.6868 1202
  #      outer_grid  770
        outer_grid  434
  ################################################################################
  #
  #  Definition of "minimal" basis
  #
  ################################################################################
  #     valence basis states
      valence      1  s   1.
  #     ion occupancy
      ion_occ      1  s   0.5
  ################################################################################
  #
  #  Suggested additional basis functions. For production calculations,
  #  uncomment them one after another (the most important basis functions are
  #  listed first).
  #
  #  Basis constructed for dimers: 0.5 A, 0.7 A, 1.0 A, 1.5 A, 2.5 A
  #
  ################################################################################
  #  "First tier" - improvements: -1014.90 meV to -62.69 meV
       hydro 2 s 2.1
       hydro 2 p 3.5
  #  "Second tier" - improvements: -12.89 meV to -1.83 meV
       hydro 1 s 0.85
       hydro 2 p 3.7
       hydro 2 s 1.2
       hydro 3 d 7
  #  "Third tier" - improvements: -0.25 meV to -0.12 meV
  #     hydro 4 f 11.2
  #     hydro 3 p 4.8
  #     hydro 4 d 9
  #     hydro 3 s 3.2
  ################################################################################
  #
  # For methods that use the localized form of the "resolution of identity" for
  # the two-electron Coulomb operator (RI_method LVL), particularly Hartree-Fock and
  # hybrid density functional calculations, the highest accuracy can be obtained by
  # uncommenting the line beginning with "for_aux"  below, thus adding an extra g radial
  # function to the construction of the product basis set for the expansion.
  # See Ref. New J. Phys. 17, 093020 (2015) for more information, particularly Figs. 1 and 6.
  #
  ################################################################################
  #
  # for_aux hydro 5 g 6.0
  ################################################################################
  #
  #  FHI-aims code project
  # Volker Blum, Fritz Haber Institute Berlin, 2009
  #
  #  Suggested "tight" defaults for C atom (to be pasted into control.in file)
  #
  ################################################################################
    species        C
  #     global species definitions
      nucleus             6
      mass                12.0107
  #
      l_hartree           6
  #
      cut_pot             4.0  2.0  1.0
      basis_dep_cutoff    1e-4
  #
      radial_base         34 7.0
      radial_multiplier   2
      angular_grids specified
        division   0.2187   50
        division   0.4416  110
        division   0.6335  194
        division   0.7727  302
        division   0.8772  434
  #      division   0.9334  590
  #      division   0.9924  770
  #      division   1.0230  974
  #      division   1.5020 1202
  #     outer_grid  974
        outer_grid  434
  ################################################################################
  #
  #  Definition of "minimal" basis
  #
  ################################################################################
  #     valence basis states
      valence      2  s   2.
      valence      2  p   2.
  #     ion occupancy
      ion_occ      2  s   1.
      ion_occ      2  p   1.
  ################################################################################
  #
  #  Suggested additional basis functions. For production calculations,
  #  uncomment them one after another (the most important basis functions are
  #  listed first).
  #
  #  Constructed for dimers: 1.0 A, 1.25 A, 1.5 A, 2.0 A, 3.0 A
  #
  ################################################################################
  #  "First tier" - improvements: -1214.57 meV to -155.61 meV
       hydro 2 p 1.7
       hydro 3 d 6
       hydro 2 s 4.9
  #  "Second tier" - improvements: -67.75 meV to -5.23 meV
       hydro 4 f 9.8
       hydro 3 p 5.2
       hydro 3 s 4.3
       hydro 5 g 14.4
       hydro 3 d 6.2
  #  "Third tier" - improvements: -2.43 meV to -0.60 meV
  #     hydro 2 p 5.6
  #     hydro 2 s 1.4
  #     hydro 3 d 4.9
  #     hydro 4 f 11.2
  #  "Fourth tier" - improvements: -0.39 meV to -0.18 meV
  #     hydro 2 p 2.1
  #     hydro 5 g 16.4
  #     hydro 4 d 13.2
  #     hydro 3 s 13.6
  #     hydro 4 f 17.6
  #  Further basis functions - improvements: -0.08 meV and below
  #     hydro 3 s 2
  #     hydro 3 p 6
  #     hydro 4 d 20
  ################################################################################
  #
  # For methods that use the localized form of the "resolution of identity" for
  # the two-electron Coulomb operator (RI_method LVL), particularly Hartree-Fock and
  # hybrid density functional calculations, the highest accuracy can be obtained by
  # uncommenting the line beginning with "for_aux"  below, thus adding an extra g radial
  # function to the construction of the product basis set for the expansion.
  # See Ref. New J. Phys. 17, 093020 (2015) for more information, particularly Figs. 1 and 6.
  #
  ################################################################################
  #
  # for_aux hydro 5 g 6.0
  ################################################################################
  #
  #  FHI-aims code project
  # Volker Blum, Fritz Haber Institute Berlin, 2009
  #
  #  Suggested "tight" defaults for N atom (to be pasted into control.in file)
  #
  ################################################################################
    species        N
  #     global species definitions
      nucleus             7
      mass                14.0067
  #
      l_hartree           6
  #
      cut_pot             4.0  2.0  1.0
      basis_dep_cutoff    1e-4
  #
      radial_base         35 7.0
      radial_multiplier   2
      angular_grids       specified
        division   0.1841   50
        division   0.3514  110
        division   0.5126  194
        division   0.6292  302
        division   0.6939  434
  #      division   0.7396  590
  #      division   0.7632  770
  #      division   0.8122  974
  #      division   1.1604 1202
  #      outer_grid  974
        outer_grid  434
  ################################################################################
  #
  #  Definition of "minimal" basis
  #
  ################################################################################
  #     valence basis states
      valence      2  s   2.
      valence      2  p   3.
  #     ion occupancy
      ion_occ      2  s   1.
      ion_occ      2  p   2.
  ################################################################################
  #
  #  Suggested additional basis functions. For production calculations,
  #  uncomment them one after another (the most important basis functions are
  #  listed first).
  #
  #  Constructed for dimers: 1.0 A, 1.1 A, 1.5 A, 2.0 A, 3.0 A
  #
  ################################################################################
  #  "First tier" - improvements: -1193.42 meV to -220.60 meV
       hydro 2 p 1.8
       hydro 3 d 6.8
       hydro 3 s 5.8
  #  "Second tier" - improvements: -80.21 meV to -6.86 meV
       hydro 4 f 10.8
       hydro 3 p 5.8
       hydro 1 s 0.8
       hydro 5 g 16
       hydro 3 d 4.9
  #  "Third tier" - improvements: -4.29 meV to -0.53 meV
  #     hydro 3 s 16
  #     ionic 2 p auto
  #     hydro 3 d 6.6
  #     hydro 4 f 11.6
  #  "Fourth tier" - improvements: -0.75 meV to -0.25 meV
  #     hydro 2 p 4.5
  #     hydro 2 s 2.4
  #     hydro 5 g 14.4
  #     hydro 4 d 14.4
  #     hydro 4 f 16.8
  # Further basis functions - -0.21 meV and below
  #     hydro 3 p 14.8
  #     hydro 3 s 4.4
  #     hydro 3 d 19.6
  #     hydro 5 g 12.8
  ################################################################################
  #
  # For methods that use the localized form of the "resolution of identity" for
  # the two-electron Coulomb operator (RI_method LVL), particularly Hartree-Fock and
  # hybrid density functional calculations, the highest accuracy can be obtained by
  # uncommenting the line beginning with "for_aux"  below, thus adding an extra g radial
  # function to the construction of the product basis set for the expansion.
  # See Ref. New J. Phys. 17, 093020 (2015) for more information, particularly Figs. 1 and 6.
  #
  ################################################################################
  #
  # for_aux hydro 5 g 6.0
  ################################################################################
  #
  #  FHI-aims code project
  # Volker Blum, Fritz Haber Institute Berlin, 2009
  #
  #  Suggested "tight" defaults for O atom (to be pasted into control.in file)
  #
  ################################################################################
    species        O
  #     global species definitions
      nucleus             8
      mass                15.9994
  #
      l_hartree           6
  #
      cut_pot             4.0  2.0  1.0
      basis_dep_cutoff    1e-4
  #
      radial_base         36 7.0
      radial_multiplier   2
       angular_grids specified
        division   0.1817   50
        division   0.3417  110
        division   0.4949  194
        division   0.6251  302
        division   0.8014  434
  #      division   0.8507  590
  #      division   0.8762  770
  #      division   0.9023  974
  #      division   1.2339 1202
  #      outer_grid 974
        outer_grid  434
  ################################################################################
  #
  #  Definition of "minimal" basis
  #
  ################################################################################
  #     valence basis states
      valence      2  s   2.
      valence      2  p   4.
  #     ion occupancy
      ion_occ      2  s   1.
      ion_occ      2  p   3.
  ################################################################################
  #
  #  Suggested additional basis functions. For production calculations,
  #  uncomment them one after another (the most important basis functions are
  #  listed first).
  #
  #  Constructed for dimers: 1.0 A, 1.208 A, 1.5 A, 2.0 A, 3.0 A
  #
  ################################################################################
  #  "First tier" - improvements: -699.05 meV to -159.38 meV
       hydro 2 p 1.8
       hydro 3 d 7.6
       hydro 3 s 6.4
  #  "Second tier" - improvements: -49.91 meV to -5.39 meV
       hydro 4 f 11.6
       hydro 3 p 6.2
       hydro 3 d 5.6
       hydro 5 g 17.6
       hydro 1 s 0.75
  #  "Third tier" - improvements: -2.83 meV to -0.50 meV
  #     ionic 2 p auto
  #     hydro 4 f 10.8
  #     hydro 4 d 4.7
  #     hydro 2 s 6.8
  #  "Fourth tier" - improvements: -0.40 meV to -0.12 meV
  #     hydro 3 p 5
  #     hydro 3 s 3.3
  #     hydro 5 g 15.6
  #     hydro 4 f 17.6
  #     hydro 4 d 14
  # Further basis functions - -0.08 meV and below
  #     hydro 3 s 2.1
  #     hydro 4 d 11.6
  #     hydro 3 p 16
  #     hydro 2 s 17.2
  ################################################################################
  #
  # For methods that use the localized form of the "resolution of identity" for
  # the two-electron Coulomb operator (RI_method LVL), particularly Hartree-Fock and
  # hybrid density functional calculations, the highest accuracy can be obtained by
  # uncommenting the line beginning with "for_aux"  below, thus adding an extra g radial
  # function to the construction of the product basis set for the expansion.
  # See Ref. New J. Phys. 17, 093020 (2015) for more information, particularly Figs. 1 and 6.
  #
  ################################################################################
  #
  # for_aux hydro 5 g 6.0
  
  -----------------------------------------------------------------------
  Completed first pass over input file control.in .
  -----------------------------------------------------------------------
  
  
  -----------------------------------------------------------------------
  Parsing geometry.in (first pass over file, find array dimensions only).
  The contents of geometry.in will be repeated verbatim below
  unless switched off by setting 'verbatim_writeout .false.' .
  in the first line of geometry.in .
  -----------------------------------------------------------------------
  
  #
  # This is the geometry file that corresponds to the current relaxation step.
  # If you do not want this file to be written, set the "write_restart_geometry" flag to .false.
  #
  atom      -0.61893486      0.40910472      0.68213885 C
  atom      -0.28058274      0.40476386      2.16187373 C
  atom       0.50252342      1.21126257      2.65848049 O
  atom      -0.43405938     -0.56919710      0.21697886 H
  atom       0.00535534      1.16355789      0.19670186 H
  atom      -1.67661656      0.65692050      0.51162200 H
  atom      -0.88846308     -0.55470639      2.93997123 N
  atom      -2.00094079     -1.40225412      2.54863710 C
  atom      -3.37817018     -0.71286213      2.36152872 C
  atom      -4.17673758     -1.20024423      1.56210872 O
  atom      -0.67272247     -0.47899453      3.93485111 H
  atom      -1.80411331     -1.79744167      1.54229226 H
  atom      -2.12665395     -2.60148269      3.49629837 C
  atom      -1.21046373     -3.20362401      3.45331300 H
  atom      -2.27582927     -2.28434417      4.53593536 H
  atom      -2.97341329     -3.22846556      3.19380171 H
  atom      -3.70440933      0.43453890      3.04370959 N
  atom      -3.08665536      1.06465929      4.21168307 C
  atom      -2.97643979      0.14207356      5.44661505 C
  atom      -1.88862601      0.02902203      6.01601146 O
  atom      -4.63866153      0.75324776      2.79509699 H
  atom      -2.04415691      1.31513217      3.98662164 H
  atom      -3.80697387      2.37465087      4.54152781 C
  atom      -3.33154754      2.84799698      5.40852558 H
  atom      -4.87014104      2.22653327      4.77526836 H
  atom      -3.73197323      3.06564324      3.69168730 H
  atom      -4.07179931     -0.53939162      5.89491773 N
  atom      -5.41480975     -0.64398863      5.34067629 C
  atom      -3.85265560     -1.12810694      6.69315279 H
  atom      -6.05471321     -1.11986376      6.09190655 H
  atom      -5.44915199     -1.24984080      4.42380157 H
  atom      -5.84700212      0.34121178      5.12714988 H
  
  -----------------------------------------------------------------------
  Completed first pass over input file geometry.in .
  -----------------------------------------------------------------------
  

  Basic array size parameters:
  | Number of species                 :        4
  | Number of atoms                   :       32
  | Max. basis fn. angular momentum   :        4
  | Max. atomic/ionic basis occupied n:        2
  | Max. number of basis fn. types    :        2
  | Max. radial fns per species/type  :        8
  | Max. logarithmic grid size        :     1301
  | Max. radial integration grid size :       73
  | Max. angular integration grid size:      434
  | Max. angular grid division number :        8
  | Radial grid for Hartree potential :     1301
  | Number of spin channels           :        1

------------------------------------------------------------
          Reading file control.in.
------------------------------------------------------------
  XC: Using PBE gradient-corrected functionals.
  Self-consistent screening and van der Waals energy (TS, TS+SCS,MBD) module
  Spin treatment: No spin polarisation.
  Charge =   0.000000E+00: Neutral system requested explicitly.
  Occupation type: Gaussian broadening, width =   0.500000E-01 eV.
  Using pulay charge density mixing.
  Pulay mixing - number of memorized iterations:   10
  Charge density mixing - mixing parameter:     0.5000
  Convergence accuracy of self-consistent charge density:  0.1000E-03
  Convergence accuracy of sum of eigenvalues:  0.1000E-01
  Convergence accuracy of total energy:  0.1000E-04
  Convergence accuracy of forces:  0.1000E-03
  Maximum number of s.-c. iterations  :  1000
  Fitting ESP-charges to Potential. 
  | Esp charge output options: 
  | ESP Grid method: 3, cubic grid
  | Number of points in x, ,y, z:  0080 0080 0080
  |
 
  Reading configuration options for species H                   .
  | Found nuclear charge :   1.0000
  | Found atomic mass :    1.00794000000000      amu
  | Found l_max for Hartree potential  :   6
  | Found cutoff potl. onset [A], width [A], scale factor :    4.00000    2.00000    1.00000
  | Threshold for basis-dependent cutoff potential is   0.100000E-03
  | Found data for basic radial integration grid :    24 points, outermost radius =    7.000 A
  | Found multiplier for basic radial grid :   2
  | Found angular grid specification: user-specified.
  | Specified grid contains     6 separate shells.
  | Check grid settings after all constraints further below.
  | Found free-atom valence shell :  1 s   1.000
  | No ionic wave fns used. Skipping ion_occ.
  | Found hydrogenic basis function :  2 s   2.100
  | Found hydrogenic basis function :  2 p   3.500
  | Found hydrogenic basis function :  1 s   0.850
  | Found hydrogenic basis function :  2 p   3.700
  | Found hydrogenic basis function :  2 s   1.200
  | Found hydrogenic basis function :  3 d   7.000
  Species H                   : Missing cutoff potential type.
  Defaulting to exp(1/x)/(1-x)^2 type cutoff potential.
  Species H : No 'logarithmic' tag. Using default grid for free atom:
  | Default logarithmic grid data [bohr] : 0.1000E-03 0.1000E+03 0.1012E+01
  Species H : On-site basis accuracy parameter (for Gram-Schmidt orthonormalisation) not specified.
  Using default value basis_acc =  0.1000000E-03.
  Species H                   : Using default innermost maximum threshold i_radial=  2 for radial functions.
  Species H                   : Default cutoff onset for free atom density etc. : 0.40000000E+01 AA.
  Species H                   : Basic radial grid will be enhanced according to radial_multiplier =   2, to contain    49 grid points.
 
  Reading configuration options for species C                   .
  | Found nuclear charge :   6.0000
  | Found atomic mass :    12.0107000000000      amu
  | Found l_max for Hartree potential  :   6
  | Found cutoff potl. onset [A], width [A], scale factor :    4.00000    2.00000    1.00000
  | Threshold for basis-dependent cutoff potential is   0.100000E-03
  | Found data for basic radial integration grid :    34 points, outermost radius =    7.000 A
  | Found multiplier for basic radial grid :   2
  | Found angular grid specification: user-specified.
  | Specified grid contains     6 separate shells.
  | Check grid settings after all constraints further below.
  | Found free-atom valence shell :  2 s   2.000
  | Found free-atom valence shell :  2 p   2.000
  | No ionic wave fns used. Skipping ion_occ.
  | No ionic wave fns used. Skipping ion_occ.
  | Found hydrogenic basis function :  2 p   1.700
  | Found hydrogenic basis function :  3 d   6.000
  | Found hydrogenic basis function :  2 s   4.900
  | Found hydrogenic basis function :  4 f   9.800
  | Found hydrogenic basis function :  3 p   5.200
  | Found hydrogenic basis function :  3 s   4.300
  | Found hydrogenic basis function :  5 g  14.400
  | Found hydrogenic basis function :  3 d   6.200
  Species C                   : Missing cutoff potential type.
  Defaulting to exp(1/x)/(1-x)^2 type cutoff potential.
  Species C : No 'logarithmic' tag. Using default grid for free atom:
  | Default logarithmic grid data [bohr] : 0.1000E-03 0.1000E+03 0.1012E+01
  Species C : On-site basis accuracy parameter (for Gram-Schmidt orthonormalisation) not specified.
  Using default value basis_acc =  0.1000000E-03.
  Species C                   : Using default innermost maximum threshold i_radial=  2 for radial functions.
  Species C                   : Default cutoff onset for free atom density etc. : 0.40000000E+01 AA.
  Species C                   : Basic radial grid will be enhanced according to radial_multiplier =   2, to contain    69 grid points.
 
  Reading configuration options for species N                   .
  | Found nuclear charge :   7.0000
  | Found atomic mass :    14.0067000000000      amu
  | Found l_max for Hartree potential  :   6
  | Found cutoff potl. onset [A], width [A], scale factor :    4.00000    2.00000    1.00000
  | Threshold for basis-dependent cutoff potential is   0.100000E-03
  | Found data for basic radial integration grid :    35 points, outermost radius =    7.000 A
  | Found multiplier for basic radial grid :   2
  | Found angular grid specification: user-specified.
  | Specified grid contains     6 separate shells.
  | Check grid settings after all constraints further below.
  | Found free-atom valence shell :  2 s   2.000
  | Found free-atom valence shell :  2 p   3.000
  | No ionic wave fns used. Skipping ion_occ.
  | No ionic wave fns used. Skipping ion_occ.
  | Found hydrogenic basis function :  2 p   1.800
  | Found hydrogenic basis function :  3 d   6.800
  | Found hydrogenic basis function :  3 s   5.800
  | Found hydrogenic basis function :  4 f  10.800
  | Found hydrogenic basis function :  3 p   5.800
  | Found hydrogenic basis function :  1 s   0.800
  | Found hydrogenic basis function :  5 g  16.000
  | Found hydrogenic basis function :  3 d   4.900
  Species N                   : Missing cutoff potential type.
  Defaulting to exp(1/x)/(1-x)^2 type cutoff potential.
  Species N : No 'logarithmic' tag. Using default grid for free atom:
  | Default logarithmic grid data [bohr] : 0.1000E-03 0.1000E+03 0.1012E+01
  Species N : On-site basis accuracy parameter (for Gram-Schmidt orthonormalisation) not specified.
  Using default value basis_acc =  0.1000000E-03.
  Species N                   : Using default innermost maximum threshold i_radial=  2 for radial functions.
  Species N                   : Default cutoff onset for free atom density etc. : 0.40000000E+01 AA.
  Species N                   : Basic radial grid will be enhanced according to radial_multiplier =   2, to contain    71 grid points.
 
  Reading configuration options for species O                   .
  | Found nuclear charge :   8.0000
  | Found atomic mass :    15.9994000000000      amu
  | Found l_max for Hartree potential  :   6
  | Found cutoff potl. onset [A], width [A], scale factor :    4.00000    2.00000    1.00000
  | Threshold for basis-dependent cutoff potential is   0.100000E-03
  | Found data for basic radial integration grid :    36 points, outermost radius =    7.000 A
  | Found multiplier for basic radial grid :   2
  | Found angular grid specification: user-specified.
  | Specified grid contains     6 separate shells.
  | Check grid settings after all constraints further below.
  | Found free-atom valence shell :  2 s   2.000
  | Found free-atom valence shell :  2 p   4.000
  | No ionic wave fns used. Skipping ion_occ.
  | No ionic wave fns used. Skipping ion_occ.
  | Found hydrogenic basis function :  2 p   1.800
  | Found hydrogenic basis function :  3 d   7.600
  | Found hydrogenic basis function :  3 s   6.400
  | Found hydrogenic basis function :  4 f  11.600
  | Found hydrogenic basis function :  3 p   6.200
  | Found hydrogenic basis function :  3 d   5.600
  | Found hydrogenic basis function :  5 g  17.600
  | Found hydrogenic basis function :  1 s   0.750
  Species O                   : Missing cutoff potential type.
  Defaulting to exp(1/x)/(1-x)^2 type cutoff potential.
  Species O : No 'logarithmic' tag. Using default grid for free atom:
  | Default logarithmic grid data [bohr] : 0.1000E-03 0.1000E+03 0.1012E+01
  Species O : On-site basis accuracy parameter (for Gram-Schmidt orthonormalisation) not specified.
  Using default value basis_acc =  0.1000000E-03.
  Species O                   : Using default innermost maximum threshold i_radial=  2 for radial functions.
  Species O                   : Default cutoff onset for free atom density etc. : 0.40000000E+01 AA.
  Species O                   : Basic radial grid will be enhanced according to radial_multiplier =   2, to contain    73 grid points.
 
  Finished reading input file 'control.in'. Consistency checks are next.
 
  Target number of points in a grid batch is not set. Defaulting to  100
  Method for grid partitioning is not set. Defaulting to parallel hash+maxmin partitioning.
  Batch size limit is not set. Defaulting to    200
  By default, will store active basis functions for each batch.
  If in need of memory, prune_basis_once .false. can be used to disable this option.
  communication_type for Hartree potential was not specified.
  Defaulting to calc_hartree .
  Pulay mixer: Number of initial linear mixing iterations not set.
  Defaulting to    0 iterations.
  Work space size for distributed Hartree potential not set.
  Defaulting to   0.200000E+03 MB.
  Algorithm-dependent basis array size parameters:
  | n_max_pulay                         :       10
  Geometry relaxation not requested: no relaxation will be performed.
  Handling of forces: Unphysical translation and rotation will be removed from forces.
  No accuracy limit for integral partition fn. given. Defaulting to  0.1000E-14.
  No threshold value for u(r) in integrations given. Defaulting to  0.1000E-05.
  No accuracy for occupation numbers given. Defaulting to  0.1000E-07.
  No threshold value for occupation numbers given. Defaulting to  0.0000E+00.
  No accuracy for fermi level given. Defaulting to  0.1000E-19.
  Maximum # of iterations to find E_F not set. Defaulting to  200.
  Preferred method for the eigenvalue solver ('KS_method') not specified in 'control.in'.
  Calling blacs routine to test compilation state
  Since scalapack support is enabled, defaulting to 'elpa'.
  Preferred method for the MBD eigenvalue solver ('mbd_eigensolver') not specified in 'control.in'.
  Calling blacs routine to test compilation state
  Since scalapack support is enabled, defaulting to 'scaLAPACK'.
  Will not use alltoall communication since running on < 1024 CPUs.
  Threshold for basis singularities not set.
  Default threshold for basis singularities:  0.1000E-04
  partition_type (choice of integration weights) for integrals was not specified.
  | Using a version of the partition function of Stratmann and coworkers ('stratmann_smoother').
  | At each grid point, the set of atoms used to build the partition table is smoothly restricted to
  | only those atoms whose free-atom density would be non-zero at that grid point.
  Partitioning for Hartree potential was not defined. Using partition_type for integrals.
  | Adjusted default value of keyword multip_moments_threshold to:       0.10000000E-11
  | This value may affect high angular momentum components of the Hartree potential in periodic systems.
  No q(lm)/r^(l+1) cutoff set for long-range Hartree potential.
  | Using default value of  0.100000E-09 .
  | Verify using the multipole_threshold keyword.
  Defaulting to new monopole extrapolation.
  Density update method: automatic selection selected.
------------------------------------------------------------


------------------------------------------------------------
          Reading geometry description geometry.in.
------------------------------------------------------------
 * Warning! You did not set the 'relativistic' flag in input file 'control.in'.
 * Since you are not attempting to treat any elements beyond Ca(Z=20), FHI-aims
 * will default to 'relativistic none'.
 * You must ensure that this is really what you want!!
 * For example, DO NOT compute total-energy differences between results from
 * different settings of the 'relativistic' flag.
  Input structure read successfully.
  The structure contains       32 atoms,  and a total of        116.000 electrons.

  Input geometry:
  | No unit cell requested.
  | Atomic structure:
  |       Atom                x [A]            y [A]            z [A]
  |    1: Species C             -0.618935         0.409105         0.682139
  |    2: Species C             -0.280583         0.404764         2.161874
  |    3: Species O              0.502523         1.211263         2.658480
  |    4: Species H             -0.434059        -0.569197         0.216979
  |    5: Species H              0.005355         1.163558         0.196702
  |    6: Species H             -1.676617         0.656921         0.511622
  |    7: Species N             -0.888463        -0.554706         2.939971
  |    8: Species C             -2.000941        -1.402254         2.548637
  |    9: Species C             -3.378170        -0.712862         2.361529
  |   10: Species O             -4.176738        -1.200244         1.562109
  |   11: Species H             -0.672722        -0.478995         3.934851
  |   12: Species H             -1.804113        -1.797442         1.542292
  |   13: Species C             -2.126654        -2.601483         3.496298
  |   14: Species H             -1.210464        -3.203624         3.453313
  |   15: Species H             -2.275829        -2.284344         4.535935
  |   16: Species H             -2.973413        -3.228466         3.193802
  |   17: Species N             -3.704409         0.434539         3.043710
  |   18: Species C             -3.086655         1.064659         4.211683
  |   19: Species C             -2.976440         0.142074         5.446615
  |   20: Species O             -1.888626         0.029022         6.016011
  |   21: Species H             -4.638662         0.753248         2.795097
  |   22: Species H             -2.044157         1.315132         3.986622
  |   23: Species C             -3.806974         2.374651         4.541528
  |   24: Species H             -3.331548         2.847997         5.408526
  |   25: Species H             -4.870141         2.226533         4.775268
  |   26: Species H             -3.731973         3.065643         3.691687
  |   27: Species N             -4.071799        -0.539392         5.894918
  |   28: Species C             -5.414810        -0.643989         5.340676
  |   29: Species H             -3.852656        -1.128107         6.693153
  |   30: Species H             -6.054713        -1.119864         6.091907
  |   31: Species H             -5.449152        -1.249841         4.423802
  |   32: Species H             -5.847002         0.341212         5.127150
  |

  | The smallest distance between any two atoms is         1.01577010 AA.
  |
  | The first atom of this pair is atom number                     27 .
  | The second atom of this pair is atom number                    29 .

  Number of empty states per atom not set in control.in - providing a guess from actual geometry.
  | Total number of empty states used during s.c.f. cycle:       71
  If you use a very high smearing, use empty_states (per atom!) in control.in to increase this value.

  Structure-dependent array size parameters: 
  | Maximum number of distinct radial functions  :       40
  | Maximum number of basis functions            :      840
  | Number of Kohn-Sham states (occupied + empty):      129
------------------------------------------------------------

------------------------------------------------------------
          Preparing all fixed parts of the calculation.
------------------------------------------------------------
  Determining machine precision:
    2.225073858507201E-308
  Setting up grids for atomic and cluster calculations.

  Creating wave function, potential, and density for free atoms.

  Species: H

  List of occupied orbitals and eigenvalues:
    n    l              occ      energy [Ha]    energy [eV]
    1    0           1.0000        -0.238382        -6.4867


  Species: C

  List of occupied orbitals and eigenvalues:
    n    l              occ      energy [Ha]    energy [eV]
    1    0           2.0000       -10.041232      -273.2358
    2    0           2.0000        -0.504327       -13.7234
    2    1           2.0000        -0.193750        -5.2722


  Species: N

  List of occupied orbitals and eigenvalues:
    n    l              occ      energy [Ha]    energy [eV]
    1    0           2.0000       -14.129007      -384.4699
    2    0           2.0000        -0.681802       -18.5528
    2    1           3.0000        -0.260543        -7.0897


  Species: O

  List of occupied orbitals and eigenvalues:
    n    l              occ      energy [Ha]    energy [eV]
    1    0           2.0000       -18.898576      -514.2564
    2    0           2.0000        -0.878795       -23.9132
    2    1           4.0000        -0.332075        -9.0362

  Creating fixed part of basis set: Ionic, confined, hydrogenic.
 
  H                    hydrogenic:
 
  List of hydrogenic basis orbitals: 
    n    l      effective z      eigenvalue [eV]  inner max. [A]     outer max. [A]     outer radius [A]   
    2    0         2.100000       -14.9965           0.193243           1.317208           5.373006
    2    1         3.500000       -41.6672           0.602369           0.602369           4.056063
    1    0         0.850000        -9.8292           0.624871           0.624871           5.373006
    2    1         3.700000       -46.5653           0.573622           0.573622           3.910002
    2    0         1.200000        -4.5995           0.334980           2.228188           5.505995
    3    2         7.000000       -74.0753           0.680699           0.680699           3.769201
 
 
  C                    hydrogenic:
 
  List of hydrogenic basis orbitals: 
    n    l      effective z      eigenvalue [eV]  inner max. [A]     outer max. [A]     outer radius [A]   
    2    1         1.700000        -9.8152           1.245706           1.245706           5.401630
    3    2         6.000000       -54.4226           0.792453           0.792453           4.178599
    2    0         4.900000       -81.6681           0.082559           0.562749           3.353238
    4    3         9.800000       -81.6681           0.863254           0.863254           4.028125
    3    1         5.200000       -40.8774           0.305389           1.215618           4.898362
    3    0         4.300000       -27.9508           0.091041           1.610311           5.401630
    5    4        14.400000      -112.8510           0.917666           0.917666           3.883070
    3    2         6.200000       -58.1113           0.763917           0.763917           4.077671
 
 
  N                    hydrogenic:
 
  List of hydrogenic basis orbitals: 
    n    l      effective z      eigenvalue [eV]  inner max. [A]     outer max. [A]     outer radius [A]   
    2    1         1.800000       -11.0118           1.177451           1.177451           5.427479
    3    2         6.800000       -69.9029           0.704619           0.704619           3.854246
    3    0         5.800000       -50.8549           0.067388           1.191934           4.629968
    4    3        10.800000       -99.1854           0.786571           0.786571           3.761152
    3    1         5.800000       -50.8549           0.274880           1.094176           4.518138
    1    0         0.800000        -8.7059           0.662839           0.662839           5.361532
    5    4        16.000000      -139.3222           0.825990           0.825990           3.625711
    3    2         4.900000       -36.2967           0.968267           0.968267           4.862000
 
 
  O                    hydrogenic:
 
  List of hydrogenic basis orbitals: 
    n    l      effective z      eigenvalue [eV]  inner max. [A]     outer max. [A]     outer radius [A]   
    2    1         1.800000       -11.0118           1.178562           1.178562           5.432602
    3    2         7.600000       -87.3182           0.624125           0.624125           3.541477
    3    0         6.400000       -61.9209           0.061167           1.081902           4.306578
    4    3        11.600000      -114.4238           0.731631           0.731631           3.585037
    3    1         6.200000       -58.1113           0.255680           1.030270           4.306578
    3    2         5.600000       -47.4081           0.847233           0.847233           4.413171
    5    4        17.600000      -168.5799           0.749740           0.749740           3.372465
    1    0         0.750000        -7.6499           0.705284           0.705284           5.366593
 

  Adding cutoff potential to free-atom effective potential.
  Creating atomic-like basis functions for current effective potential.

  Species H                   :

  List of atomic basis orbitals and eigenvalues:
    n    l      energy [Ha]    energy [eV]    outer radius [A]
    1    0        -0.238382        -6.4867       5.373006


  Species C                   :

  List of atomic basis orbitals and eigenvalues:
    n    l      energy [Ha]    energy [eV]    outer radius [A]
    1    0       -10.041232      -273.2358       1.934409
    2    0        -0.504327       -13.7234       5.271162
    2    1        -0.193750        -5.2722       5.401630


  Species N                   :

  List of atomic basis orbitals and eigenvalues:
    n    l      energy [Ha]    energy [eV]    outer radius [A]
    1    0       -14.129007      -384.4699       1.637919
    2    0        -0.681802       -18.5528       5.168461
    2    1        -0.260543        -7.0897       5.361532


  Species O                   :

  List of atomic basis orbitals and eigenvalues:
    n    l      energy [Ha]    energy [eV]    outer radius [A]
    1    0       -18.898576      -514.2564       1.415765
    2    0        -0.878795       -23.9132       5.048385
    2    1        -0.332075        -9.0362       5.301386

  Assembling full basis from fixed parts.
  | Species H :   atomic orbital   1 s accepted.
  | Species H :    hydro orbital   2 s accepted.
  | Species H :    hydro orbital   1 s accepted.
  | Species H :    hydro orbital   2 s accepted.
  | Species H :    hydro orbital   2 p accepted.
  | Species H :    hydro orbital   2 p accepted.
  | Species H :    hydro orbital   3 d accepted.
  | Species C :   atomic orbital   1 s accepted.
  | Species C :    hydro orbital   2 s accepted.
  | Species C :   atomic orbital   2 s accepted.
  | Species C :    hydro orbital   3 s accepted.
  | Species C :    hydro orbital   3 p accepted.
  | Species C :   atomic orbital   2 p accepted.
  | Species C :    hydro orbital   2 p accepted.
  | Species C :    hydro orbital   3 d accepted.
  | Species C :    hydro orbital   3 d accepted.
  | Species C :    hydro orbital   4 f accepted.
  | Species C :    hydro orbital   5 g accepted.
  | Species N :   atomic orbital   1 s accepted.
  | Species N :    hydro orbital   3 s accepted.
  | Species N :   atomic orbital   2 s accepted.
  | Species N :    hydro orbital   1 s accepted.
  | Species N :    hydro orbital   3 p accepted.
  | Species N :   atomic orbital   2 p accepted.
  | Species N :    hydro orbital   2 p accepted.
  | Species N :    hydro orbital   3 d accepted.
  | Species N :    hydro orbital   3 d accepted.
  | Species N :    hydro orbital   4 f accepted.
  | Species N :    hydro orbital   5 g accepted.
  | Species O :   atomic orbital   1 s accepted.
  | Species O :    hydro orbital   3 s accepted.
  | Species O :   atomic orbital   2 s accepted.
  | Species O :    hydro orbital   1 s accepted.
  | Species O :    hydro orbital   3 p accepted.
  | Species O :   atomic orbital   2 p accepted.
  | Species O :    hydro orbital   2 p accepted.
  | Species O :    hydro orbital   3 d accepted.
  | Species O :    hydro orbital   3 d accepted.
  | Species O :    hydro orbital   4 f accepted.
  | Species O :    hydro orbital   5 g accepted.
 
  Basis size parameters after reduction:
  | Total number of radial functions:       40
  | Total number of basis functions :      840
 
  Testing on-site integration grid accuracy.
  |  Species  Function  <phi|h_atom|phi> (log., in eV)  <phi|h_atom|phi> (rad., in eV)
           1        1                 -6.4869821809                 -6.4870742227
           1        2                 13.5044133542                 13.5041049177
           1        3                 32.7854418792                 32.7779770519
           1        4                 33.7995553101                 33.7152624900 ***
           1        5                 28.8558651799                 28.8558652046
           1        6                 59.6361831893                 59.6362535845
           1        7                 60.2733718049                 60.2733715484
           2        8               -273.2358277112               -273.2358261765
           2        9                -10.7624923123                -10.7625144012
           2       10                 17.4634079027                 17.4634252127
           2       11                 53.0363661832                 53.0366180446
           2       12                 15.0981351967                 15.0981317714
           2       13                  3.8522181899                  3.8522770949
           2       14                 12.1181835661                 12.1206868578
           2       15                 29.4320778347                 29.4320780959
           2       16                 54.8753777694                 54.8752901936
           2       17                 59.3533975461                 59.3533974833
           2       18                 93.4537491195                 93.4537492066
           3       19               -384.4698526889               -384.4698499465
           3       20                 12.5691022037                 12.5690910168
           3       21                -15.7489097511                -15.7489165588
           3       22                 27.0978334940                 27.0985589490
           3       23                 18.5949116966                 18.5949125562
           3       24                  1.2212828291                  1.2212855301
           3       25                 13.4428926797                 13.4434051125
           3       26                 35.9380614500                 35.9380613666
           3       27                 39.9231532098                 39.9231654735
           3       28                 72.9957335806                 72.9957336833
           3       29                116.4231321147                116.4231321431
           4       30               -514.2564144315               -514.2564099626
           4       31                 15.1726678541                 15.1726530877
           4       32                -21.5447785304                -21.5447874973
           4       33                 14.4944558459                 14.4944698284
           4       34                 20.8882174564                 20.8882178906
           4       35                 -2.4850315908                 -2.4850322289
           4       36                 13.8600193195                 13.8599826966
           4       37                 45.8243383616                 45.8243383675
           4       38                 52.1840606465                 52.1840622440
           4       39                 85.4074185510                 85.4074185819
           4       40                142.0983717302                142.0983717339
 * Note: Onsite integrals marked "***" above are less accurate than
 * onsite_accuracy_threshold =    0.03000 eV. Usually, this is harmless.
 * When in doubt, tighten the "radial" and/or "radial_multiplier" flags to check.

  Preparing densities etc. for the partition functions (integrals / Hartree potential).

  Preparations completed.
  max(cpu_time)          :      0.240 s.
  Wall clock time (cpu1) :      0.239 s.
------------------------------------------------------------

------------------------------------------------------------
          Begin self-consistency loop: Initialization.

          Date     :  20170309, Time     :  185211.688
------------------------------------------------------------

  Initializing index lists of integration centers etc. from given atomic structure:
  | Number of centers in hartree potential         :        32
  | Number of centers in hartree multipole         :        32
  | Number of centers in electron density summation:        32
  | Number of centers in basis integrals           :        32
  | Number of centers in integrals                 :        32
  | Number of centers in hamiltonian               :        32
  Using modified Scalapack Eigenvalue solver (ELPA)
  * Using 32 tasks for Scalapack Eigenvalue solver.
  Detailed listing of tasks and assigned k-points:
  (for non-periodic systems, the "k-point" denotes an internal label only)
   Task     0 k-point     1 on eos026
   Task     1 k-point     1 on eos026
   Task     2 k-point     1 on eos026
   Task     3 k-point     1 on eos026
   Task     4 k-point     1 on eos026
   Task     5 k-point     1 on eos026
   Task     6 k-point     1 on eos026
   Task     7 k-point     1 on eos026
   Task     8 k-point     1 on eos026
   Task     9 k-point     1 on eos026
   Task    10 k-point     1 on eos026
   Task    11 k-point     1 on eos026
   Task    12 k-point     1 on eos026
   Task    13 k-point     1 on eos026
   Task    14 k-point     1 on eos026
   Task    15 k-point     1 on eos026
   Task    16 k-point     1 on eos026
   Task    17 k-point     1 on eos026
   Task    18 k-point     1 on eos026
   Task    19 k-point     1 on eos026
   Task    20 k-point     1 on eos026
   Task    21 k-point     1 on eos026
   Task    22 k-point     1 on eos026
   Task    23 k-point     1 on eos026
   Task    24 k-point     1 on eos026
   Task    25 k-point     1 on eos026
   Task    26 k-point     1 on eos026
   Task    27 k-point     1 on eos026
   Task    28 k-point     1 on eos026
   Task    29 k-point     1 on eos026
   Task    30 k-point     1 on eos026
   Task    31 k-point     1 on eos026
  Tasks:    32 split into      8 X      4 BLACS grid
  Calculating blocksize based on n_basis =          840 max_nprow =            8 max_npcol =            4
  Scalapack blocksize set to:           16
  Required Scalapack workspace - INTEGER:            1 REAL:             1
  Partitioning the integration grid into batches with parallel hashing+maxmin method.
  | Number of batches:     4987
  | Maximal batch size:     200
  | Minimal batch size:      27
  | Average batch size:     105.821
  | Standard deviation of batch sizes:      34.988

  Integration load balanced across    32 MPI tasks.
  Work distribution over tasks is as follows:
  Task     0 has      16560 integration points.
  Task     1 has      16434 integration points.
  Task     2 has      16563 integration points.
  Task     3 has      16393 integration points.
  Task     4 has      16523 integration points.
  Task     5 has      16390 integration points.
  Task     6 has      16389 integration points.
  Task     7 has      16452 integration points.
  Task     8 has      16574 integration points.
  Task     9 has      16564 integration points.
  Task    10 has      16437 integration points.
  Task    11 has      16479 integration points.
  Task    12 has      16398 integration points.
  Task    13 has      16557 integration points.
  Task    14 has      16568 integration points.
  Task    15 has      16499 integration points.
  Task    16 has      16488 integration points.
  Task    17 has      16518 integration points.
  Task    18 has      16488 integration points.
  Task    19 has      16566 integration points.
  Task    20 has      16449 integration points.
  Task    21 has      16522 integration points.
  Task    22 has      16510 integration points.
  Task    23 has      16408 integration points.
  Task    24 has      16516 integration points.
  Task    25 has      16554 integration points.
  Task    26 has      16518 integration points.
  Task    27 has      16524 integration points.
  Task    28 has      16440 integration points.
  Task    29 has      16519 integration points.
  Task    30 has      16402 integration points.
  Task    31 has      16526 integration points.
  Initializing partition tables, free-atom densities, potentials, etc. across the integration grid (initialize_grid_storage).
  | initialize_grid_storage: Actual outermost partition radius vs. multipole_radius_free
  | (-- VB: in principle, multipole_radius_free should be larger, hence this output)
  | Species        1: Confinement radius =              6.000000000000000 AA, multipole_radius_free =              6.071692442739658 AA.
  | Species        1: outer_partition_radius set to              6.071692442739658 AA .
  | Species        2: Confinement radius =              6.000000000000000 AA, multipole_radius_free =              6.029870734432609 AA.
  | Species        2: outer_partition_radius set to              6.029870734432609 AA .
  | Species        3: Confinement radius =              6.000000000000000 AA, multipole_radius_free =              6.058726835495003 AA.
  | Species        3: outer_partition_radius set to              6.058726835495003 AA .
  | Species        4: Confinement radius =              6.000000000000000 AA, multipole_radius_free =              6.064445521808699 AA.
  | Species        4: outer_partition_radius set to              6.064445521808699 AA .
  | Original list of interatomic distances with          32 x         32 entries is created.
  | Net number of integration points:   527728
  | of which are non-zero points    :   411045
  Obtaining max. number of non-zero basis functions in each batch (get_n_compute_maxes).
  | Maximal number of non-zero basis functions:      815 in task     0
  | Maximal number of non-zero basis functions:      807 in task     1
  | Maximal number of non-zero basis functions:      816 in task     2
  | Maximal number of non-zero basis functions:      809 in task     3
  | Maximal number of non-zero basis functions:      815 in task     4
  | Maximal number of non-zero basis functions:      808 in task     5
  | Maximal number of non-zero basis functions:      820 in task     6
  | Maximal number of non-zero basis functions:      820 in task     7
  | Maximal number of non-zero basis functions:      808 in task     8
  | Maximal number of non-zero basis functions:      818 in task     9
  | Maximal number of non-zero basis functions:      805 in task    10
  | Maximal number of non-zero basis functions:      816 in task    11
  | Maximal number of non-zero basis functions:      813 in task    12
  | Maximal number of non-zero basis functions:      810 in task    13
  | Maximal number of non-zero basis functions:      816 in task    14
  | Maximal number of non-zero basis functions:      819 in task    15
  | Maximal number of non-zero basis functions:      820 in task    16
  | Maximal number of non-zero basis functions:      816 in task    17
  | Maximal number of non-zero basis functions:      807 in task    18
  | Maximal number of non-zero basis functions:      822 in task    19
  | Maximal number of non-zero basis functions:      806 in task    20
  | Maximal number of non-zero basis functions:      814 in task    21
  | Maximal number of non-zero basis functions:      808 in task    22
  | Maximal number of non-zero basis functions:      811 in task    23
  | Maximal number of non-zero basis functions:      810 in task    24
  | Maximal number of non-zero basis functions:      806 in task    25
  | Maximal number of non-zero basis functions:      812 in task    26
  | Maximal number of non-zero basis functions:      823 in task    27
  | Maximal number of non-zero basis functions:      799 in task    28
  | Maximal number of non-zero basis functions:      816 in task    29
  | Maximal number of non-zero basis functions:      820 in task    30
  | Maximal number of non-zero basis functions:      815 in task    31
  Selecting the method for density update.
  Loop over occupied states selected for charge density update.
  Integrating Hamiltonian matrix: batch-based integration.
  Time summed over all CPUs for integration: real work       24.772 s, elapsed       25.865 s
  Integrating overlap matrix.
  Time summed over all CPUs for integration: real work       15.395 s, elapsed       16.018 s
  Deallocating overlap matrix.

  Updating Kohn-Sham eigenvalues, eigenvectors, occupation numbers, and Fermi level.
  Solving generalized eigenproblem
  Solving real symmetric generalised eigenvalue problem by standard ScaLAPACK.
  Transforming overlap matrix with ScaLAPACK and checking for singularities.
  : Overlap matrix is nonsingular, using Cholesky decomposition
  | Lowest eigenvalue:  0.977356E-04
  Factoring overlap matrix with Cholesky decomposition
  Using Cholesky factor for transformation
  Using 1-stage real ELPA solver
  Determining occupation numbers for Kohn-Sham eigenstates.
  | Chemical potential (Fermi level) in eV                 : -.95261219E+01
  | Error in electron count due to remaining E_F inaccuracy: 0.00000000E+00
  | Maximum occupation number of highest empty state:  0.00E+00

  Writing Kohn-Sham eigenvalues.

  State    Occupation    Eigenvalue [Ha]    Eigenvalue [eV]
      1       2.00000         -18.973902         -516.30613
      2       2.00000         -18.973783         -516.30291
      3       2.00000         -18.973421         -516.29306
      4       2.00000         -14.254370         -387.88115
      5       2.00000         -14.253004         -387.84396
      6       2.00000         -14.252041         -387.81776
      7       2.00000         -10.171136         -276.77069
      8       2.00000         -10.171062         -276.76868
      9       2.00000         -10.170952         -276.76569
     10       2.00000         -10.166509         -276.64479
     11       2.00000         -10.148570         -276.15663
     12       2.00000         -10.148502         -276.15478
     13       2.00000         -10.135470         -275.80016
     14       2.00000         -10.133740         -275.75310
     15       2.00000         -10.132548         -275.72066
     16       2.00000          -1.132955          -30.82927
     17       2.00000          -1.130321          -30.75760
     18       2.00000          -1.129513          -30.73560
     19       2.00000          -1.018867          -27.72478
     20       2.00000          -1.011543          -27.52549
     21       2.00000          -1.000443          -27.22345
     22       2.00000          -0.882924          -24.02558
     23       2.00000          -0.876152          -23.84132
     24       2.00000          -0.846142          -23.02469
     25       2.00000          -0.817333          -22.24075
     26       2.00000          -0.769391          -20.93619
     27       2.00000          -0.764703          -20.80862
     28       2.00000          -0.702859          -19.12578
     29       2.00000          -0.692525          -18.84456
     30       2.00000          -0.682151          -18.56228
     31       2.00000          -0.638220          -17.36686
     32       2.00000          -0.621106          -16.90115
     33       2.00000          -0.614760          -16.72847
     34       2.00000          -0.601329          -16.36301
     35       2.00000          -0.583280          -15.87185
     36       2.00000          -0.578792          -15.74974
     37       2.00000          -0.567183          -15.43383
     38       2.00000          -0.561681          -15.28411
     39       2.00000          -0.559320          -15.21986
     40       2.00000          -0.552303          -15.02893
     41       2.00000          -0.544041          -14.80411
     42       2.00000          -0.539745          -14.68720
     43       2.00000          -0.532318          -14.48512
     44       2.00000          -0.525996          -14.31308
     45       2.00000          -0.523545          -14.24638
     46       2.00000          -0.519045          -14.12394
     47       2.00000          -0.518310          -14.10393
     48       2.00000          -0.502559          -13.67532
     49       2.00000          -0.496266          -13.50408
     50       2.00000          -0.488036          -13.28013
     51       2.00000          -0.475977          -12.95199
     52       2.00000          -0.473795          -12.89262
     53       2.00000          -0.417084          -11.34943
     54       2.00000          -0.410651          -11.17438
     55       2.00000          -0.401244          -10.91840
     56       2.00000          -0.383881          -10.44594
     57       2.00000          -0.377022          -10.25928
     58       2.00000          -0.375448          -10.21645
     59       0.00000          -0.169843           -4.62166
     60       0.00000          -0.165948           -4.51568
     61       0.00000          -0.157392           -4.28286
     62       0.00000          -0.083573           -2.27413
     63       0.00000          -0.062991           -1.71407
     64       0.00000          -0.061056           -1.66142
     65       0.00000          -0.048936           -1.33163
     66       0.00000          -0.045547           -1.23940
     67       0.00000          -0.034887           -0.94933
     68       0.00000          -0.032290           -0.87865
     69       0.00000          -0.030100           -0.81907
     70       0.00000          -0.027230           -0.74098
     71       0.00000          -0.022786           -0.62005
     72       0.00000          -0.021142           -0.57530
     73       0.00000          -0.012541           -0.34127
     74       0.00000          -0.009849           -0.26801
     75       0.00000          -0.008077           -0.21978
     76       0.00000           0.000134            0.00365
     77       0.00000           0.001719            0.04678
     78       0.00000           0.006952            0.18917
     79       0.00000           0.009375            0.25511
     80       0.00000           0.014301            0.38916
     81       0.00000           0.026759            0.72816
     82       0.00000           0.032053            0.87221
     83       0.00000           0.034473            0.93805
     84       0.00000           0.040660            1.10640
     85       0.00000           0.045562            1.23980
     86       0.00000           0.058697            1.59723
     87       0.00000           0.062243            1.69371
     88       0.00000           0.066732            1.81588
     89       0.00000           0.070401            1.91571
     90       0.00000           0.074803            2.03550
     91       0.00000           0.078347            2.13194
     92       0.00000           0.079898            2.17414
     93       0.00000           0.087398            2.37822
     94       0.00000           0.093249            2.53744
     95       0.00000           0.096508            2.62612
     96       0.00000           0.102560            2.79081
     97       0.00000           0.103885            2.82686
     98       0.00000           0.109755            2.98660
     99       0.00000           0.111360            3.03025
    100       0.00000           0.117521            3.19791
    101       0.00000           0.127284            3.46357
    102       0.00000           0.134081            3.64853
    103       0.00000           0.140323            3.81837
    104       0.00000           0.143938            3.91675
    105       0.00000           0.151196            4.11425
    106       0.00000           0.153620            4.18021
    107       0.00000           0.160395            4.36457
    108       0.00000           0.164801            4.48446
    109       0.00000           0.168173            4.57622
    110       0.00000           0.169935            4.62417
    111       0.00000           0.178353            4.85323
    112       0.00000           0.182430            4.96417
    113       0.00000           0.192300            5.23276
    114       0.00000           0.196095            5.33603
    115       0.00000           0.197776            5.38177
    116       0.00000           0.202378            5.50700
    117       0.00000           0.208951            5.68584
    118       0.00000           0.212444            5.78089
    119       0.00000           0.214298            5.83136
    120       0.00000           0.217619            5.92170
    121       0.00000           0.226762            6.17051
    122       0.00000           0.232872            6.33676
    123       0.00000           0.235278            6.40223
    124       0.00000           0.246715            6.71346
    125       0.00000           0.248711            6.76777
    126       0.00000           0.252845            6.88026
    127       0.00000           0.264517            7.19787
    128       0.00000           0.270410            7.35823
    129       0.00000           0.271762            7.39501

  Highest occupied state (VBM) at    -10.21645338 eV
  | Occupation number:      2.00000000

  Lowest unoccupied state (CBM) at    -4.62166062 eV
  | Occupation number:      0.00000000

  Overall HOMO-LUMO gap:      5.59479275 eV.
  Calculating total energy contributions from superposition of free atom densities.

  Total energy components:
  | Sum of eigenvalues            :        -437.79953336 Ha      -11913.13143619 eV
  | XC energy correction          :         -98.82291121 Ha       -2689.10823432 eV
  | XC potential correction       :         127.02675221 Ha        3456.57379623 eV
  | Free-atom electrostatic energy:        -333.67128760 Ha       -9079.65770339 eV
  | Hartree energy correction     :           0.00000000 Ha           0.00000000 eV
  | MBD@rsSCS energy              :           0.00000000 Ha           0.00000000 eV
  | Entropy correction            :          -0.00000000 Ha          -0.00000000 eV
  | ---------------------------
  | Total energy                  :        -743.26697995 Ha      -20225.32357767 eV
  | Total energy, T -> 0          :        -743.26697995 Ha      -20225.32357767 eV  <-- do not rely on this value for anything but (periodic) metals
  | Electronic free energy        :        -743.26697995 Ha      -20225.32357767 eV

  Derived energy quantities:
  | Kinetic energy                :         735.17068126 Ha       20005.01208076 eV
  | Electrostatic energy          :       -1379.61475000 Ha      -37541.22742412 eV
  | Energy correction for multipole
  | error in Hartree potential    :           0.00000000 Ha           0.00000000 eV
  | Sum of eigenvalues per atom                           :        -372.28535738 eV
  | Total energy (T->0) per atom                          :        -632.04136180 eV  <-- do not rely on this value for anything but (periodic) metals
  | Electronic free energy per atom                       :        -632.04136180 eV
  Initialize hartree_potential_storage
  Max. number of atoms included in rho_multipole:           32

  End scf initialization - timings             :  max(cpu_time)    wall_clock(cpu1)
  | Time for scf. initialization               :        2.060 s           2.051 s
  | Boundary condition initialization          :        0.004 s           0.001 s
  | Integration                                :        1.332 s           1.331 s
  | Solution of K.-S. eqns.                    :        0.076 s           0.074 s
  | Grid partitioning                          :        0.268 s           0.258 s
  | Preloading free-atom quantities on grid    :        0.028 s           0.028 s
  | Free-atom superposition energy             :        0.044 s           0.041 s
  | Total energy evaluation                    :        0.004 s           0.001 s
------------------------------------------------------------

------------------------------------------------------------
          Begin self-consistency iteration #    1

  Date     :  20170309, Time     :  185213.740
------------------------------------------------------------
  Evaluating new KS density.
  Integration grid: deviation in total charge (<rho> - N_e) =   8.526513E-14
  Pulay mixing of updated and previous charge densities.

  Evaluating partitioned Hartree potential by multipole expansion.
  | Analytical far-field extrapolation by fixed multipoles:
  | Hartree multipole sum: apparent total charge =  -0.103940E-03
  Summing up the Hartree potential.
  Time summed over all CPUs for potential: real work        9.655 s, elapsed       10.033 s
  | RMS charge density error from multipole expansion :   0.110598E-01

  Integrating Hamiltonian matrix: batch-based integration.
  Time summed over all CPUs for integration: real work       24.656 s, elapsed       25.576 s

  Updating Kohn-Sham eigenvalues, eigenvectors, occupation numbers, and Fermi level.
  Solving generalized eigenproblem
  Solving real symmetric generalised eigenvalue problem by standard ScaLAPACK.
  Using Cholesky factor for transformation
  Using 2-stage real ELPA solver
  K-Point:    1, Trafo times: 1-stage=     0.021 s, 2-stage=     0.019 s ==> Using 2-stage solver
  Determining occupation numbers for Kohn-Sham eigenstates.
  | Chemical potential (Fermi level) in eV                 : -.40234391E+01
  | Error in electron count due to remaining E_F inaccuracy: 0.00000000E+00
  | Maximum occupation number of highest empty state:  0.00E+00

  Writing Kohn-Sham eigenvalues.

  State    Occupation    Eigenvalue [Ha]    Eigenvalue [eV]
      1       2.00000         -18.626895         -506.86360
      2       2.00000         -18.626323         -506.84802
      3       2.00000         -18.604802         -506.26241
      4       2.00000         -14.003753         -381.06150
      5       2.00000         -13.996630         -380.86769
      6       2.00000         -13.983899         -380.52127
      7       2.00000         -10.067599         -273.95330
      8       2.00000         -10.062205         -273.80652
      9       2.00000         -10.047198         -273.39816
     10       2.00000          -9.970621         -271.31440
     11       2.00000          -9.967158         -271.22017
     12       2.00000          -9.904868         -269.52517
     13       2.00000          -9.851293         -268.06733
     14       2.00000          -9.844086         -267.87122
     15       2.00000          -9.842294         -267.82244
     16       2.00000          -0.975552          -26.54612
     17       2.00000          -0.967682          -26.33196
     18       2.00000          -0.950462          -25.86338
     19       2.00000          -0.876591          -23.85326
     20       2.00000          -0.864807          -23.53259
     21       2.00000          -0.858292          -23.35531
     22       2.00000          -0.738770          -20.10295
     23       2.00000          -0.726356          -19.76515
     24       2.00000          -0.692268          -18.83758
     25       2.00000          -0.683915          -18.61027
     26       2.00000          -0.635244          -17.28587
     27       2.00000          -0.630263          -17.15033
     28       2.00000          -0.577698          -15.71997
     29       2.00000          -0.568017          -15.45653
     30       2.00000          -0.557210          -15.16246
     31       2.00000          -0.508498          -13.83695
     32       2.00000          -0.486710          -13.24407
     33       2.00000          -0.476415          -12.96390
     34       2.00000          -0.458498          -12.47637
     35       2.00000          -0.451150          -12.27643
     36       2.00000          -0.446683          -12.15486
     37       2.00000          -0.437024          -11.89203
     38       2.00000          -0.420774          -11.44986
     39       2.00000          -0.411587          -11.19985
     40       2.00000          -0.408119          -11.10548
     41       2.00000          -0.403775          -10.98728
     42       2.00000          -0.393338          -10.70327
     43       2.00000          -0.388752          -10.57847
     44       2.00000          -0.381036          -10.36852
     45       2.00000          -0.379592          -10.32922
     46       2.00000          -0.375438          -10.21619
     47       2.00000          -0.366086           -9.96170
     48       2.00000          -0.362930           -9.87583
     49       2.00000          -0.350697           -9.54295
     50       2.00000          -0.348396           -9.48035
     51       2.00000          -0.341416           -9.29041
     52       2.00000          -0.331198           -9.01235
     53       2.00000          -0.252962           -6.88344
     54       2.00000          -0.244555           -6.65469
     55       2.00000          -0.236719           -6.44145
     56       2.00000          -0.217709           -5.92416
     57       2.00000          -0.211734           -5.76159
     58       2.00000          -0.200806           -5.46421
     59       0.00000          -0.062478           -1.70011
     60       0.00000          -0.059764           -1.62627
     61       0.00000          -0.039813           -1.08336
     62       0.00000          -0.037296           -1.01488
     63       0.00000          -0.023468           -0.63860
     64       0.00000          -0.016950           -0.46124
     65       0.00000          -0.005006           -0.13622
     66       0.00000           0.004713            0.12824
     67       0.00000           0.009033            0.24580
     68       0.00000           0.017260            0.46968
     69       0.00000           0.025495            0.69377
     70       0.00000           0.029544            0.80393
     71       0.00000           0.033854            0.92122
     72       0.00000           0.043955            1.19607
     73       0.00000           0.045998            1.25167
     74       0.00000           0.050095            1.36317
     75       0.00000           0.053109            1.44517
     76       0.00000           0.059986            1.63231
     77       0.00000           0.066930            1.82126
     78       0.00000           0.071300            1.94016
     79       0.00000           0.077170            2.09990
     80       0.00000           0.084101            2.28850
     81       0.00000           0.089663            2.43986
     82       0.00000           0.097591            2.65557
     83       0.00000           0.102352            2.78513
     84       0.00000           0.105917            2.88215
     85       0.00000           0.109044            2.96723
     86       0.00000           0.113338            3.08408
     87       0.00000           0.121335            3.30168
     88       0.00000           0.128034            3.48398
     89       0.00000           0.133679            3.63760
     90       0.00000           0.135903            3.69811
     91       0.00000           0.139023            3.78301
     92       0.00000           0.148519            4.04141
     93       0.00000           0.150371            4.09181
     94       0.00000           0.153718            4.18288
     95       0.00000           0.162385            4.41873
     96       0.00000           0.167410            4.55547
     97       0.00000           0.170618            4.64276
     98       0.00000           0.177677            4.83484
     99       0.00000           0.181927            4.95048
    100       0.00000           0.186937            5.08681
    101       0.00000           0.188235            5.12213
    102       0.00000           0.194410            5.29017
    103       0.00000           0.197158            5.36494
    104       0.00000           0.204877            5.57498
    105       0.00000           0.208258            5.66700
    106       0.00000           0.210288            5.72223
    107       0.00000           0.218624            5.94907
    108       0.00000           0.222048            6.04225
    109       0.00000           0.223418            6.07952
    110       0.00000           0.229515            6.24543
    111       0.00000           0.240170            6.53535
    112       0.00000           0.246471            6.70681
    113       0.00000           0.249816            6.79783
    114       0.00000           0.258123            7.02389
    115       0.00000           0.261537            7.11678
    116       0.00000           0.268073            7.29465
    117       0.00000           0.272176            7.40629
    118       0.00000           0.277556            7.55268
    119       0.00000           0.280440            7.63117
    120       0.00000           0.285954            7.78121
    121       0.00000           0.290991            7.91826
    122       0.00000           0.293319            7.98163
    123       0.00000           0.299955            8.16219
    124       0.00000           0.312696            8.50888
    125       0.00000           0.313227            8.52333
    126       0.00000           0.322403            8.77302
    127       0.00000           0.323115            8.79242
    128       0.00000           0.331439            9.01891
    129       0.00000           0.336658            9.16094

  Highest occupied state (VBM) at     -5.46420755 eV
  | Occupation number:      2.00000000

  Lowest unoccupied state (CBM) at    -1.70010549 eV
  | Occupation number:      0.00000000

  Overall HOMO-LUMO gap:      3.76410206 eV.

  Total energy components:
  | Sum of eigenvalues            :        -417.99069688 Ha      -11374.10557023 eV
  | XC energy correction          :        -100.74197076 Ha       -2741.32850164 eV
  | XC potential correction       :         129.51437297 Ha        3524.26540129 eV
  | Free-atom electrostatic energy:        -333.67128760 Ha       -9079.65770339 eV
  | Hartree energy correction     :         -19.81664133 Ha        -539.23824664 eV
  | MBD@rsSCS energy              :           0.00000000 Ha           0.00000000 eV
  | Entropy correction            :           0.00000000 Ha           0.00000000 eV
  | ---------------------------
  | Total energy                  :        -742.70622359 Ha      -20210.06462060 eV
  | Total energy, T -> 0          :        -742.70622359 Ha      -20210.06462060 eV  <-- do not rely on this value for anything but (periodic) metals
  | Electronic free energy        :        -742.70622359 Ha      -20210.06462060 eV

  Derived energy quantities:
  | Kinetic energy                :         743.98494499 Ha       20244.86040027 eV
  | Electrostatic energy          :       -1385.94919782 Ha      -37713.59651924 eV
  | Energy correction for multipole
  | error in Hartree potential    :          -0.04290771 Ha          -1.16757816 eV
  | Sum of eigenvalues per atom                           :        -355.44079907 eV
  | Total energy (T->0) per atom                          :        -631.56451939 eV  <-- do not rely on this value for anything but (periodic) metals
  | Electronic free energy per atom                       :        -631.56451939 eV

  Self-consistency convergence accuracy:
  | Change of charge density      :  0.9027E+00
  | Change of sum of eigenvalues  :  0.5390E+03 eV
  | Change of total energy        :  0.1526E+02 eV

  End self-consistency iteration #     1       :  max(cpu_time)    wall_clock(cpu1)
  | Time for this iteration                    :        1.696 s           1.697 s
[...]
   Multipole                     : -0.481819E+00  0.926550E-01 -0.258348E+00
   Pulay + GGA                   : -0.116072E+02  0.660564E+00 -0.582918E+01
   MBD@rsSCS                     : -0.776574E-02 -0.174732E-02 -0.276326E-01
   ----------------------------------------------------------------
   Total forces(  20)            :  0.554261E-02 -0.523273E-02 -0.550166E-02
  atom #   21
   Hellmann-Feynman              :  0.382821E-01 -0.526896E-01 -0.170660E-01
   Ionic forces                  :  0.000000E+00  0.000000E+00  0.000000E+00
   Multipole                     :  0.259035E-02  0.305016E-01  0.304986E-01
   Pulay + GGA                   : -0.535143E-01  0.286159E-01 -0.294038E-02
   MBD@rsSCS                     :  0.719608E-03  0.142085E-03  0.128084E-01
   ----------------------------------------------------------------
   Total forces(  21)            : -0.119223E-01  0.657002E-02  0.233007E-01
  atom #   22
   Hellmann-Feynman              : -0.354283E-01  0.399255E-03  0.203483E-01
   Ionic forces                  :  0.000000E+00  0.000000E+00  0.000000E+00
   Multipole                     : -0.399025E-02 -0.891997E-02 -0.879680E-02
   Pulay + GGA                   :  0.466521E-01  0.769624E-02 -0.177204E-01
   MBD@rsSCS                     :  0.697470E-02 -0.813240E-02 -0.789467E-02
   ----------------------------------------------------------------
   Total forces(  22)            :  0.142082E-01 -0.895687E-02 -0.140636E-01
  atom #   23
   Hellmann-Feynman              : -0.413194E+00  0.106675E+01  0.190002E+00
   Ionic forces                  :  0.000000E+00  0.000000E+00  0.000000E+00
   Multipole                     :  0.232154E+00 -0.238406E+00 -0.569448E-01
   Pulay + GGA                   :  0.172297E+00 -0.822987E+00 -0.125685E+00
   MBD@rsSCS                     : -0.123935E-02 -0.207391E-01 -0.238499E-02
   ----------------------------------------------------------------
   Total forces(  23)            : -0.998272E-02 -0.153809E-01  0.498770E-02
  atom #   24
   Hellmann-Feynman              :  0.225940E-01 -0.405757E-01 -0.350513E-01
   Ionic forces                  :  0.000000E+00  0.000000E+00  0.000000E+00
   Multipole                     : -0.358655E-01  0.129779E-01 -0.153540E-01
   Pulay + GGA                   :  0.171706E-01  0.315631E-01  0.511938E-01
   MBD@rsSCS                     :  0.327706E-02 -0.102648E-01 -0.696954E-04
   ----------------------------------------------------------------
   Total forces(  24)            :  0.717613E-02 -0.629957E-02  0.718827E-03
  atom #   25
   Hellmann-Feynman              :  0.401805E-01  0.349170E-03  0.721018E-02
   Ionic forces                  :  0.000000E+00  0.000000E+00  0.000000E+00
   Multipole                     :  0.230990E-01  0.127405E-01 -0.951008E-02
   Pulay + GGA                   : -0.610612E-01 -0.231108E-01 -0.241156E-02
   MBD@rsSCS                     :  0.181756E-02 -0.171615E-01 -0.119154E-02
   ----------------------------------------------------------------
   Total forces(  25)            :  0.403593E-02 -0.271826E-01 -0.590300E-02
  atom #   26
   Hellmann-Feynman              :  0.305867E-01 -0.441000E-01  0.149211E-01
   Ionic forces                  :  0.000000E+00  0.000000E+00  0.000000E+00
   Multipole                     : -0.230781E-01  0.380594E-02  0.291827E-01
   Pulay + GGA                   : -0.799815E-02  0.372173E-01 -0.472139E-01
   MBD@rsSCS                     :  0.305418E-02 -0.106898E-01 -0.395236E-02
   ----------------------------------------------------------------
   Total forces(  26)            :  0.256465E-02 -0.137665E-01 -0.706256E-02
  atom #   27
   Hellmann-Feynman              :  0.108268E+01  0.693085E+00  0.937979E+00
   Ionic forces                  :  0.000000E+00  0.000000E+00  0.000000E+00
   Multipole                     :  0.137272E+00  0.100733E+00  0.668134E-01
   Pulay + GGA                   : -0.123000E+01 -0.786562E+00 -0.994910E+00
   MBD@rsSCS                     :  0.135020E-01  0.100757E-01 -0.299452E-01
   ----------------------------------------------------------------
   Total forces(  27)            :  0.345778E-02  0.173323E-01 -0.200622E-01
  atom #   28
   Hellmann-Feynman              : -0.219786E+01 -0.401735E+00 -0.773420E+00
   Ionic forces                  :  0.000000E+00  0.000000E+00  0.000000E+00
   Multipole                     :  0.172182E+00  0.380349E-01  0.903542E-01
   Pulay + GGA                   :  0.202343E+01  0.378377E+00  0.683617E+00
   MBD@rsSCS                     :  0.223185E-01  0.910375E-02 -0.127399E-01
   ----------------------------------------------------------------
   Total forces(  28)            :  0.200681E-01  0.237808E-01 -0.121890E-01
  atom #   29
   Hellmann-Feynman              :  0.338017E-01  0.450208E-01 -0.330390E-01
   Ionic forces                  :  0.000000E+00  0.000000E+00  0.000000E+00
   Multipole                     : -0.419952E-01 -0.493003E-02 -0.422652E-02
   Pulay + GGA                   :  0.348908E-02 -0.431093E-01  0.485953E-01
   MBD@rsSCS                     : -0.296868E-05  0.617759E-03 -0.787124E-02
   ----------------------------------------------------------------
   Total forces(  29)            : -0.470733E-02 -0.240078E-02  0.345860E-02
  atom #   30
   Hellmann-Feynman              :  0.528605E-01  0.263362E-01 -0.533852E-02
   Ionic forces                  :  0.000000E+00  0.000000E+00  0.000000E+00
   Multipole                     : -0.218467E-01 -0.615861E-03 -0.367548E-01
   Pulay + GGA                   : -0.349894E-01 -0.300654E-01  0.468502E-01
   MBD@rsSCS                     :  0.633027E-02  0.208474E-02 -0.991127E-03
   ----------------------------------------------------------------
   Total forces(  30)            :  0.235460E-02 -0.226025E-02  0.376570E-02
  atom #   31
   Hellmann-Feynman              :  0.230482E-01  0.166136E-01  0.230634E-01
   Ionic forces                  :  0.000000E+00  0.000000E+00  0.000000E+00
   Multipole                     : -0.559606E-02  0.219362E-01  0.147482E-01
   Pulay + GGA                   : -0.188598E-01 -0.324463E-01 -0.397892E-01
   MBD@rsSCS                     :  0.168086E-01  0.364307E-02 -0.128491E-01
   ----------------------------------------------------------------
   Total forces(  31)            :  0.154009E-01  0.974649E-02 -0.148266E-01
  atom #   32
   Hellmann-Feynman              :  0.402118E-01 -0.283335E-01  0.345430E-01
   Ionic forces                  :  0.000000E+00  0.000000E+00  0.000000E+00
   Multipole                     : -0.981595E-03 -0.272726E-01 -0.156157E-01
   Pulay + GGA                   : -0.285889E-01  0.619381E-01 -0.237514E-01
   MBD@rsSCS                     :  0.146238E-01  0.772943E-02 -0.766535E-02
   ----------------------------------------------------------------
   Total forces(  32)            :  0.252651E-01  0.140615E-01 -0.124894E-01

  Removing unitary transformations (pure translations, rotations) from forces on atoms.
  Atomic forces before filtering:
  | Net force on center of mass :  -0.452626E-03 -0.345233E-03 -0.790994E-03 eV/A
  | Net torque on center of mass:  -0.160960E-02  0.440231E-03  0.246801E-02 eV
  Atomic forces after filtering:
  | Net force on center of mass :  -0.111504E-16 -0.278760E-17 -0.975658E-17 eV/A
  | Net torque on center of mass:  -0.885079E-17  0.177016E-16  0.000000E+00 eV

  Energy and forces in a compact form:
  | Total energy uncorrected      :         -0.202088181531288E+05 eV
  | Total energy corrected        :         -0.202088181531288E+05 eV  <-- do not rely on this value for anything but (periodic) metals
  | Electronic free energy        :         -0.202088181531288E+05 eV
  Total atomic forces (unitary forces cleaned) [eV/Ang]:
  |   1         -0.563925088994161E-02         -0.145184813738050E-01          0.748380808961896E-02
  |   2         -0.174450488123016E-01         -0.778334857243539E-02          0.927078836515224E-02
  |   3         -0.482153052446056E-02          0.156329236173706E-02         -0.227999526131010E-02
  |   4         -0.811172720765590E-02         -0.708882758344092E-02          0.158046722033193E-01
  |   5          0.314590695608806E-02          0.167897683996639E-02          0.262613544000683E-02
  |   6         -0.619561639663997E-02         -0.202388943626050E-01          0.191520214849761E-01
  |   7         -0.380936462967787E-01          0.825792058405320E-02          0.115440454791442E-03
  |   8          0.589128449226967E-02          0.402073940289786E-01         -0.444411626052976E-02
  |   9          0.312255271298294E-01          0.154470159404966E-01          0.267258404189637E-01
  |  10          0.638172160838964E-02         -0.185501625591731E-01          0.454763117643405E-02
  |  11         -0.258141902490255E-01         -0.783004606507769E-03          0.858108381754191E-02
  |  12          0.843191022956253E-02          0.997984880946408E-02         -0.573692804079956E-02
  |  13         -0.222183845564270E-02          0.376889267684567E-02         -0.804015038173699E-02
  |  14          0.493757763263544E-02          0.105545065423048E-01         -0.695698993794548E-02
  |  15          0.175177607763864E-02          0.316619293874929E-01          0.719135118519286E-02
  |  16         -0.429804870772544E-02          0.874150697865610E-02         -0.153303904885939E-01
  |  17         -0.529806082989175E-02         -0.771393258253049E-02          0.424496626170319E-01
  |  18         -0.284791171487871E-03         -0.320866590269392E-01         -0.639506849522008E-02
  |  19         -0.173215770635649E-01         -0.133190426550727E-01         -0.393179599174645E-01
  |  20          0.555276346416052E-02         -0.527609346850049E-02         -0.547193903505126E-02
  |  21         -0.118894369847191E-01          0.662713282006351E-02          0.233335815321317E-01
  |  22          0.142482501030835E-01         -0.896644961174384E-02         -0.140147479319501E-01
  |  23         -0.992447104532119E-02         -0.153659752521046E-01          0.504764134058783E-02
  |  24          0.724076635403979E-02         -0.630668984833091E-02          0.787323812579374E-03
  |  25          0.409074575120628E-02         -0.271513294865085E-01         -0.584834001457299E-02
  |  26          0.263825787699643E-02         -0.137400483681647E-01         -0.699189463978707E-02
  |  27          0.345764124014156E-02          0.173316252690907E-01         -0.200473560851838E-01
  |  28          0.200675693608148E-01          0.238136672490325E-01         -0.121795502378327E-01
  |  29         -0.472077041463501E-02         -0.241769125364872E-02          0.346511421639544E-02
  |  30          0.234302871826267E-02         -0.222679568061739E-02          0.376606651166230E-02
  |  31          0.153916861331117E-01          0.979399375468781E-02         -0.148265143636596E-01
  |  32          0.252835919215613E-01          0.141057230492587E-01         -0.124662215747480E-01

  ------------------------------------ 
  Start decomposition of the XC Energy 
  ------------------------------------ 
  Hartree-Fock part   :          0.000000000 Ha              0.000000000 eV
  ------------------------------------ 
  X Energy            :        -96.979242648 Ha          -2638.939460210 eV
  C Energy GGA        :         -3.869862881 Ha           -105.304326805 eV
  Total XC Energy     :       -100.849105528 Ha          -2744.243787015 eV
  LDA X and C from self-consistent density 
  X Energy LDA        :        -87.997937077 Ha          -2394.545700999 eV
  C Energy LDA        :         -7.532158378 Ha           -204.960457743 eV
  ------------------------------------ 
  End decomposition of the XC Energy 
  ------------------------------------ 
   
  ESP charge fitting starts.
  | Calculation :  00000001  of  00000001
  | Full density
  Computing multipole expansion for total density.
  Generating points for esp charges.
  Partitioning the integration grid into batches with parallel hashing+maxmin method.
  | Number of batches:     3895
  | Maximal batch size:     200
  | Minimal batch size:      51
  | Average batch size:     125.369
  | Standard deviation of batch sizes:      17.722

  Integration load balanced across    32 MPI tasks.
  Work distribution over tasks is as follows:
  Initializing partition tables, free-atom densities, potentials, etc. across the integration grid (initialize_grid_storage).
  | Original list of interatomic distances with          32 x         32 entries is created.
  | Net number of integration points:   488311
  | of which are non-zero points    :   488311
  Summing up potential from multipole expanded  density.
  Summing up the Hartree potential.
  Time summed over all CPUs for potential: real work        6.379 s, elapsed        6.630 s
  Fitting esp charges to potential.
  |
  | ESP charges fitted to the electrostatic potential :
  |
  | Atom         1: C, ESP charge:      0.72491208
  |
  | Atom         2: C, ESP charge:     -0.70683095
  |
  | Atom         3: O, ESP charge:      0.54230150
  |
  | Atom         4: H, ESP charge:     -0.21358004
  |
  | Atom         5: H, ESP charge:     -0.19982893
  |
  | Atom         6: H, ESP charge:     -0.20038255
  |
  | Atom         7: N, ESP charge:      0.56737737
  |
  | Atom         8: C, ESP charge:     -0.42410741
  |
  | Atom         9: C, ESP charge:     -0.40285482
  |
  | Atom        10: O, ESP charge:      0.51250403
  |
  | Atom        11: H, ESP charge:     -0.28048958
  |
  | Atom        12: H, ESP charge:      0.03476468
  |
  | Atom        13: C, ESP charge:      0.30519171
  |
  | Atom        14: H, ESP charge:     -0.09451097
  |
  | Atom        15: H, ESP charge:     -0.07999530
  |
  | Atom        16: H, ESP charge:     -0.08440967
  |
  | Atom        17: N, ESP charge:      0.69109350
  |
  | Atom        18: C, ESP charge:     -0.98574225
  |
  | Atom        19: C, ESP charge:      0.02331430
  |
  | Atom        20: O, ESP charge:      0.43472833
  |
  | Atom        21: H, ESP charge:     -0.31654140
  |
  | Atom        22: H, ESP charge:      0.15027671
  |
  | Atom        23: C, ESP charge:      0.62724397
  |
  | Atom        24: H, ESP charge:     -0.17780463
  |
  | Atom        25: H, ESP charge:     -0.14603551
  |
  | Atom        26: H, ESP charge:     -0.13835057
  |
  | Atom        27: N, ESP charge:      0.18681963
  |
  | Atom        28: C, ESP charge:      0.39027251
  |
  | Atom        29: H, ESP charge:     -0.30032082
  |
  | Atom        30: H, ESP charge:     -0.16211627
  |
  | Atom        31: H, ESP charge:     -0.15578893
  |
  | Atom        32: H, ESP charge:     -0.12110971

  RRMS:       0.00336613

  Done.

------------------------------------------------------------------------------
  Final output of selected total energy values:

  The following output summarizes some interesting total energy values
  at the end of a run (AFTER all relaxation, molecular dynamics, etc.).

  | Total energy of the DFT / Hartree-Fock s.c.f. calculation      :         -20208.818153129 eV
  | Final zero-broadening corrected energy (caution - metals only) :         -20208.818153129 eV
  | For reference only, the value of 1 Hartree used in FHI-aims is :             27.211384500 eV

  Before relying on these values, please be sure to understand exactly which
  total energy value is referred to by a given number. Different objects may
  all carry the same name 'total energy'. Definitions:

  Total energy of the DFT / Hartree-Fock s.c.f. calculation:
  | Note that this energy does not include ANY quantities calculated after the
  | s.c.f. cycle, in particular not ANY RPA, MP2, etc. many-body perturbation terms.

  Final zero-broadening corrected energy:
  | For metallic systems only, a broadening of the occupation numbers at the Fermi
  | level can be extrapolated back to zero broadening by an electron-gas inspired
  | formula. For all systems that are not real metals, this value can be
  | meaningless and should be avoided.

------------------------------------------------------------------------------
  Methods described in the following list of references were used in this FHI-aims run.
  If you publish the results, please make sure to cite these reference if they apply.
  FHI-aims is an academic code, and for our developers (often, Ph.D. students
  and postdocs), scientific credit in the community is essential.
  Thank you for helping us!

  For any use of FHI-aims, please cite:

    Volker Blum, Ralf Gehrke, Felix Hanke, Paula Havu, Ville Havu,
    Xinguo Ren, Karsten Reuter, and Matthias Scheffler
    'Ab initio molecular simulations with numeric atom-centered orbitals'
    Computer Physics Communications 180, 2175-2196 (2009)
    http://dx.doi.org/10.1016/j.cpc.2009.06.022


  The scalable eigensolver library ELPA was used in your run.
  ELPA is essential especially for large systems on hundreds or thousands of CPUs.
  For ELPA, please cite:

    Andreas Marek, Volker Blum, Rainer Johanni, Ville Havu, Bruno Lang,
    Thomas Auckenthaler, Alexander Heinecke, Hans-Joachim Bungartz, and Hermann Lederer,
    'The ELPA Library - Scalable Parallel Eigenvalue Solutions
    for Electronic Structure Theory and Computational Science'
    The Journal of Physics: Condensed Matter 26, 213201 (2014).
    http://dx.doi.org/10.1088/0953-8984/26/21/213201


  For ELPA's efficient two-stage tridiagonalization used in your run, please cite:

    T. Auckenthaler, V. Blum, H.-J. Bungartz, T. Huckle, R. Johanni, L. Kraemer,
    B. Lang, H. Lederer, and P. R. Willems,
    'Parallel solution of partial symmetric eigenvalue problems'
    'from  electronic structure calculations'
    Parallel Computing 37, 783-794 (2011).
    http://dx.doi.org/10.1016/j.parco.2011.05.002


  For the real-space grid partitioning and parallelization used in this calculation, please cite:

    Ville Havu, Volker Blum, Paula Havu, and Matthias Scheffler,
    'Efficient O(N) integration for all-electron electronic structure calculation'
    'using numerically tabulated basis functions'
    Journal of Computational Physics 228, 8367-8379 (2009).
    http://dx.doi.org/10.1016/j.jcp.2009.08.008

  Of course, there are many other important community references, e.g., those cited in the
  above references. Our list is limited to references that describe implementations in the
  FHI-aims code. The reason is purely practical (length of this list) - please credit others as well.

------------------------------------------------------------
          Leaving FHI-aims.
          Date     :  20170309, Time     :  185246.647

          Computational steps:
          | Number of self-consistency cycles          :           14

          Detailed time accounting                     :  max(cpu_time)    wall_clock(cpu1)
          | Total time                                 :       35.682 s          35.982 s
          | Preparation time                           :        0.240 s           0.239 s
          | Grid partitioning                          :        0.268 s           0.258 s
          | Preloading free-atom quantities on grid    :        0.028 s           0.028 s
          | Free-atom superposition energy             :        0.044 s           0.041 s
          | Total time for integrations                :       12.753 s          12.744 s
          | Total time for solution of K.-S. equations :        0.528 s           0.489 s
          | Total time for density & force components  :       10.577 s          10.554 s
          | Total time for mixing                      :        0.124 s           0.107 s
          | Total time for Hartree multipole update    :        0.060 s           0.058 s
          | Total time for Hartree multipole sum       :        6.320 s           6.305 s
          | Total time for total energy evaluation     :        0.040 s           0.015 s

          Have a nice day.
------------------------------------------------------------
