  MPI-parallelism will be employed.
------------------------------------------------------------
          Invoking FHI-aims ...
          Version 150427
          Git rev.: 9dd23e0 BL: Update Version stamp
          Compiled on 2015/11/03 at 22:05:20 on host eos03.

          When using FHI-aims, please cite the following reference:

          Volker Blum, Ralf Gehrke, Felix Hanke, Paula Havu,
          Ville Havu, Xinguo Ren, Karsten Reuter, and Matthias Scheffler,
          'Ab Initio Molecular Simulations with Numeric Atom-Centered Orbitals: FHI-aims',
          Computer Physics Communications 180, 2175-2196 (2009)

          For any questions about FHI-aims, please visit the aimsclub website
          with its forums and wiki. Contributions to both the forums and the
          wiki are warmly encouraged - they are for you, and everyone is welcome there.

------------------------------------------------------------

  Date     :  20170309, Time     :  181510.299
  Time zero on CPU 1             :   0.300018000000000E+00  s.
  Internal wall clock time zero  :           258315310.299  s.

  Using       32 parallel tasks.
  Task        0 on host eos399 reporting.
  Task        1 on host eos399 reporting.
  Task        2 on host eos399 reporting.
  Task        3 on host eos399 reporting.
  Task        4 on host eos399 reporting.
  Task        5 on host eos399 reporting.
  Task        6 on host eos399 reporting.
  Task        7 on host eos399 reporting.
  Task        8 on host eos399 reporting.
  Task        9 on host eos399 reporting.
  Task       10 on host eos399 reporting.
  Task       11 on host eos399 reporting.
  Task       12 on host eos399 reporting.
  Task       13 on host eos399 reporting.
  Task       14 on host eos399 reporting.
  Task       15 on host eos399 reporting.
  Task       16 on host eos399 reporting.
  Task       17 on host eos399 reporting.
  Task       18 on host eos399 reporting.
  Task       19 on host eos399 reporting.
  Task       20 on host eos399 reporting.
  Task       21 on host eos399 reporting.
  Task       22 on host eos399 reporting.
  Task       23 on host eos399 reporting.
  Task       24 on host eos399 reporting.
  Task       25 on host eos399 reporting.
  Task       26 on host eos399 reporting.
  Task       27 on host eos399 reporting.
  Task       28 on host eos399 reporting.
  Task       29 on host eos399 reporting.
  Task       30 on host eos399 reporting.
  Task       31 on host eos399 reporting.

  Performing system and environment tests:
  | Environment variable OMP_NUM_THREADS correctly set to 1.
  | Stacksize not measured: no C compiler
  | Checking for scalapack...
  | Testing pdtran()...
  | All pdtran() tests passed.

  Obtaining array dimensions for all initial allocations:
  
  -----------------------------------------------------------------------
  Parsing control.in (first pass over file, find array dimensions only).
  The contents of control.in will be repeated verbatim below
  unless switched off by setting 'verbatim_writeout .false.' .
  in the first line of control.in .
  -----------------------------------------------------------------------
  
  #########################################################################################
  #
  # Input for System
  #
  #########################################################################################
  #
  #
  #  Physical model
  #
    xc                 pbe
    many_body_dispersion
    spin               none
    charge             0.
  #
  #  SCF convergence
  #
    occupation_type    gaussian 0.05
    mixer              pulay
      n_max_pulay        10
      charge_mix_param   0.5
    sc_accuracy_rho    1E-4
    sc_accuracy_eev    1E-2
    sc_accuracy_etot   1E-5
    sc_accuracy_forces 1E-4
    sc_iter_limit      1000
  #
  #  ESP charge
  #
    output esp
    esp equal_grid_n 80 80 80
  #
  #
  ################################################################################
  #
  #  FHI-aims code project
  # Volker Blum, Fritz Haber Institute Berlin, 2009
  #
  #  Suggested "tight" defaults for H atom (to be pasted into control.in file)
  #
  ################################################################################
    species        H
  #     global species definitions
      nucleus             1
      mass                1.00794
  #
      l_hartree           6
  #
      cut_pot             4.0  2.0  1.0
      basis_dep_cutoff    1e-4
  #
      radial_base         24 7.0
      radial_multiplier   2
      angular_grids       specified
        division   0.1930   50
        division   0.3175  110
        division   0.4293  194
        division   0.5066  302
        division   0.5626  434
  #      division   0.5922  590
  #      division   0.6227  974
  #      division   0.6868 1202
  #      outer_grid  770
        outer_grid  434
  ################################################################################
  #
  #  Definition of "minimal" basis
  #
  ################################################################################
  #     valence basis states
      valence      1  s   1.
  #     ion occupancy
      ion_occ      1  s   0.5
  ################################################################################
  #
  #  Suggested additional basis functions. For production calculations,
  #  uncomment them one after another (the most important basis functions are
  #  listed first).
  #
  #  Basis constructed for dimers: 0.5 A, 0.7 A, 1.0 A, 1.5 A, 2.5 A
  #
  ################################################################################
  #  "First tier" - improvements: -1014.90 meV to -62.69 meV
       hydro 2 s 2.1
       hydro 2 p 3.5
  #  "Second tier" - improvements: -12.89 meV to -1.83 meV
       hydro 1 s 0.85
       hydro 2 p 3.7
       hydro 2 s 1.2
       hydro 3 d 7
  #  "Third tier" - improvements: -0.25 meV to -0.12 meV
  #     hydro 4 f 11.2
  #     hydro 3 p 4.8
  #     hydro 4 d 9
  #     hydro 3 s 3.2
  ################################################################################
  #
  # For methods that use the localized form of the "resolution of identity" for
  # the two-electron Coulomb operator (RI_method LVL), particularly Hartree-Fock and
  # hybrid density functional calculations, the highest accuracy can be obtained by
  # uncommenting the line beginning with "for_aux"  below, thus adding an extra g radial
  # function to the construction of the product basis set for the expansion.
  # See Ref. New J. Phys. 17, 093020 (2015) for more information, particularly Figs. 1 and 6.
  #
  ################################################################################
  #
  # for_aux hydro 5 g 6.0
  ################################################################################
  #
  #  FHI-aims code project
  # Volker Blum, Fritz Haber Institute Berlin, 2009
  #
  #  Suggested "tight" defaults for C atom (to be pasted into control.in file)
  #
  ################################################################################
    species        C
  #     global species definitions
      nucleus             6
      mass                12.0107
  #
      l_hartree           6
  #
      cut_pot             4.0  2.0  1.0
      basis_dep_cutoff    1e-4
  #
      radial_base         34 7.0
      radial_multiplier   2
      angular_grids specified
        division   0.2187   50
        division   0.4416  110
        division   0.6335  194
        division   0.7727  302
        division   0.8772  434
  #      division   0.9334  590
  #      division   0.9924  770
  #      division   1.0230  974
  #      division   1.5020 1202
  #     outer_grid  974
        outer_grid  434
  ################################################################################
  #
  #  Definition of "minimal" basis
  #
  ################################################################################
  #     valence basis states
      valence      2  s   2.
      valence      2  p   2.
  #     ion occupancy
      ion_occ      2  s   1.
      ion_occ      2  p   1.
  ################################################################################
  #
  #  Suggested additional basis functions. For production calculations,
  #  uncomment them one after another (the most important basis functions are
  #  listed first).
  #
  #  Constructed for dimers: 1.0 A, 1.25 A, 1.5 A, 2.0 A, 3.0 A
  #
  ################################################################################
  #  "First tier" - improvements: -1214.57 meV to -155.61 meV
       hydro 2 p 1.7
       hydro 3 d 6
       hydro 2 s 4.9
  #  "Second tier" - improvements: -67.75 meV to -5.23 meV
       hydro 4 f 9.8
       hydro 3 p 5.2
       hydro 3 s 4.3
       hydro 5 g 14.4
       hydro 3 d 6.2
  #  "Third tier" - improvements: -2.43 meV to -0.60 meV
  #     hydro 2 p 5.6
  #     hydro 2 s 1.4
  #     hydro 3 d 4.9
  #     hydro 4 f 11.2
  #  "Fourth tier" - improvements: -0.39 meV to -0.18 meV
  #     hydro 2 p 2.1
  #     hydro 5 g 16.4
  #     hydro 4 d 13.2
  #     hydro 3 s 13.6
  #     hydro 4 f 17.6
  #  Further basis functions - improvements: -0.08 meV and below
  #     hydro 3 s 2
  #     hydro 3 p 6
  #     hydro 4 d 20
  ################################################################################
  #
  # For methods that use the localized form of the "resolution of identity" for
  # the two-electron Coulomb operator (RI_method LVL), particularly Hartree-Fock and
  # hybrid density functional calculations, the highest accuracy can be obtained by
  # uncommenting the line beginning with "for_aux"  below, thus adding an extra g radial
  # function to the construction of the product basis set for the expansion.
  # See Ref. New J. Phys. 17, 093020 (2015) for more information, particularly Figs. 1 and 6.
  #
  ################################################################################
  #
  # for_aux hydro 5 g 6.0
  ################################################################################
  #
  #  FHI-aims code project
  # Volker Blum, Fritz Haber Institute Berlin, 2009
  #
  #  Suggested "tight" defaults for N atom (to be pasted into control.in file)
  #
  ################################################################################
    species        N
  #     global species definitions
      nucleus             7
      mass                14.0067
  #
      l_hartree           6
  #
      cut_pot             4.0  2.0  1.0
      basis_dep_cutoff    1e-4
  #
      radial_base         35 7.0
      radial_multiplier   2
      angular_grids       specified
        division   0.1841   50
        division   0.3514  110
        division   0.5126  194
        division   0.6292  302
        division   0.6939  434
  #      division   0.7396  590
  #      division   0.7632  770
  #      division   0.8122  974
  #      division   1.1604 1202
  #      outer_grid  974
        outer_grid  434
  ################################################################################
  #
  #  Definition of "minimal" basis
  #
  ################################################################################
  #     valence basis states
      valence      2  s   2.
      valence      2  p   3.
  #     ion occupancy
      ion_occ      2  s   1.
      ion_occ      2  p   2.
  ################################################################################
  #
  #  Suggested additional basis functions. For production calculations,
  #  uncomment them one after another (the most important basis functions are
  #  listed first).
  #
  #  Constructed for dimers: 1.0 A, 1.1 A, 1.5 A, 2.0 A, 3.0 A
  #
  ################################################################################
  #  "First tier" - improvements: -1193.42 meV to -220.60 meV
       hydro 2 p 1.8
       hydro 3 d 6.8
       hydro 3 s 5.8
  #  "Second tier" - improvements: -80.21 meV to -6.86 meV
       hydro 4 f 10.8
       hydro 3 p 5.8
       hydro 1 s 0.8
       hydro 5 g 16
       hydro 3 d 4.9
  #  "Third tier" - improvements: -4.29 meV to -0.53 meV
  #     hydro 3 s 16
  #     ionic 2 p auto
  #     hydro 3 d 6.6
  #     hydro 4 f 11.6
  #  "Fourth tier" - improvements: -0.75 meV to -0.25 meV
  #     hydro 2 p 4.5
  #     hydro 2 s 2.4
  #     hydro 5 g 14.4
  #     hydro 4 d 14.4
  #     hydro 4 f 16.8
  # Further basis functions - -0.21 meV and below
  #     hydro 3 p 14.8
  #     hydro 3 s 4.4
  #     hydro 3 d 19.6
  #     hydro 5 g 12.8
  ################################################################################
  #
  # For methods that use the localized form of the "resolution of identity" for
  # the two-electron Coulomb operator (RI_method LVL), particularly Hartree-Fock and
  # hybrid density functional calculations, the highest accuracy can be obtained by
  # uncommenting the line beginning with "for_aux"  below, thus adding an extra g radial
  # function to the construction of the product basis set for the expansion.
  # See Ref. New J. Phys. 17, 093020 (2015) for more information, particularly Figs. 1 and 6.
  #
  ################################################################################
  #
  # for_aux hydro 5 g 6.0
  ################################################################################
  #
  #  FHI-aims code project
  # Volker Blum, Fritz Haber Institute Berlin, 2009
  #
  #  Suggested "tight" defaults for O atom (to be pasted into control.in file)
  #
  ################################################################################
    species        O
  #     global species definitions
      nucleus             8
      mass                15.9994
  #
      l_hartree           6
  #
      cut_pot             4.0  2.0  1.0
      basis_dep_cutoff    1e-4
  #
      radial_base         36 7.0
      radial_multiplier   2
       angular_grids specified
        division   0.1817   50
        division   0.3417  110
        division   0.4949  194
        division   0.6251  302
        division   0.8014  434
  #      division   0.8507  590
  #      division   0.8762  770
  #      division   0.9023  974
  #      division   1.2339 1202
  #      outer_grid 974
        outer_grid  434
  ################################################################################
  #
  #  Definition of "minimal" basis
  #
  ################################################################################
  #     valence basis states
      valence      2  s   2.
      valence      2  p   4.
  #     ion occupancy
      ion_occ      2  s   1.
      ion_occ      2  p   3.
  ################################################################################
  #
  #  Suggested additional basis functions. For production calculations,
  #  uncomment them one after another (the most important basis functions are
  #  listed first).
  #
  #  Constructed for dimers: 1.0 A, 1.208 A, 1.5 A, 2.0 A, 3.0 A
  #
  ################################################################################
  #  "First tier" - improvements: -699.05 meV to -159.38 meV
       hydro 2 p 1.8
       hydro 3 d 7.6
       hydro 3 s 6.4
  #  "Second tier" - improvements: -49.91 meV to -5.39 meV
       hydro 4 f 11.6
       hydro 3 p 6.2
       hydro 3 d 5.6
       hydro 5 g 17.6
       hydro 1 s 0.75
  #  "Third tier" - improvements: -2.83 meV to -0.50 meV
  #     ionic 2 p auto
  #     hydro 4 f 10.8
  #     hydro 4 d 4.7
  #     hydro 2 s 6.8
  #  "Fourth tier" - improvements: -0.40 meV to -0.12 meV
  #     hydro 3 p 5
  #     hydro 3 s 3.3
  #     hydro 5 g 15.6
  #     hydro 4 f 17.6
  #     hydro 4 d 14
  # Further basis functions - -0.08 meV and below
  #     hydro 3 s 2.1
  #     hydro 4 d 11.6
  #     hydro 3 p 16
  #     hydro 2 s 17.2
  ################################################################################
  #
  # For methods that use the localized form of the "resolution of identity" for
  # the two-electron Coulomb operator (RI_method LVL), particularly Hartree-Fock and
  # hybrid density functional calculations, the highest accuracy can be obtained by
  # uncommenting the line beginning with "for_aux"  below, thus adding an extra g radial
  # function to the construction of the product basis set for the expansion.
  # See Ref. New J. Phys. 17, 093020 (2015) for more information, particularly Figs. 1 and 6.
  #
  ################################################################################
  #
  # for_aux hydro 5 g 6.0
  
  -----------------------------------------------------------------------
  Completed first pass over input file control.in .
  -----------------------------------------------------------------------
  
  
  -----------------------------------------------------------------------
  Parsing geometry.in (first pass over file, find array dimensions only).
  The contents of geometry.in will be repeated verbatim below
  unless switched off by setting 'verbatim_writeout .false.' .
  in the first line of geometry.in .
  -----------------------------------------------------------------------
  
  #
  # This is the geometry file that corresponds to the current relaxation step.
  # If you do not want this file to be written, set the "write_restart_geometry" flag to .false.
  #
  atom      -0.92801449     -0.71975348     -0.13373692 C
  atom      -0.64278267      0.08058233      1.12537605 C
  atom       0.40464679      0.70384565      1.28870124 O
  atom      -0.92427362     -0.03839711     -0.99415634 H
  atom      -1.88405688     -1.25674227     -0.10428623 H
  atom      -0.11300149     -1.43890576     -0.28202652 H
  atom      -1.64820117      0.06856362      2.05452112 N
  atom      -1.48046002      0.68400789      3.37739751 C
  atom      -2.45293551     -0.05894763      4.30189454 C
  atom      -2.08929674     -0.88218509      5.13350837 O
  atom      -2.43274667     -0.57355316      1.92719980 H
  atom      -0.47003342      0.45153331      3.74021305 H
  atom      -1.65967676      2.20707821      3.34840049 C
  atom      -1.56427569      2.62469642      4.35955353 H
  atom      -2.63773823      2.50113884      2.94190130 H
  atom      -0.88312286      2.64782822      2.71273985 H
  atom      -3.78534476      0.21060161      4.06704232 N
  atom      -4.77429954     -0.80536882      4.37506159 C
  atom      -4.53985700     -2.03325350      3.45580973 C
  atom      -4.08721430     -1.90547970      2.31492915 O
  atom      -3.99031812      0.78061757      3.25057113 H
  atom      -4.62226055     -1.10685454      5.42136349 H
  atom      -6.18793373     -0.25352766      4.18016452 C
  atom      -6.94115569     -1.00984062      4.43310335 H
  atom      -6.34973910      0.04182098      3.13369002 H
  atom      -6.34622764      0.62294629      4.82096576 H
  atom      -4.91189061     -3.22279155      3.98877879 N
  atom      -4.77806609     -4.48699784      3.28703501 C
  atom      -5.16634611     -3.23892738      4.96970652 H
  atom      -5.72202779     -5.04730742      3.31040509 H
  atom      -3.98296081     -5.10501392      3.72756672 H
  atom      -4.51557872     -4.26553151      2.24774797 H
  
  -----------------------------------------------------------------------
  Completed first pass over input file geometry.in .
  -----------------------------------------------------------------------
  

  Basic array size parameters:
  | Number of species                 :        4
  | Number of atoms                   :       32
  | Max. basis fn. angular momentum   :        4
  | Max. atomic/ionic basis occupied n:        2
  | Max. number of basis fn. types    :        2
  | Max. radial fns per species/type  :        8
  | Max. logarithmic grid size        :     1301
  | Max. radial integration grid size :       73
  | Max. angular integration grid size:      434
  | Max. angular grid division number :        8
  | Radial grid for Hartree potential :     1301
  | Number of spin channels           :        1

------------------------------------------------------------
          Reading file control.in.
------------------------------------------------------------
  XC: Using PBE gradient-corrected functionals.
  Self-consistent screening and van der Waals energy (TS, TS+SCS,MBD) module
  Spin treatment: No spin polarisation.
  Charge =   0.000000E+00: Neutral system requested explicitly.
  Occupation type: Gaussian broadening, width =   0.500000E-01 eV.
  Using pulay charge density mixing.
  Pulay mixing - number of memorized iterations:   10
  Charge density mixing - mixing parameter:     0.5000
  Convergence accuracy of self-consistent charge density:  0.1000E-03
  Convergence accuracy of sum of eigenvalues:  0.1000E-01
  Convergence accuracy of total energy:  0.1000E-04
  Convergence accuracy of forces:  0.1000E-03
  Maximum number of s.-c. iterations  :  1000
  Fitting ESP-charges to Potential. 
  | Esp charge output options: 
  | ESP Grid method: 3, cubic grid
  | Number of points in x, ,y, z:  0080 0080 0080
  |
 
  Reading configuration options for species H                   .
  | Found nuclear charge :   1.0000
  | Found atomic mass :    1.00794000000000      amu
  | Found l_max for Hartree potential  :   6
  | Found cutoff potl. onset [A], width [A], scale factor :    4.00000    2.00000    1.00000
  | Threshold for basis-dependent cutoff potential is   0.100000E-03
  | Found data for basic radial integration grid :    24 points, outermost radius =    7.000 A
  | Found multiplier for basic radial grid :   2
  | Found angular grid specification: user-specified.
  | Specified grid contains     6 separate shells.
  | Check grid settings after all constraints further below.
  | Found free-atom valence shell :  1 s   1.000
  | No ionic wave fns used. Skipping ion_occ.
  | Found hydrogenic basis function :  2 s   2.100
  | Found hydrogenic basis function :  2 p   3.500
  | Found hydrogenic basis function :  1 s   0.850
  | Found hydrogenic basis function :  2 p   3.700
  | Found hydrogenic basis function :  2 s   1.200
  | Found hydrogenic basis function :  3 d   7.000
  Species H                   : Missing cutoff potential type.
  Defaulting to exp(1/x)/(1-x)^2 type cutoff potential.
  Species H : No 'logarithmic' tag. Using default grid for free atom:
  | Default logarithmic grid data [bohr] : 0.1000E-03 0.1000E+03 0.1012E+01
  Species H : On-site basis accuracy parameter (for Gram-Schmidt orthonormalisation) not specified.
  Using default value basis_acc =  0.1000000E-03.
  Species H                   : Using default innermost maximum threshold i_radial=  2 for radial functions.
  Species H                   : Default cutoff onset for free atom density etc. : 0.40000000E+01 AA.
  Species H                   : Basic radial grid will be enhanced according to radial_multiplier =   2, to contain    49 grid points.
 
  Reading configuration options for species C                   .
  | Found nuclear charge :   6.0000
  | Found atomic mass :    12.0107000000000      amu
  | Found l_max for Hartree potential  :   6
  | Found cutoff potl. onset [A], width [A], scale factor :    4.00000    2.00000    1.00000
  | Threshold for basis-dependent cutoff potential is   0.100000E-03
  | Found data for basic radial integration grid :    34 points, outermost radius =    7.000 A
  | Found multiplier for basic radial grid :   2
  | Found angular grid specification: user-specified.
  | Specified grid contains     6 separate shells.
  | Check grid settings after all constraints further below.
  | Found free-atom valence shell :  2 s   2.000
  | Found free-atom valence shell :  2 p   2.000
  | No ionic wave fns used. Skipping ion_occ.
  | No ionic wave fns used. Skipping ion_occ.
  | Found hydrogenic basis function :  2 p   1.700
  | Found hydrogenic basis function :  3 d   6.000
  | Found hydrogenic basis function :  2 s   4.900
  | Found hydrogenic basis function :  4 f   9.800
  | Found hydrogenic basis function :  3 p   5.200
  | Found hydrogenic basis function :  3 s   4.300
  | Found hydrogenic basis function :  5 g  14.400
  | Found hydrogenic basis function :  3 d   6.200
  Species C                   : Missing cutoff potential type.
  Defaulting to exp(1/x)/(1-x)^2 type cutoff potential.
  Species C : No 'logarithmic' tag. Using default grid for free atom:
  | Default logarithmic grid data [bohr] : 0.1000E-03 0.1000E+03 0.1012E+01
  Species C : On-site basis accuracy parameter (for Gram-Schmidt orthonormalisation) not specified.
  Using default value basis_acc =  0.1000000E-03.
  Species C                   : Using default innermost maximum threshold i_radial=  2 for radial functions.
  Species C                   : Default cutoff onset for free atom density etc. : 0.40000000E+01 AA.
  Species C                   : Basic radial grid will be enhanced according to radial_multiplier =   2, to contain    69 grid points.
 
  Reading configuration options for species N                   .
  | Found nuclear charge :   7.0000
  | Found atomic mass :    14.0067000000000      amu
  | Found l_max for Hartree potential  :   6
  | Found cutoff potl. onset [A], width [A], scale factor :    4.00000    2.00000    1.00000
  | Threshold for basis-dependent cutoff potential is   0.100000E-03
  | Found data for basic radial integration grid :    35 points, outermost radius =    7.000 A
  | Found multiplier for basic radial grid :   2
  | Found angular grid specification: user-specified.
  | Specified grid contains     6 separate shells.
  | Check grid settings after all constraints further below.
  | Found free-atom valence shell :  2 s   2.000
  | Found free-atom valence shell :  2 p   3.000
  | No ionic wave fns used. Skipping ion_occ.
  | No ionic wave fns used. Skipping ion_occ.
  | Found hydrogenic basis function :  2 p   1.800
  | Found hydrogenic basis function :  3 d   6.800
  | Found hydrogenic basis function :  3 s   5.800
  | Found hydrogenic basis function :  4 f  10.800
  | Found hydrogenic basis function :  3 p   5.800
  | Found hydrogenic basis function :  1 s   0.800
  | Found hydrogenic basis function :  5 g  16.000
  | Found hydrogenic basis function :  3 d   4.900
  Species N                   : Missing cutoff potential type.
  Defaulting to exp(1/x)/(1-x)^2 type cutoff potential.
  Species N : No 'logarithmic' tag. Using default grid for free atom:
  | Default logarithmic grid data [bohr] : 0.1000E-03 0.1000E+03 0.1012E+01
  Species N : On-site basis accuracy parameter (for Gram-Schmidt orthonormalisation) not specified.
  Using default value basis_acc =  0.1000000E-03.
  Species N                   : Using default innermost maximum threshold i_radial=  2 for radial functions.
  Species N                   : Default cutoff onset for free atom density etc. : 0.40000000E+01 AA.
  Species N                   : Basic radial grid will be enhanced according to radial_multiplier =   2, to contain    71 grid points.
 
  Reading configuration options for species O                   .
  | Found nuclear charge :   8.0000
  | Found atomic mass :    15.9994000000000      amu
  | Found l_max for Hartree potential  :   6
  | Found cutoff potl. onset [A], width [A], scale factor :    4.00000    2.00000    1.00000
  | Threshold for basis-dependent cutoff potential is   0.100000E-03
  | Found data for basic radial integration grid :    36 points, outermost radius =    7.000 A
  | Found multiplier for basic radial grid :   2
  | Found angular grid specification: user-specified.
  | Specified grid contains     6 separate shells.
  | Check grid settings after all constraints further below.
  | Found free-atom valence shell :  2 s   2.000
  | Found free-atom valence shell :  2 p   4.000
  | No ionic wave fns used. Skipping ion_occ.
  | No ionic wave fns used. Skipping ion_occ.
  | Found hydrogenic basis function :  2 p   1.800
  | Found hydrogenic basis function :  3 d   7.600
  | Found hydrogenic basis function :  3 s   6.400
  | Found hydrogenic basis function :  4 f  11.600
  | Found hydrogenic basis function :  3 p   6.200
  | Found hydrogenic basis function :  3 d   5.600
  | Found hydrogenic basis function :  5 g  17.600
  | Found hydrogenic basis function :  1 s   0.750
  Species O                   : Missing cutoff potential type.
  Defaulting to exp(1/x)/(1-x)^2 type cutoff potential.
  Species O : No 'logarithmic' tag. Using default grid for free atom:
  | Default logarithmic grid data [bohr] : 0.1000E-03 0.1000E+03 0.1012E+01
  Species O : On-site basis accuracy parameter (for Gram-Schmidt orthonormalisation) not specified.
  Using default value basis_acc =  0.1000000E-03.
  Species O                   : Using default innermost maximum threshold i_radial=  2 for radial functions.
  Species O                   : Default cutoff onset for free atom density etc. : 0.40000000E+01 AA.
  Species O                   : Basic radial grid will be enhanced according to radial_multiplier =   2, to contain    73 grid points.
 
  Finished reading input file 'control.in'. Consistency checks are next.
 
  Target number of points in a grid batch is not set. Defaulting to  100
  Method for grid partitioning is not set. Defaulting to parallel hash+maxmin partitioning.
  Batch size limit is not set. Defaulting to    200
  By default, will store active basis functions for each batch.
  If in need of memory, prune_basis_once .false. can be used to disable this option.
  communication_type for Hartree potential was not specified.
  Defaulting to calc_hartree .
  Pulay mixer: Number of initial linear mixing iterations not set.
  Defaulting to    0 iterations.
  Work space size for distributed Hartree potential not set.
  Defaulting to   0.200000E+03 MB.
  Algorithm-dependent basis array size parameters:
  | n_max_pulay                         :       10
  Geometry relaxation not requested: no relaxation will be performed.
  Handling of forces: Unphysical translation and rotation will be removed from forces.
  No accuracy limit for integral partition fn. given. Defaulting to  0.1000E-14.
  No threshold value for u(r) in integrations given. Defaulting to  0.1000E-05.
  No accuracy for occupation numbers given. Defaulting to  0.1000E-07.
  No threshold value for occupation numbers given. Defaulting to  0.0000E+00.
  No accuracy for fermi level given. Defaulting to  0.1000E-19.
  Maximum # of iterations to find E_F not set. Defaulting to  200.
  Preferred method for the eigenvalue solver ('KS_method') not specified in 'control.in'.
  Calling blacs routine to test compilation state
  Since scalapack support is enabled, defaulting to 'elpa'.
  Preferred method for the MBD eigenvalue solver ('mbd_eigensolver') not specified in 'control.in'.
  Calling blacs routine to test compilation state
  Since scalapack support is enabled, defaulting to 'scaLAPACK'.
  Will not use alltoall communication since running on < 1024 CPUs.
  Threshold for basis singularities not set.
  Default threshold for basis singularities:  0.1000E-04
  partition_type (choice of integration weights) for integrals was not specified.
  | Using a version of the partition function of Stratmann and coworkers ('stratmann_smoother').
  | At each grid point, the set of atoms used to build the partition table is smoothly restricted to
  | only those atoms whose free-atom density would be non-zero at that grid point.
  Partitioning for Hartree potential was not defined. Using partition_type for integrals.
  | Adjusted default value of keyword multip_moments_threshold to:       0.10000000E-11
  | This value may affect high angular momentum components of the Hartree potential in periodic systems.
  No q(lm)/r^(l+1) cutoff set for long-range Hartree potential.
  | Using default value of  0.100000E-09 .
  | Verify using the multipole_threshold keyword.
  Defaulting to new monopole extrapolation.
  Density update method: automatic selection selected.
------------------------------------------------------------


------------------------------------------------------------
          Reading geometry description geometry.in.
------------------------------------------------------------
 * Warning! You did not set the 'relativistic' flag in input file 'control.in'.
 * Since you are not attempting to treat any elements beyond Ca(Z=20), FHI-aims
 * will default to 'relativistic none'.
 * You must ensure that this is really what you want!!
 * For example, DO NOT compute total-energy differences between results from
 * different settings of the 'relativistic' flag.
  Input structure read successfully.
  The structure contains       32 atoms,  and a total of        116.000 electrons.

  Input geometry:
  | No unit cell requested.
  | Atomic structure:
  |       Atom                x [A]            y [A]            z [A]
  |    1: Species C             -0.928014        -0.719753        -0.133737
  |    2: Species C             -0.642783         0.080582         1.125376
  |    3: Species O              0.404647         0.703846         1.288701
  |    4: Species H             -0.924274        -0.038397        -0.994156
  |    5: Species H             -1.884057        -1.256742        -0.104286
  |    6: Species H             -0.113001        -1.438906        -0.282027
  |    7: Species N             -1.648201         0.068564         2.054521
  |    8: Species C             -1.480460         0.684008         3.377398
  |    9: Species C             -2.452936        -0.058948         4.301895
  |   10: Species O             -2.089297        -0.882185         5.133508
  |   11: Species H             -2.432747        -0.573553         1.927200
  |   12: Species H             -0.470033         0.451533         3.740213
  |   13: Species C             -1.659677         2.207078         3.348400
  |   14: Species H             -1.564276         2.624696         4.359554
  |   15: Species H             -2.637738         2.501139         2.941901
  |   16: Species H             -0.883123         2.647828         2.712740
  |   17: Species N             -3.785345         0.210602         4.067042
  |   18: Species C             -4.774300        -0.805369         4.375062
  |   19: Species C             -4.539857        -2.033253         3.455810
  |   20: Species O             -4.087214        -1.905480         2.314929
  |   21: Species H             -3.990318         0.780618         3.250571
  |   22: Species H             -4.622261        -1.106855         5.421363
  |   23: Species C             -6.187934        -0.253528         4.180165
  |   24: Species H             -6.941156        -1.009841         4.433103
  |   25: Species H             -6.349739         0.041821         3.133690
  |   26: Species H             -6.346228         0.622946         4.820966
  |   27: Species N             -4.911891        -3.222792         3.988779
  |   28: Species C             -4.778066        -4.486998         3.287035
  |   29: Species H             -5.166346        -3.238927         4.969707
  |   30: Species H             -5.722028        -5.047307         3.310405
  |   31: Species H             -3.982961        -5.105014         3.727567
  |   32: Species H             -4.515579        -4.265532         2.247748
  |

  | The smallest distance between any two atoms is         1.01352216 AA.
  |
  | The first atom of this pair is atom number                     27 .
  | The second atom of this pair is atom number                    29 .

  Number of empty states per atom not set in control.in - providing a guess from actual geometry.
  | Total number of empty states used during s.c.f. cycle:       71
  If you use a very high smearing, use empty_states (per atom!) in control.in to increase this value.

  Structure-dependent array size parameters: 
  | Maximum number of distinct radial functions  :       40
  | Maximum number of basis functions            :      840
  | Number of Kohn-Sham states (occupied + empty):      129
------------------------------------------------------------

------------------------------------------------------------
          Preparing all fixed parts of the calculation.
------------------------------------------------------------
  Determining machine precision:
    2.225073858507201E-308
  Setting up grids for atomic and cluster calculations.

  Creating wave function, potential, and density for free atoms.

  Species: H

  List of occupied orbitals and eigenvalues:
    n    l              occ      energy [Ha]    energy [eV]
    1    0           1.0000        -0.238382        -6.4867


  Species: C

  List of occupied orbitals and eigenvalues:
    n    l              occ      energy [Ha]    energy [eV]
    1    0           2.0000       -10.041232      -273.2358
    2    0           2.0000        -0.504327       -13.7234
    2    1           2.0000        -0.193750        -5.2722


  Species: N

  List of occupied orbitals and eigenvalues:
    n    l              occ      energy [Ha]    energy [eV]
    1    0           2.0000       -14.129007      -384.4699
    2    0           2.0000        -0.681802       -18.5528
    2    1           3.0000        -0.260543        -7.0897


  Species: O

  List of occupied orbitals and eigenvalues:
    n    l              occ      energy [Ha]    energy [eV]
    1    0           2.0000       -18.898576      -514.2564
    2    0           2.0000        -0.878795       -23.9132
    2    1           4.0000        -0.332075        -9.0362

  Creating fixed part of basis set: Ionic, confined, hydrogenic.
 
  H                    hydrogenic:
 
  List of hydrogenic basis orbitals: 
    n    l      effective z      eigenvalue [eV]  inner max. [A]     outer max. [A]     outer radius [A]   
    2    0         2.100000       -14.9965           0.193243           1.317208           5.373006
    2    1         3.500000       -41.6672           0.602369           0.602369           4.056063
    1    0         0.850000        -9.8292           0.624871           0.624871           5.373006
    2    1         3.700000       -46.5653           0.573622           0.573622           3.910002
    2    0         1.200000        -4.5995           0.334980           2.228188           5.505995
    3    2         7.000000       -74.0753           0.680699           0.680699           3.769201
 
 
  C                    hydrogenic:
 
  List of hydrogenic basis orbitals: 
    n    l      effective z      eigenvalue [eV]  inner max. [A]     outer max. [A]     outer radius [A]   
    2    1         1.700000        -9.8152           1.245706           1.245706           5.401630
    3    2         6.000000       -54.4226           0.792453           0.792453           4.178599
    2    0         4.900000       -81.6681           0.082559           0.562749           3.353238
    4    3         9.800000       -81.6681           0.863254           0.863254           4.028125
    3    1         5.200000       -40.8774           0.305389           1.215618           4.898362
    3    0         4.300000       -27.9508           0.091041           1.610311           5.401630
    5    4        14.400000      -112.8510           0.917666           0.917666           3.883070
    3    2         6.200000       -58.1113           0.763917           0.763917           4.077671
 
 
  N                    hydrogenic:
 
  List of hydrogenic basis orbitals: 
    n    l      effective z      eigenvalue [eV]  inner max. [A]     outer max. [A]     outer radius [A]   
    2    1         1.800000       -11.0118           1.177451           1.177451           5.427479
    3    2         6.800000       -69.9029           0.704619           0.704619           3.854246
    3    0         5.800000       -50.8549           0.067388           1.191934           4.629968
    4    3        10.800000       -99.1854           0.786571           0.786571           3.761152
    3    1         5.800000       -50.8549           0.274880           1.094176           4.518138
    1    0         0.800000        -8.7059           0.662839           0.662839           5.361532
    5    4        16.000000      -139.3222           0.825990           0.825990           3.625711
    3    2         4.900000       -36.2967           0.968267           0.968267           4.862000
 
 
  O                    hydrogenic:
 
  List of hydrogenic basis orbitals: 
    n    l      effective z      eigenvalue [eV]  inner max. [A]     outer max. [A]     outer radius [A]   
    2    1         1.800000       -11.0118           1.178562           1.178562           5.432602
    3    2         7.600000       -87.3182           0.624125           0.624125           3.541477
    3    0         6.400000       -61.9209           0.061167           1.081902           4.306578
    4    3        11.600000      -114.4238           0.731631           0.731631           3.585037
    3    1         6.200000       -58.1113           0.255680           1.030270           4.306578
    3    2         5.600000       -47.4081           0.847233           0.847233           4.413171
    5    4        17.600000      -168.5799           0.749740           0.749740           3.372465
    1    0         0.750000        -7.6499           0.705284           0.705284           5.366593
 

  Adding cutoff potential to free-atom effective potential.
  Creating atomic-like basis functions for current effective potential.

  Species H                   :

  List of atomic basis orbitals and eigenvalues:
    n    l      energy [Ha]    energy [eV]    outer radius [A]
    1    0        -0.238382        -6.4867       5.373006


  Species C                   :

  List of atomic basis orbitals and eigenvalues:
    n    l      energy [Ha]    energy [eV]    outer radius [A]
    1    0       -10.041232      -273.2358       1.934409
    2    0        -0.504327       -13.7234       5.271162
    2    1        -0.193750        -5.2722       5.401630


  Species N                   :

  List of atomic basis orbitals and eigenvalues:
    n    l      energy [Ha]    energy [eV]    outer radius [A]
    1    0       -14.129007      -384.4699       1.637919
    2    0        -0.681802       -18.5528       5.168461
    2    1        -0.260543        -7.0897       5.361532


  Species O                   :

  List of atomic basis orbitals and eigenvalues:
    n    l      energy [Ha]    energy [eV]    outer radius [A]
    1    0       -18.898576      -514.2564       1.415765
    2    0        -0.878795       -23.9132       5.048385
    2    1        -0.332075        -9.0362       5.301386

  Assembling full basis from fixed parts.
  | Species H :   atomic orbital   1 s accepted.
  | Species H :    hydro orbital   2 s accepted.
  | Species H :    hydro orbital   1 s accepted.
  | Species H :    hydro orbital   2 s accepted.
  | Species H :    hydro orbital   2 p accepted.
  | Species H :    hydro orbital   2 p accepted.
  | Species H :    hydro orbital   3 d accepted.
  | Species C :   atomic orbital   1 s accepted.
  | Species C :    hydro orbital   2 s accepted.
  | Species C :   atomic orbital   2 s accepted.
  | Species C :    hydro orbital   3 s accepted.
  | Species C :    hydro orbital   3 p accepted.
  | Species C :   atomic orbital   2 p accepted.
  | Species C :    hydro orbital   2 p accepted.
  | Species C :    hydro orbital   3 d accepted.
  | Species C :    hydro orbital   3 d accepted.
  | Species C :    hydro orbital   4 f accepted.
  | Species C :    hydro orbital   5 g accepted.
  | Species N :   atomic orbital   1 s accepted.
  | Species N :    hydro orbital   3 s accepted.
  | Species N :   atomic orbital   2 s accepted.
  | Species N :    hydro orbital   1 s accepted.
  | Species N :    hydro orbital   3 p accepted.
  | Species N :   atomic orbital   2 p accepted.
  | Species N :    hydro orbital   2 p accepted.
  | Species N :    hydro orbital   3 d accepted.
  | Species N :    hydro orbital   3 d accepted.
  | Species N :    hydro orbital   4 f accepted.
  | Species N :    hydro orbital   5 g accepted.
  | Species O :   atomic orbital   1 s accepted.
  | Species O :    hydro orbital   3 s accepted.
  | Species O :   atomic orbital   2 s accepted.
  | Species O :    hydro orbital   1 s accepted.
  | Species O :    hydro orbital   3 p accepted.
  | Species O :   atomic orbital   2 p accepted.
  | Species O :    hydro orbital   2 p accepted.
  | Species O :    hydro orbital   3 d accepted.
  | Species O :    hydro orbital   3 d accepted.
  | Species O :    hydro orbital   4 f accepted.
  | Species O :    hydro orbital   5 g accepted.
 
  Basis size parameters after reduction:
  | Total number of radial functions:       40
  | Total number of basis functions :      840
 
  Testing on-site integration grid accuracy.
  |  Species  Function  <phi|h_atom|phi> (log., in eV)  <phi|h_atom|phi> (rad., in eV)
           1        1                 -6.4869821809                 -6.4870742227
           1        2                 13.5044133542                 13.5041049177
           1        3                 32.7854418792                 32.7779770519
           1        4                 33.7995553101                 33.7152624900 ***
           1        5                 28.8558651799                 28.8558652046
           1        6                 59.6361831893                 59.6362535845
           1        7                 60.2733718049                 60.2733715484
           2        8               -273.2358277112               -273.2358261765
           2        9                -10.7624923123                -10.7625144012
           2       10                 17.4634079027                 17.4634252127
           2       11                 53.0363661832                 53.0366180446
           2       12                 15.0981351967                 15.0981317714
           2       13                  3.8522181899                  3.8522770949
           2       14                 12.1181835661                 12.1206868578
           2       15                 29.4320778347                 29.4320780959
           2       16                 54.8753777694                 54.8752901936
           2       17                 59.3533975461                 59.3533974833
           2       18                 93.4537491195                 93.4537492066
           3       19               -384.4698526889               -384.4698499465
           3       20                 12.5691022037                 12.5690910168
           3       21                -15.7489097511                -15.7489165588
           3       22                 27.0978334940                 27.0985589490
           3       23                 18.5949116966                 18.5949125562
           3       24                  1.2212828291                  1.2212855301
           3       25                 13.4428926797                 13.4434051125
           3       26                 35.9380614500                 35.9380613666
           3       27                 39.9231532098                 39.9231654735
           3       28                 72.9957335806                 72.9957336833
           3       29                116.4231321147                116.4231321431
           4       30               -514.2564144315               -514.2564099626
           4       31                 15.1726678541                 15.1726530877
           4       32                -21.5447785304                -21.5447874973
           4       33                 14.4944558459                 14.4944698284
           4       34                 20.8882174564                 20.8882178906
           4       35                 -2.4850315908                 -2.4850322289
           4       36                 13.8600193195                 13.8599826966
           4       37                 45.8243383616                 45.8243383675
           4       38                 52.1840606465                 52.1840622440
           4       39                 85.4074185510                 85.4074185819
           4       40                142.0983717302                142.0983717339
 * Note: Onsite integrals marked "***" above are less accurate than
 * onsite_accuracy_threshold =    0.03000 eV. Usually, this is harmless.
 * When in doubt, tighten the "radial" and/or "radial_multiplier" flags to check.

  Preparing densities etc. for the partition functions (integrals / Hartree potential).

  Preparations completed.
  max(cpu_time)          :      0.240 s.
  Wall clock time (cpu1) :      0.238 s.
------------------------------------------------------------

------------------------------------------------------------
          Begin self-consistency loop: Initialization.

          Date     :  20170309, Time     :  181511.327
------------------------------------------------------------

  Initializing index lists of integration centers etc. from given atomic structure:
  | Number of centers in hartree potential         :        32
  | Number of centers in hartree multipole         :        32
  | Number of centers in electron density summation:        32
  | Number of centers in basis integrals           :        32
  | Number of centers in integrals                 :        32
  | Number of centers in hamiltonian               :        32
  Using modified Scalapack Eigenvalue solver (ELPA)
  * Using 32 tasks for Scalapack Eigenvalue solver.
  Detailed listing of tasks and assigned k-points:
  (for non-periodic systems, the "k-point" denotes an internal label only)
   Task     0 k-point     1 on eos399
   Task     1 k-point     1 on eos399
   Task     2 k-point     1 on eos399
   Task     3 k-point     1 on eos399
   Task     4 k-point     1 on eos399
   Task     5 k-point     1 on eos399
   Task     6 k-point     1 on eos399
   Task     7 k-point     1 on eos399
   Task     8 k-point     1 on eos399
   Task     9 k-point     1 on eos399
   Task    10 k-point     1 on eos399
   Task    11 k-point     1 on eos399
   Task    12 k-point     1 on eos399
   Task    13 k-point     1 on eos399
   Task    14 k-point     1 on eos399
   Task    15 k-point     1 on eos399
   Task    16 k-point     1 on eos399
   Task    17 k-point     1 on eos399
   Task    18 k-point     1 on eos399
   Task    19 k-point     1 on eos399
   Task    20 k-point     1 on eos399
   Task    21 k-point     1 on eos399
   Task    22 k-point     1 on eos399
   Task    23 k-point     1 on eos399
   Task    24 k-point     1 on eos399
   Task    25 k-point     1 on eos399
   Task    26 k-point     1 on eos399
   Task    27 k-point     1 on eos399
   Task    28 k-point     1 on eos399
   Task    29 k-point     1 on eos399
   Task    30 k-point     1 on eos399
   Task    31 k-point     1 on eos399
  Tasks:    32 split into      8 X      4 BLACS grid
  Calculating blocksize based on n_basis =          840 max_nprow =            8 max_npcol =            4
  Scalapack blocksize set to:           16
  Required Scalapack workspace - INTEGER:            1 REAL:             1
  Partitioning the integration grid into batches with parallel hashing+maxmin method.
  | Number of batches:     4865
  | Maximal batch size:     200
  | Minimal batch size:      20
  | Average batch size:     108.474
  | Standard deviation of batch sizes:      29.541

  Integration load balanced across    32 MPI tasks.
  Work distribution over tasks is as follows:
  Task     0 has      16494 integration points.
  Task     1 has      16566 integration points.
  Task     2 has      16559 integration points.
  Task     3 has      16408 integration points.
  Task     4 has      16512 integration points.
  Task     5 has      16494 integration points.
  Task     6 has      16477 integration points.
  Task     7 has      16564 integration points.
  Task     8 has      16479 integration points.
  Task     9 has      16497 integration points.
  Task    10 has      16416 integration points.
  Task    11 has      16518 integration points.
  Task    12 has      16485 integration points.
  Task    13 has      16512 integration points.
  Task    14 has      16563 integration points.
  Task    15 has      16534 integration points.
  Task    16 has      16522 integration points.
  Task    17 has      16418 integration points.
  Task    18 has      16492 integration points.
  Task    19 has      16488 integration points.
  Task    20 has      16519 integration points.
  Task    21 has      16501 integration points.
  Task    22 has      16474 integration points.
  Task    23 has      16491 integration points.
  Task    24 has      16412 integration points.
  Task    25 has      16502 integration points.
  Task    26 has      16483 integration points.
  Task    27 has      16542 integration points.
  Task    28 has      16414 integration points.
  Task    29 has      16487 integration points.
  Task    30 has      16495 integration points.
  Task    31 has      16410 integration points.
  Initializing partition tables, free-atom densities, potentials, etc. across the integration grid (initialize_grid_storage).
  | initialize_grid_storage: Actual outermost partition radius vs. multipole_radius_free
  | (-- VB: in principle, multipole_radius_free should be larger, hence this output)
  | Species        1: Confinement radius =              6.000000000000000 AA, multipole_radius_free =              6.071692442739658 AA.
  | Species        1: outer_partition_radius set to              6.071692442739658 AA .
  | Species        2: Confinement radius =              6.000000000000000 AA, multipole_radius_free =              6.029870734432609 AA.
  | Species        2: outer_partition_radius set to              6.029870734432609 AA .
  | Species        3: Confinement radius =              6.000000000000000 AA, multipole_radius_free =              6.058726835495003 AA.
  | Species        3: outer_partition_radius set to              6.058726835495003 AA .
  | Species        4: Confinement radius =              6.000000000000000 AA, multipole_radius_free =              6.064445521808699 AA.
  | Species        4: outer_partition_radius set to              6.064445521808699 AA .
  | Original list of interatomic distances with          32 x         32 entries is created.
  | Net number of integration points:   527728
  | of which are non-zero points    :   416023
  Obtaining max. number of non-zero basis functions in each batch (get_n_compute_maxes).
  | Maximal number of non-zero basis functions:      770 in task     0
  | Maximal number of non-zero basis functions:      758 in task     1
  | Maximal number of non-zero basis functions:      759 in task     2
  | Maximal number of non-zero basis functions:      780 in task     3
  | Maximal number of non-zero basis functions:      763 in task     4
  | Maximal number of non-zero basis functions:      772 in task     5
  | Maximal number of non-zero basis functions:      776 in task     6
  | Maximal number of non-zero basis functions:      732 in task     7
  | Maximal number of non-zero basis functions:      764 in task     8
  | Maximal number of non-zero basis functions:      775 in task     9
  | Maximal number of non-zero basis functions:      737 in task    10
  | Maximal number of non-zero basis functions:      752 in task    11
  | Maximal number of non-zero basis functions:      762 in task    12
  | Maximal number of non-zero basis functions:      766 in task    13
  | Maximal number of non-zero basis functions:      751 in task    14
  | Maximal number of non-zero basis functions:      772 in task    15
  | Maximal number of non-zero basis functions:      756 in task    16
  | Maximal number of non-zero basis functions:      772 in task    17
  | Maximal number of non-zero basis functions:      752 in task    18
  | Maximal number of non-zero basis functions:      768 in task    19
  | Maximal number of non-zero basis functions:      767 in task    20
  | Maximal number of non-zero basis functions:      765 in task    21
  | Maximal number of non-zero basis functions:      770 in task    22
  | Maximal number of non-zero basis functions:      763 in task    23
  | Maximal number of non-zero basis functions:      769 in task    24
  | Maximal number of non-zero basis functions:      762 in task    25
  | Maximal number of non-zero basis functions:      756 in task    26
  | Maximal number of non-zero basis functions:      772 in task    27
  | Maximal number of non-zero basis functions:      747 in task    28
  | Maximal number of non-zero basis functions:      763 in task    29
  | Maximal number of non-zero basis functions:      768 in task    30
  | Maximal number of non-zero basis functions:      761 in task    31
  Selecting the method for density update.
  Loop over occupied states selected for charge density update.
  Integrating Hamiltonian matrix: batch-based integration.
  Time summed over all CPUs for integration: real work       20.142 s, elapsed       21.049 s
  Integrating overlap matrix.
  Time summed over all CPUs for integration: real work       12.010 s, elapsed       12.446 s
  Deallocating overlap matrix.

  Updating Kohn-Sham eigenvalues, eigenvectors, occupation numbers, and Fermi level.
  Solving generalized eigenproblem
  Solving real symmetric generalised eigenvalue problem by standard ScaLAPACK.
  Transforming overlap matrix with ScaLAPACK and checking for singularities.
  : Overlap matrix is nonsingular, using Cholesky decomposition
  | Lowest eigenvalue:  0.829323E-04
  Factoring overlap matrix with Cholesky decomposition
  Using Cholesky factor for transformation
  Using 1-stage real ELPA solver
  Determining occupation numbers for Kohn-Sham eigenstates.
  | Chemical potential (Fermi level) in eV                 : -.94904554E+01
  | Error in electron count due to remaining E_F inaccuracy: 0.00000000E+00
  | Maximum occupation number of highest empty state:  0.00E+00

  Writing Kohn-Sham eigenvalues.

  State    Occupation    Eigenvalue [Ha]    Eigenvalue [eV]
      1       2.00000         -18.974973         -516.33529
      2       2.00000         -18.973808         -516.30358
      3       2.00000         -18.973664         -516.29968
      4       2.00000         -14.257340         -387.96195
      5       2.00000         -14.253644         -387.86138
      6       2.00000         -14.252336         -387.82579
      7       2.00000         -10.170911         -276.76457
      8       2.00000         -10.170734         -276.75975
      9       2.00000         -10.170445         -276.75189
     10       2.00000         -10.166867         -276.65453
     11       2.00000         -10.149183         -276.17331
     12       2.00000         -10.148748         -276.16149
     13       2.00000         -10.136023         -275.81522
     14       2.00000         -10.134616         -275.77694
     15       2.00000         -10.134294         -275.76817
     16       2.00000          -1.135889          -30.90911
     17       2.00000          -1.129967          -30.74797
     18       2.00000          -1.127301          -30.67541
     19       2.00000          -1.022095          -27.81262
     20       2.00000          -1.015949          -27.64537
     21       2.00000          -1.007072          -27.40382
     22       2.00000          -0.892254          -24.27946
     23       2.00000          -0.872465          -23.74098
     24       2.00000          -0.840778          -22.87874
     25       2.00000          -0.821211          -22.34629
     26       2.00000          -0.777061          -21.14491
     27       2.00000          -0.747867          -20.35049
     28       2.00000          -0.695717          -18.93142
     29       2.00000          -0.685723          -18.65947
     30       2.00000          -0.681925          -18.55611
     31       2.00000          -0.648475          -17.64590
     32       2.00000          -0.632928          -17.22286
     33       2.00000          -0.605457          -16.47534
     34       2.00000          -0.601242          -16.36062
     35       2.00000          -0.591772          -16.10294
     36       2.00000          -0.580974          -15.80912
     37       2.00000          -0.566220          -15.40763
     38       2.00000          -0.564651          -15.36494
     39       2.00000          -0.556872          -15.15325
     40       2.00000          -0.552458          -15.03313
     41       2.00000          -0.548627          -14.92891
     42       2.00000          -0.542081          -14.75078
     43       2.00000          -0.534984          -14.55766
     44       2.00000          -0.530432          -14.43378
     45       2.00000          -0.521909          -14.20187
     46       2.00000          -0.512946          -13.95797
     47       2.00000          -0.511047          -13.90629
     48       2.00000          -0.502040          -13.66120
     49       2.00000          -0.497561          -13.53933
     50       2.00000          -0.489741          -13.32652
     51       2.00000          -0.478410          -13.01819
     52       2.00000          -0.472751          -12.86420
     53       2.00000          -0.411048          -11.18519
     54       2.00000          -0.407116          -11.07820
     55       2.00000          -0.399257          -10.86433
     56       2.00000          -0.390290          -10.62033
     57       2.00000          -0.387491          -10.54417
     58       2.00000          -0.381620          -10.38440
     59       0.00000          -0.177320           -4.82513
     60       0.00000          -0.159333           -4.33567
     61       0.00000          -0.150560           -4.09696
     62       0.00000          -0.079147           -2.15370
     63       0.00000          -0.067320           -1.83186
     64       0.00000          -0.057172           -1.55572
     65       0.00000          -0.044925           -1.22247
     66       0.00000          -0.043573           -1.18567
     67       0.00000          -0.038331           -1.04305
     68       0.00000          -0.031763           -0.86432
     69       0.00000          -0.029428           -0.80076
     70       0.00000          -0.025849           -0.70338
     71       0.00000          -0.021605           -0.58791
     72       0.00000          -0.015629           -0.42529
     73       0.00000          -0.009349           -0.25440
     74       0.00000          -0.006957           -0.18931
     75       0.00000          -0.004537           -0.12346
     76       0.00000          -0.000754           -0.02052
     77       0.00000           0.003653            0.09941
     78       0.00000           0.005654            0.15387
     79       0.00000           0.014018            0.38144
     80       0.00000           0.016813            0.45751
     81       0.00000           0.017658            0.48050
     82       0.00000           0.025003            0.68036
     83       0.00000           0.034130            0.92873
     84       0.00000           0.034540            0.93989
     85       0.00000           0.041707            1.13490
     86       0.00000           0.046794            1.27334
     87       0.00000           0.050297            1.36866
     88       0.00000           0.054685            1.48806
     89       0.00000           0.062172            1.69178
     90       0.00000           0.064538            1.75616
     91       0.00000           0.070314            1.91333
     92       0.00000           0.076893            2.09235
     93       0.00000           0.082975            2.25786
     94       0.00000           0.090456            2.46142
     95       0.00000           0.095553            2.60013
     96       0.00000           0.096273            2.61972
     97       0.00000           0.103017            2.80323
     98       0.00000           0.110036            2.99424
     99       0.00000           0.116777            3.17766
    100       0.00000           0.120230            3.27163
    101       0.00000           0.126939            3.45420
    102       0.00000           0.132575            3.60756
    103       0.00000           0.137767            3.74884
    104       0.00000           0.147526            4.01438
    105       0.00000           0.148902            4.05182
    106       0.00000           0.150744            4.10196
    107       0.00000           0.160971            4.38024
    108       0.00000           0.165130            4.49341
    109       0.00000           0.168640            4.58893
    110       0.00000           0.175143            4.76587
    111       0.00000           0.180735            4.91804
    112       0.00000           0.181573            4.94085
    113       0.00000           0.183045            4.98092
    114       0.00000           0.186427            5.07293
    115       0.00000           0.189614            5.15966
    116       0.00000           0.193713            5.27120
    117       0.00000           0.197971            5.38706
    118       0.00000           0.205159            5.58266
    119       0.00000           0.206619            5.62239
    120       0.00000           0.209920            5.71221
    121       0.00000           0.215945            5.87617
    122       0.00000           0.222058            6.04250
    123       0.00000           0.225207            6.12821
    124       0.00000           0.234707            6.38670
    125       0.00000           0.239813            6.52565
    126       0.00000           0.250253            6.80973
    127       0.00000           0.254198            6.91709
    128       0.00000           0.261396            7.11294
    129       0.00000           0.265232            7.21733

  Highest occupied state (VBM) at    -10.38440379 eV
  | Occupation number:      2.00000000

  Lowest unoccupied state (CBM) at    -4.82513277 eV
  | Occupation number:      0.00000000

  Overall HOMO-LUMO gap:      5.55927102 eV.
  Calculating total energy contributions from superposition of free atom densities.

  Total energy components:
  | Sum of eigenvalues            :        -437.88251880 Ha      -11915.38958501 eV
  | XC energy correction          :         -98.81474898 Ha       -2688.88612888 eV
  | XC potential correction       :         127.01327115 Ha        3456.20695786 eV
  | Free-atom electrostatic energy:        -333.61071717 Ha       -9078.00949820 eV
  | Hartree energy correction     :           0.00000000 Ha           0.00000000 eV
  | MBD@rsSCS energy              :           0.00000000 Ha           0.00000000 eV
  | Entropy correction            :          -0.00000000 Ha          -0.00000000 eV
  | ---------------------------
  | Total energy                  :        -743.29471381 Ha      -20226.07825423 eV
  | Total energy, T -> 0          :        -743.29471381 Ha      -20226.07825423 eV  <-- do not rely on this value for anything but (periodic) metals
  | Electronic free energy        :        -743.29471381 Ha      -20226.07825423 eV

  Derived energy quantities:
  | Kinetic energy                :         735.14822434 Ha       20004.40099698 eV
  | Electrostatic energy          :       -1379.62818916 Ha      -37541.59312233 eV
  | Energy correction for multipole
  | error in Hartree potential    :           0.00000000 Ha           0.00000000 eV
  | Sum of eigenvalues per atom                           :        -372.35592453 eV
  | Total energy (T->0) per atom                          :        -632.06494544 eV  <-- do not rely on this value for anything but (periodic) metals
  | Electronic free energy per atom                       :        -632.06494544 eV
  Initialize hartree_potential_storage
  Max. number of atoms included in rho_multipole:           32

  End scf initialization - timings             :  max(cpu_time)    wall_clock(cpu1)
  | Time for scf. initialization               :        1.820 s           1.819 s
  | Boundary condition initialization          :        0.000 s           0.000 s
  | Integration                                :        1.068 s           1.068 s
  | Solution of K.-S. eqns.                    :        0.076 s           0.074 s
  | Grid partitioning                          :        0.344 s           0.341 s
  | Preloading free-atom quantities on grid    :        0.028 s           0.028 s
  | Free-atom superposition energy             :        0.040 s           0.038 s
  | Total energy evaluation                    :        0.000 s           0.000 s
------------------------------------------------------------

------------------------------------------------------------
          Begin self-consistency iteration #    1

  Date     :  20170309, Time     :  181513.148
------------------------------------------------------------
  Evaluating new KS density.
  Integration grid: deviation in total charge (<rho> - N_e) =   5.684342E-14
  Pulay mixing of updated and previous charge densities.

  Evaluating partitioned Hartree potential by multipole expansion.
  | Analytical far-field extrapolation by fixed multipoles:
  | Hartree multipole sum: apparent total charge =  -0.180555E-05
  Summing up the Hartree potential.
  Time summed over all CPUs for potential: real work        9.516 s, elapsed        9.715 s
  | RMS charge density error from multipole expansion :   0.106573E-01

  Integrating Hamiltonian matrix: batch-based integration.
  Time summed over all CPUs for integration: real work       19.893 s, elapsed       20.881 s

  Updating Kohn-Sham eigenvalues, eigenvectors, occupation numbers, and Fermi level.
  Solving generalized eigenproblem
  Solving real symmetric generalised eigenvalue problem by standard ScaLAPACK.
  Using Cholesky factor for transformation
  Using 2-stage real ELPA solver
  K-Point:    1, Trafo times: 1-stage=     0.021 s, 2-stage=     0.019 s ==> Using 2-stage solver
  Determining occupation numbers for Kohn-Sham eigenstates.
  | Chemical potential (Fermi level) in eV                 : -.47395776E+01
  | Error in electron count due to remaining E_F inaccuracy: 0.00000000E+00
  | Maximum occupation number of highest empty state:  0.00E+00

  Writing Kohn-Sham eigenvalues.

  State    Occupation    Eigenvalue [Ha]    Eigenvalue [eV]
      1       2.00000         -18.635993         -507.11118
      2       2.00000         -18.630456         -506.96051
      3       2.00000         -18.596251         -506.02972
      4       2.00000         -13.995183         -380.82832
      5       2.00000         -13.988786         -380.65424
      6       2.00000         -13.977020         -380.33406
      7       2.00000         -10.060213         -273.75234
      8       2.00000         -10.056450         -273.64992
      9       2.00000         -10.033569         -273.02731
     10       2.00000          -9.965915         -271.18635
     11       2.00000          -9.949858         -270.74941
     12       2.00000          -9.887393         -269.04966
     13       2.00000          -9.850253         -268.03903
     14       2.00000          -9.835746         -267.64427
     15       2.00000          -9.828341         -267.44277
     16       2.00000          -0.976155          -26.56252
     17       2.00000          -0.962935          -26.20279
     18       2.00000          -0.939830          -25.57408
     19       2.00000          -0.872830          -23.75093
     20       2.00000          -0.868910          -23.64423
     21       2.00000          -0.848826          -23.09772
     22       2.00000          -0.747380          -20.33725
     23       2.00000          -0.718425          -19.54934
     24       2.00000          -0.678290          -18.45722
     25       2.00000          -0.673921          -18.33833
     26       2.00000          -0.630236          -17.14960
     27       2.00000          -0.609640          -16.58916
     28       2.00000          -0.567286          -15.43663
     29       2.00000          -0.558530          -15.19839
     30       2.00000          -0.544395          -14.81375
     31       2.00000          -0.519231          -14.12901
     32       2.00000          -0.494548          -13.45733
     33       2.00000          -0.470951          -12.81522
     34       2.00000          -0.450427          -12.25674
     35       2.00000          -0.439939          -11.97136
     36       2.00000          -0.430930          -11.72619
     37       2.00000          -0.423147          -11.51440
     38       2.00000          -0.419692          -11.42039
     39       2.00000          -0.408915          -11.12715
     40       2.00000          -0.405723          -11.04029
     41       2.00000          -0.397542          -10.81767
     42       2.00000          -0.386728          -10.52339
     43       2.00000          -0.382365          -10.40467
     44       2.00000          -0.379494          -10.32655
     45       2.00000          -0.374437          -10.18895
     46       2.00000          -0.369836          -10.06374
     47       2.00000          -0.359174           -9.77363
     48       2.00000          -0.356310           -9.69568
     49       2.00000          -0.345634           -9.40518
     50       2.00000          -0.344566           -9.37612
     51       2.00000          -0.336945           -9.16874
     52       2.00000          -0.316354           -8.60843
     53       2.00000          -0.248623           -6.76538
     54       2.00000          -0.242452           -6.59746
     55       2.00000          -0.229582           -6.24724
     56       2.00000          -0.227761           -6.19769
     57       2.00000          -0.210711           -5.73375
     58       2.00000          -0.193742           -5.27199
     59       0.00000          -0.061040           -1.66097
     60       0.00000          -0.049494           -1.34681
     61       0.00000          -0.036547           -0.99448
     62       0.00000          -0.029356           -0.79881
     63       0.00000          -0.018041           -0.49093
     64       0.00000          -0.012069           -0.32842
     65       0.00000          -0.001780           -0.04844
     66       0.00000           0.003477            0.09462
     67       0.00000           0.010297            0.28020
     68       0.00000           0.016647            0.45300
     69       0.00000           0.026525            0.72179
     70       0.00000           0.029317            0.79775
     71       0.00000           0.034862            0.94863
     72       0.00000           0.045076            1.22659
     73       0.00000           0.045695            1.24341
     74       0.00000           0.050707            1.37981
     75       0.00000           0.052776            1.43611
     76       0.00000           0.058031            1.57911
     77       0.00000           0.064755            1.76207
     78       0.00000           0.073930            2.01172
     79       0.00000           0.074830            2.03621
     80       0.00000           0.082091            2.23380
     81       0.00000           0.087557            2.38255
     82       0.00000           0.095036            2.58605
     83       0.00000           0.097021            2.64008
     84       0.00000           0.101014            2.74873
     85       0.00000           0.107255            2.91855
     86       0.00000           0.111780            3.04168
     87       0.00000           0.118397            3.22173
     88       0.00000           0.125642            3.41889
     89       0.00000           0.128196            3.48839
     90       0.00000           0.130811            3.55956
     91       0.00000           0.138368            3.76517
     92       0.00000           0.140886            3.83371
     93       0.00000           0.151797            4.13060
     94       0.00000           0.158131            4.30297
     95       0.00000           0.163382            4.44586
     96       0.00000           0.168730            4.59138
     97       0.00000           0.177423            4.82793
     98       0.00000           0.180471            4.91088
     99       0.00000           0.183987            5.00655
    100       0.00000           0.192253            5.23148
    101       0.00000           0.200984            5.46906
    102       0.00000           0.202589            5.51272
    103       0.00000           0.205797            5.60002
    104       0.00000           0.213881            5.81999
    105       0.00000           0.217832            5.92750
    106       0.00000           0.218085            5.93440
    107       0.00000           0.219858            5.98265
    108       0.00000           0.229206            6.23702
    109       0.00000           0.232117            6.31622
    110       0.00000           0.235601            6.41103
    111       0.00000           0.238850            6.49945
    112       0.00000           0.240114            6.53385
    113       0.00000           0.247439            6.73315
    114       0.00000           0.248328            6.75735
    115       0.00000           0.251952            6.85597
    116       0.00000           0.256868            6.98972
    117       0.00000           0.264614            7.20052
    118       0.00000           0.267076            7.26752
    119       0.00000           0.271296            7.38233
    120       0.00000           0.272025            7.40217
    121       0.00000           0.272607            7.41802
    122       0.00000           0.285552            7.77028
    123       0.00000           0.298141            8.11284
    124       0.00000           0.312919            8.51496
    125       0.00000           0.318452            8.66553
    126       0.00000           0.331414            9.01823
    127       0.00000           0.333715            9.08086
    128       0.00000           0.337281            9.17788
    129       0.00000           0.347105            9.44521

  Highest occupied state (VBM) at     -5.27199250 eV
  | Occupation number:      2.00000000

  Lowest unoccupied state (CBM) at    -1.66097286 eV
  | Occupation number:      0.00000000

  Overall HOMO-LUMO gap:      3.61101964 eV.

  Total energy components:
  | Sum of eigenvalues            :        -417.30955281 Ha      -11355.57069709 eV
  | XC energy correction          :        -100.75160665 Ha       -2741.59070748 eV
  | XC potential correction       :         129.52572259 Ha        3524.57424003 eV
  | Free-atom electrostatic energy:        -333.61071717 Ha       -9078.00949820 eV
  | Hartree energy correction     :         -20.57713408 Ha        -559.93230744 eV
  | MBD@rsSCS energy              :           0.00000000 Ha           0.00000000 eV
  | Entropy correction            :          -0.00000000 Ha          -0.00000000 eV
  | ---------------------------
  | Total energy                  :        -742.72328812 Ha      -20210.52897017 eV
  | Total energy, T -> 0          :        -742.72328812 Ha      -20210.52897017 eV  <-- do not rely on this value for anything but (periodic) metals
  | Electronic free energy        :        -742.72328812 Ha      -20210.52897017 eV

  Derived energy quantities:
  | Kinetic energy                :         744.03991312 Ha       20246.35615921 eV
  | Electrostatic energy          :       -1386.01159459 Ha      -37715.29442191 eV
  | Energy correction for multipole
  | error in Hartree potential    :          -0.04059093 Ha          -1.10453531 eV
  | Sum of eigenvalues per atom                           :        -354.86158428 eV
  | Total energy (T->0) per atom                          :        -631.57903032 eV  <-- do not rely on this value for anything but (periodic) metals
  | Electronic free energy per atom                       :        -631.57903032 eV

  Self-consistency convergence accuracy:
  | Change of charge density      :  0.9015E+00
  | Change of sum of eigenvalues  :  0.5598E+03 eV
  | Change of total energy        :  0.1555E+02 eV

  End self-consistency iteration #     1       :  max(cpu_time)    wall_clock(cpu1)
  | Time for this iteration                    :        1.480 s           1.479 s
[...]
   Multipole                     : -0.207625E+00 -0.610328E-01  0.571346E+00
   Pulay + GGA                   : -0.429825E+01 -0.655980E+00  0.120068E+02
   MBD@rsSCS                     :  0.913955E-02  0.154633E-01  0.155531E-01
   ----------------------------------------------------------------
   Total forces(  20)            :  0.429907E-02  0.195961E-01  0.222342E-01
  atom #   21
   Hellmann-Feynman              :  0.328622E-01 -0.576763E-01  0.144242E-01
   Ionic forces                  :  0.000000E+00  0.000000E+00  0.000000E+00
   Multipole                     : -0.187824E-01  0.173337E-02  0.161322E-01
   Pulay + GGA                   : -0.112973E-01  0.426695E-01 -0.387511E-01
   MBD@rsSCS                     :  0.225003E-02 -0.419593E-02 -0.383763E-02
   ----------------------------------------------------------------
   Total forces(  21)            :  0.503261E-02 -0.174694E-01 -0.120324E-01
  atom #   22
   Hellmann-Feynman              :  0.363308E-01  0.566812E-01 -0.452280E-01
   Ionic forces                  :  0.000000E+00  0.000000E+00  0.000000E+00
   Multipole                     : -0.149261E-01 -0.127809E-01 -0.974808E-02
   Pulay + GGA                   : -0.244082E-01 -0.442938E-01  0.566778E-01
   MBD@rsSCS                     :  0.164611E-02 -0.269588E-02 -0.400196E-02
   ----------------------------------------------------------------
   Total forces(  22)            : -0.135732E-02 -0.308940E-02 -0.230025E-02
  atom #   23
   Hellmann-Feynman              : -0.912642E+00  0.510970E+00 -0.744364E-01
   Ionic forces                  :  0.000000E+00  0.000000E+00  0.000000E+00
   Multipole                     :  0.249681E+00 -0.121007E+00  0.106025E+00
   Pulay + GGA                   :  0.656414E+00 -0.389515E+00 -0.342622E-01
   MBD@rsSCS                     :  0.132018E-01 -0.568438E-02 -0.375501E-02
   ----------------------------------------------------------------
   Total forces(  23)            :  0.665467E-02 -0.523686E-02 -0.642870E-02
  atom #   24
   Hellmann-Feynman              :  0.472193E-01  0.162726E-01 -0.928312E-02
   Ionic forces                  :  0.000000E+00  0.000000E+00  0.000000E+00
   Multipole                     : -0.844080E-02  0.288688E-01 -0.103391E-01
   Pulay + GGA                   : -0.378755E-01 -0.451587E-01  0.208920E-01
   MBD@rsSCS                     :  0.101847E-01 -0.765713E-02 -0.471517E-03
   ----------------------------------------------------------------
   Total forces(  24)            :  0.110876E-01 -0.767439E-02  0.798282E-03
  atom #   25
   Hellmann-Feynman              :  0.210735E-01 -0.315147E-01  0.293555E-01
   Ionic forces                  :  0.000000E+00  0.000000E+00  0.000000E+00
   Multipole                     : -0.927476E-02  0.467242E-02  0.253386E-01
   Pulay + GGA                   : -0.431563E-02  0.292498E-01 -0.531470E-01
   MBD@rsSCS                     :  0.130384E-01 -0.362540E-02 -0.135568E-02
   ----------------------------------------------------------------
   Total forces(  25)            :  0.205216E-01 -0.121795E-02  0.191491E-03
  atom #   26
   Hellmann-Feynman              :  0.430731E-01 -0.366464E-01 -0.708075E-02
   Ionic forces                  :  0.000000E+00  0.000000E+00  0.000000E+00
   Multipole                     : -0.217190E-01 -0.107118E-01 -0.238329E-01
   Pulay + GGA                   : -0.186895E-01  0.471587E-01  0.337647E-01
   MBD@rsSCS                     :  0.108110E-01 -0.285180E-02 -0.139829E-02
   ----------------------------------------------------------------
   Total forces(  26)            :  0.134756E-01 -0.305123E-02  0.145276E-02
  atom #   27
   Hellmann-Feynman              : -0.582298E+00  0.121721E+01  0.731651E-01
   Ionic forces                  :  0.000000E+00  0.000000E+00  0.000000E+00
   Multipole                     :  0.326026E-01  0.171726E+00 -0.180157E+00
   Pulay + GGA                   :  0.540814E+00 -0.140109E+01  0.111432E+00
   MBD@rsSCS                     :  0.461301E-02  0.302956E-01  0.184771E-02
   ----------------------------------------------------------------
   Total forces(  27)            : -0.426808E-02  0.181356E-01  0.628751E-02
  atom #   28
   Hellmann-Feynman              :  0.293682E+00 -0.196812E+01 -0.140631E+01
   Ionic forces                  :  0.000000E+00  0.000000E+00  0.000000E+00
   Multipole                     : -0.286150E-01  0.156941E+00  0.920196E-01
   Pulay + GGA                   : -0.263551E+00  0.180127E+01  0.130568E+01
   MBD@rsSCS                     :  0.166502E-02  0.909973E-02 -0.258193E-02
   ----------------------------------------------------------------
   Total forces(  28)            :  0.318090E-02 -0.801998E-03 -0.111962E-01
  atom #   29
   Hellmann-Feynman              :  0.300529E-01  0.105762E-01 -0.314116E-01
   Ionic forces                  :  0.000000E+00  0.000000E+00  0.000000E+00
   Multipole                     : -0.373805E-02 -0.296851E-01 -0.303759E-01
   Pulay + GGA                   : -0.248738E-01  0.879050E-02  0.634801E-01
   MBD@rsSCS                     :  0.418995E-03  0.635535E-02 -0.307834E-02
   ----------------------------------------------------------------
   Total forces(  29)            :  0.186004E-02 -0.396308E-02 -0.138572E-02
  atom #   30
   Hellmann-Feynman              :  0.210766E-01  0.451412E-01  0.870997E-02
   Ionic forces                  :  0.000000E+00  0.000000E+00  0.000000E+00
   Multipole                     :  0.320878E-01 -0.675207E-02 -0.911433E-02
   Pulay + GGA                   : -0.534268E-01 -0.408780E-01  0.334740E-02
   MBD@rsSCS                     :  0.143465E-02  0.645331E-02  0.195768E-02
   ----------------------------------------------------------------
   Total forces(  30)            :  0.117228E-02  0.396447E-02  0.490073E-02
  atom #   31
   Hellmann-Feynman              : -0.113499E-01  0.546019E-01 -0.994076E-03
   Ionic forces                  :  0.000000E+00  0.000000E+00  0.000000E+00
   Multipole                     : -0.298876E-01 -0.542502E-02 -0.214708E-01
   Pulay + GGA                   :  0.390739E-01 -0.506997E-01  0.242004E-01
   MBD@rsSCS                     : -0.814468E-03  0.712090E-02  0.130695E-02
   ----------------------------------------------------------------
   Total forces(  31)            : -0.297810E-02  0.559812E-02  0.304251E-02
  atom #   32
   Hellmann-Feynman              : -0.274650E-02  0.558994E-01  0.414430E-01
   Ionic forces                  :  0.000000E+00  0.000000E+00  0.000000E+00
   Multipole                     : -0.543336E-02 -0.449130E-01  0.177127E-01
   Pulay + GGA                   :  0.838986E-02 -0.892684E-02 -0.615375E-01
   MBD@rsSCS                     :  0.104360E-03  0.590452E-02  0.385293E-02
   ----------------------------------------------------------------
   Total forces(  32)            :  0.314359E-03  0.796412E-02  0.147111E-02

  Removing unitary transformations (pure translations, rotations) from forces on atoms.
  Atomic forces before filtering:
  | Net force on center of mass :   0.262049E-04 -0.286617E-03 -0.158515E-03 eV/A
  | Net torque on center of mass:   0.100253E-02  0.287308E-03 -0.158672E-02 eV
  Atomic forces after filtering:
  | Net force on center of mass :   0.388086E-16  0.557519E-17  0.871124E-17 eV/A
  | Net torque on center of mass:   0.272899E-16  0.317153E-16 -0.488638E-16 eV

  Energy and forces in a compact form:
  | Total energy uncorrected      :         -0.202092072308122E+05 eV
  | Total energy corrected        :         -0.202092072308122E+05 eV  <-- do not rely on this value for anything but (periodic) metals
  | Electronic free energy        :         -0.202092072308122E+05 eV
  Total atomic forces (unitary forces cleaned) [eV/Ang]:
  |   1         -0.232161808172804E-02         -0.341249293909249E-02         -0.494845339960594E-02
  |   2          0.146946723422568E-02          0.223835952363258E-01          0.264010422845080E-01
  |   3         -0.230864741544082E-01         -0.262652705413248E-02          0.664251054031486E-02
  |   4          0.605356653616469E-02          0.204461975209306E-02          0.645991073673311E-02
  |   5         -0.974085420868126E-03          0.308925175210225E-02          0.591206427238952E-02
  |   6          0.301841360751879E-02          0.600503309393418E-02          0.325656366454235E-02
  |   7         -0.219382005915965E-01          0.551518584387047E-02          0.931084664244904E-02
  |   8          0.607908031129493E-02          0.491126671181384E-02         -0.276035453727930E-02
  |   9         -0.231939659648513E-01         -0.354070784725932E-02         -0.346042684037350E-02
  |  10         -0.158847565686451E-01          0.300827514137237E-02         -0.129678034764877E-01
  |  11         -0.940708084786642E-02          0.337128690078251E-02          0.114131212129964E-01
  |  12          0.237485163173678E-02          0.870936371932004E-02         -0.108368725229280E-01
  |  13         -0.793375867374880E-02         -0.241385443194199E-01         -0.151468181167967E-01
  |  14          0.247155350909065E-02         -0.110884095777684E-01          0.317838095517240E-02
  |  15         -0.870128660220280E-02         -0.241477265260216E-01          0.674497317629094E-02
  |  16          0.630545525764504E-02         -0.254925754383473E-01         -0.114587444646976E-01
  |  17          0.202779505461680E-01          0.113002630190816E-01         -0.283902109357444E-01
  |  18         -0.923253776374448E-03         -0.808472791268305E-02          0.662878767964266E-02
  |  19          0.722368554602296E-02          0.194455215115105E-01         -0.312711357307913E-02
  |  20          0.430959814138567E-02          0.195929530939190E-01          0.222448673706086E-01
  |  21          0.501914674088818E-02         -0.174646354866780E-01         -0.120419939508399E-01
  |  22         -0.136405859787226E-02         -0.307276512405847E-02         -0.229763486243674E-02
  |  23          0.664582688163352E-02         -0.524180347543878E-02         -0.643826515492383E-02
  |  24          0.110836994946091E-01         -0.768316850661068E-02          0.791839421350066E-03
  |  25          0.205142223134644E-01         -0.123217664779129E-02          0.179078595563086E-03
  |  26          0.134577631279669E-01         -0.305245660581592E-02          0.143589316745706E-02
  |  27         -0.425342596054551E-02          0.181389526891319E-01          0.630535594422936E-02
  |  28          0.320778322329643E-02         -0.802974883695162E-03         -0.111681693426506E-01
  |  29          0.187130190269778E-02         -0.395410091880486E-02         -0.136865297173689E-02
  |  30          0.120338517861648E-02          0.395642157057077E-02          0.492971133364005E-02
  |  31         -0.294804777680135E-02          0.560663902414218E-02          0.307816744137277E-02
  |  32          0.343261833082719E-03          0.795716420364721E-02          0.149839971032004E-02

  ------------------------------------ 
  Start decomposition of the XC Energy 
  ------------------------------------ 
  Hartree-Fock part   :          0.000000000 Ha              0.000000000 eV
  ------------------------------------ 
  X Energy            :        -96.986882257 Ha          -2639.147344559 eV
  C Energy GGA        :         -3.867721623 Ha           -105.246060223 eV
  Total XC Energy     :       -100.854603880 Ha          -2744.393404781 eV
  LDA X and C from self-consistent density 
  X Energy LDA        :        -88.001871165 Ha          -2394.652753000 eV
  C Energy LDA        :         -7.531626358 Ha           -204.945980736 eV
  ------------------------------------ 
  End decomposition of the XC Energy 
  ------------------------------------ 
   
  ESP charge fitting starts.
  | Calculation :  00000001  of  00000001
  | Full density
  Computing multipole expansion for total density.
  Generating points for esp charges.
  Partitioning the integration grid into batches with parallel hashing+maxmin method.
  | Number of batches:     3852
  | Maximal batch size:     190
  | Minimal batch size:      57
  | Average batch size:     126.597
  | Standard deviation of batch sizes:      16.789

  Integration load balanced across    32 MPI tasks.
  Work distribution over tasks is as follows:
  Initializing partition tables, free-atom densities, potentials, etc. across the integration grid (initialize_grid_storage).
  | Original list of interatomic distances with          32 x         32 entries is created.
  | Net number of integration points:   487652
  | of which are non-zero points    :   487652
  Summing up potential from multipole expanded  density.
  Summing up the Hartree potential.
  Time summed over all CPUs for potential: real work        6.300 s, elapsed        6.499 s
  Fitting esp charges to potential.
  |
  | ESP charges fitted to the electrostatic potential :
  |
  | Atom         1: C, ESP charge:      0.91379233
  |
  | Atom         2: C, ESP charge:     -0.63425911
  |
  | Atom         3: O, ESP charge:      0.53466784
  |
  | Atom         4: H, ESP charge:     -0.24941520
  |
  | Atom         5: H, ESP charge:     -0.24846521
  |
  | Atom         6: H, ESP charge:     -0.26014679
  |
  | Atom         7: N, ESP charge:      0.29859628
  |
  | Atom         8: C, ESP charge:     -0.29966989
  |
  | Atom         9: C, ESP charge:     -0.60912498
  |
  | Atom        10: O, ESP charge:      0.57049522
  |
  | Atom        11: H, ESP charge:     -0.14544516
  |
  | Atom        12: H, ESP charge:     -0.00358059
  |
  | Atom        13: C, ESP charge:      0.46551154
  |
  | Atom        14: H, ESP charge:     -0.11024263
  |
  | Atom        15: H, ESP charge:     -0.09260128
  |
  | Atom        16: H, ESP charge:     -0.15231654
  |
  | Atom        17: N, ESP charge:      0.57265878
  |
  | Atom        18: C, ESP charge:     -0.15002021
  |
  | Atom        19: C, ESP charge:     -0.29599440
  |
  | Atom        20: O, ESP charge:      0.44704815
  |
  | Atom        21: H, ESP charge:     -0.29183034
  |
  | Atom        22: H, ESP charge:     -0.11366703
  |
  | Atom        23: C, ESP charge:      0.43202881
  |
  | Atom        24: H, ESP charge:     -0.09608713
  |
  | Atom        25: H, ESP charge:     -0.15330219
  |
  | Atom        26: H, ESP charge:     -0.14322263
  |
  | Atom        27: N, ESP charge:      0.09976315
  |
  | Atom        28: C, ESP charge:      0.30328862
  |
  | Atom        29: H, ESP charge:     -0.21070445
  |
  | Atom        30: H, ESP charge:     -0.10704532
  |
  | Atom        31: H, ESP charge:     -0.12288458
  |
  | Atom        32: H, ESP charge:     -0.14782506

  RRMS:       0.00209281

  Done.

------------------------------------------------------------------------------
  Final output of selected total energy values:

  The following output summarizes some interesting total energy values
  at the end of a run (AFTER all relaxation, molecular dynamics, etc.).

  | Total energy of the DFT / Hartree-Fock s.c.f. calculation      :         -20209.207230812 eV
  | Final zero-broadening corrected energy (caution - metals only) :         -20209.207230812 eV
  | For reference only, the value of 1 Hartree used in FHI-aims is :             27.211384500 eV

  Before relying on these values, please be sure to understand exactly which
  total energy value is referred to by a given number. Different objects may
  all carry the same name 'total energy'. Definitions:

  Total energy of the DFT / Hartree-Fock s.c.f. calculation:
  | Note that this energy does not include ANY quantities calculated after the
  | s.c.f. cycle, in particular not ANY RPA, MP2, etc. many-body perturbation terms.

  Final zero-broadening corrected energy:
  | For metallic systems only, a broadening of the occupation numbers at the Fermi
  | level can be extrapolated back to zero broadening by an electron-gas inspired
  | formula. For all systems that are not real metals, this value can be
  | meaningless and should be avoided.

------------------------------------------------------------------------------
  Methods described in the following list of references were used in this FHI-aims run.
  If you publish the results, please make sure to cite these reference if they apply.
  FHI-aims is an academic code, and for our developers (often, Ph.D. students
  and postdocs), scientific credit in the community is essential.
  Thank you for helping us!

  For any use of FHI-aims, please cite:

    Volker Blum, Ralf Gehrke, Felix Hanke, Paula Havu, Ville Havu,
    Xinguo Ren, Karsten Reuter, and Matthias Scheffler
    'Ab initio molecular simulations with numeric atom-centered orbitals'
    Computer Physics Communications 180, 2175-2196 (2009)
    http://dx.doi.org/10.1016/j.cpc.2009.06.022


  The scalable eigensolver library ELPA was used in your run.
  ELPA is essential especially for large systems on hundreds or thousands of CPUs.
  For ELPA, please cite:

    Andreas Marek, Volker Blum, Rainer Johanni, Ville Havu, Bruno Lang,
    Thomas Auckenthaler, Alexander Heinecke, Hans-Joachim Bungartz, and Hermann Lederer,
    'The ELPA Library - Scalable Parallel Eigenvalue Solutions
    for Electronic Structure Theory and Computational Science'
    The Journal of Physics: Condensed Matter 26, 213201 (2014).
    http://dx.doi.org/10.1088/0953-8984/26/21/213201


  For ELPA's efficient two-stage tridiagonalization used in your run, please cite:

    T. Auckenthaler, V. Blum, H.-J. Bungartz, T. Huckle, R. Johanni, L. Kraemer,
    B. Lang, H. Lederer, and P. R. Willems,
    'Parallel solution of partial symmetric eigenvalue problems'
    'from  electronic structure calculations'
    Parallel Computing 37, 783-794 (2011).
    http://dx.doi.org/10.1016/j.parco.2011.05.002


  For the real-space grid partitioning and parallelization used in this calculation, please cite:

    Ville Havu, Volker Blum, Paula Havu, and Matthias Scheffler,
    'Efficient O(N) integration for all-electron electronic structure calculation'
    'using numerically tabulated basis functions'
    Journal of Computational Physics 228, 8367-8379 (2009).
    http://dx.doi.org/10.1016/j.jcp.2009.08.008

  Of course, there are many other important community references, e.g., those cited in the
  above references. Our list is limited to references that describe implementations in the
  FHI-aims code. The reason is purely practical (length of this list) - please credit others as well.

------------------------------------------------------------
          Leaving FHI-aims.
          Date     :  20170309, Time     :  181542.914

          Computational steps:
          | Number of self-consistency cycles          :           14

          Detailed time accounting                     :  max(cpu_time)    wall_clock(cpu1)
          | Total time                                 :       32.422 s          32.615 s
          | Preparation time                           :        0.240 s           0.238 s
          | Grid partitioning                          :        0.344 s           0.341 s
          | Preloading free-atom quantities on grid    :        0.028 s           0.028 s
          | Free-atom superposition energy             :        0.040 s           0.038 s
          | Total time for integrations                :       10.369 s          10.356 s
          | Total time for solution of K.-S. equations :        0.528 s           0.498 s
          | Total time for density & force components  :        9.385 s           9.374 s
          | Total time for mixing                      :        0.124 s           0.103 s
          | Total time for Hartree multipole update    :        0.072 s           0.060 s
          | Total time for Hartree multipole sum       :        6.440 s           6.406 s
          | Total time for total energy evaluation     :        0.044 s           0.023 s

          Have a nice day.
------------------------------------------------------------
