  MPI-parallelism will be employed.
------------------------------------------------------------
          Invoking FHI-aims ...
          Version 150427
          Git rev.: 9dd23e0 BL: Update Version stamp
          Compiled on 2015/11/03 at 22:05:20 on host eos03.

          When using FHI-aims, please cite the following reference:

          Volker Blum, Ralf Gehrke, Felix Hanke, Paula Havu,
          Ville Havu, Xinguo Ren, Karsten Reuter, and Matthias Scheffler,
          'Ab Initio Molecular Simulations with Numeric Atom-Centered Orbitals: FHI-aims',
          Computer Physics Communications 180, 2175-2196 (2009)

          For any questions about FHI-aims, please visit the aimsclub website
          with its forums and wiki. Contributions to both the forums and the
          wiki are warmly encouraged - they are for you, and everyone is welcome there.

------------------------------------------------------------

  Date     :  20170309, Time     :  162540.378
  Time zero on CPU 1             :   0.372023000000000E+00  s.
  Internal wall clock time zero  :           258308740.378  s.

  Using       32 parallel tasks.
  Task        0 on host eos341 reporting.
  Task        1 on host eos341 reporting.
  Task        2 on host eos341 reporting.
  Task        3 on host eos341 reporting.
  Task        4 on host eos341 reporting.
  Task        5 on host eos341 reporting.
  Task        6 on host eos341 reporting.
  Task        7 on host eos341 reporting.
  Task        8 on host eos341 reporting.
  Task        9 on host eos341 reporting.
  Task       10 on host eos341 reporting.
  Task       11 on host eos341 reporting.
  Task       12 on host eos341 reporting.
  Task       13 on host eos341 reporting.
  Task       14 on host eos341 reporting.
  Task       15 on host eos341 reporting.
  Task       16 on host eos341 reporting.
  Task       17 on host eos341 reporting.
  Task       18 on host eos341 reporting.
  Task       19 on host eos341 reporting.
  Task       20 on host eos341 reporting.
  Task       21 on host eos341 reporting.
  Task       22 on host eos341 reporting.
  Task       23 on host eos341 reporting.
  Task       24 on host eos341 reporting.
  Task       25 on host eos341 reporting.
  Task       26 on host eos341 reporting.
  Task       27 on host eos341 reporting.
  Task       28 on host eos341 reporting.
  Task       29 on host eos341 reporting.
  Task       30 on host eos341 reporting.
  Task       31 on host eos341 reporting.

  Performing system and environment tests:
  | Environment variable OMP_NUM_THREADS correctly set to 1.
  | Stacksize not measured: no C compiler
  | Checking for scalapack...
  | Testing pdtran()...
  | All pdtran() tests passed.

  Obtaining array dimensions for all initial allocations:
  
  -----------------------------------------------------------------------
  Parsing control.in (first pass over file, find array dimensions only).
  The contents of control.in will be repeated verbatim below
  unless switched off by setting 'verbatim_writeout .false.' .
  in the first line of control.in .
  -----------------------------------------------------------------------
  
  #########################################################################################
  #
  # Input for System
  #
  #########################################################################################
  #
  #
  #  Physical model
  #
    xc                 pbe
    many_body_dispersion
    spin               none
    charge             0.
  #
  #  SCF convergence
  #
    occupation_type    gaussian 0.05
    mixer              pulay
      n_max_pulay        10
      charge_mix_param   0.5
    sc_accuracy_rho    1E-4
    sc_accuracy_eev    1E-2
    sc_accuracy_etot   1E-5
    sc_accuracy_forces 1E-4
    sc_iter_limit      1000
  #
  #  ESP charge
  #
    output esp
    esp equal_grid_n 80 80 80
  #
  #
  ################################################################################
  #
  #  FHI-aims code project
  # Volker Blum, Fritz Haber Institute Berlin, 2009
  #
  #  Suggested "tight" defaults for H atom (to be pasted into control.in file)
  #
  ################################################################################
    species        H
  #     global species definitions
      nucleus             1
      mass                1.00794
  #
      l_hartree           6
  #
      cut_pot             4.0  2.0  1.0
      basis_dep_cutoff    1e-4
  #
      radial_base         24 7.0
      radial_multiplier   2
      angular_grids       specified
        division   0.1930   50
        division   0.3175  110
        division   0.4293  194
        division   0.5066  302
        division   0.5626  434
  #      division   0.5922  590
  #      division   0.6227  974
  #      division   0.6868 1202
  #      outer_grid  770
        outer_grid  434
  ################################################################################
  #
  #  Definition of "minimal" basis
  #
  ################################################################################
  #     valence basis states
      valence      1  s   1.
  #     ion occupancy
      ion_occ      1  s   0.5
  ################################################################################
  #
  #  Suggested additional basis functions. For production calculations,
  #  uncomment them one after another (the most important basis functions are
  #  listed first).
  #
  #  Basis constructed for dimers: 0.5 A, 0.7 A, 1.0 A, 1.5 A, 2.5 A
  #
  ################################################################################
  #  "First tier" - improvements: -1014.90 meV to -62.69 meV
       hydro 2 s 2.1
       hydro 2 p 3.5
  #  "Second tier" - improvements: -12.89 meV to -1.83 meV
       hydro 1 s 0.85
       hydro 2 p 3.7
       hydro 2 s 1.2
       hydro 3 d 7
  #  "Third tier" - improvements: -0.25 meV to -0.12 meV
  #     hydro 4 f 11.2
  #     hydro 3 p 4.8
  #     hydro 4 d 9
  #     hydro 3 s 3.2
  ################################################################################
  #
  # For methods that use the localized form of the "resolution of identity" for
  # the two-electron Coulomb operator (RI_method LVL), particularly Hartree-Fock and
  # hybrid density functional calculations, the highest accuracy can be obtained by
  # uncommenting the line beginning with "for_aux"  below, thus adding an extra g radial
  # function to the construction of the product basis set for the expansion.
  # See Ref. New J. Phys. 17, 093020 (2015) for more information, particularly Figs. 1 and 6.
  #
  ################################################################################
  #
  # for_aux hydro 5 g 6.0
  ################################################################################
  #
  #  FHI-aims code project
  # Volker Blum, Fritz Haber Institute Berlin, 2009
  #
  #  Suggested "tight" defaults for C atom (to be pasted into control.in file)
  #
  ################################################################################
    species        C
  #     global species definitions
      nucleus             6
      mass                12.0107
  #
      l_hartree           6
  #
      cut_pot             4.0  2.0  1.0
      basis_dep_cutoff    1e-4
  #
      radial_base         34 7.0
      radial_multiplier   2
      angular_grids specified
        division   0.2187   50
        division   0.4416  110
        division   0.6335  194
        division   0.7727  302
        division   0.8772  434
  #      division   0.9334  590
  #      division   0.9924  770
  #      division   1.0230  974
  #      division   1.5020 1202
  #     outer_grid  974
        outer_grid  434
  ################################################################################
  #
  #  Definition of "minimal" basis
  #
  ################################################################################
  #     valence basis states
      valence      2  s   2.
      valence      2  p   2.
  #     ion occupancy
      ion_occ      2  s   1.
      ion_occ      2  p   1.
  ################################################################################
  #
  #  Suggested additional basis functions. For production calculations,
  #  uncomment them one after another (the most important basis functions are
  #  listed first).
  #
  #  Constructed for dimers: 1.0 A, 1.25 A, 1.5 A, 2.0 A, 3.0 A
  #
  ################################################################################
  #  "First tier" - improvements: -1214.57 meV to -155.61 meV
       hydro 2 p 1.7
       hydro 3 d 6
       hydro 2 s 4.9
  #  "Second tier" - improvements: -67.75 meV to -5.23 meV
       hydro 4 f 9.8
       hydro 3 p 5.2
       hydro 3 s 4.3
       hydro 5 g 14.4
       hydro 3 d 6.2
  #  "Third tier" - improvements: -2.43 meV to -0.60 meV
  #     hydro 2 p 5.6
  #     hydro 2 s 1.4
  #     hydro 3 d 4.9
  #     hydro 4 f 11.2
  #  "Fourth tier" - improvements: -0.39 meV to -0.18 meV
  #     hydro 2 p 2.1
  #     hydro 5 g 16.4
  #     hydro 4 d 13.2
  #     hydro 3 s 13.6
  #     hydro 4 f 17.6
  #  Further basis functions - improvements: -0.08 meV and below
  #     hydro 3 s 2
  #     hydro 3 p 6
  #     hydro 4 d 20
  ################################################################################
  #
  # For methods that use the localized form of the "resolution of identity" for
  # the two-electron Coulomb operator (RI_method LVL), particularly Hartree-Fock and
  # hybrid density functional calculations, the highest accuracy can be obtained by
  # uncommenting the line beginning with "for_aux"  below, thus adding an extra g radial
  # function to the construction of the product basis set for the expansion.
  # See Ref. New J. Phys. 17, 093020 (2015) for more information, particularly Figs. 1 and 6.
  #
  ################################################################################
  #
  # for_aux hydro 5 g 6.0
  ################################################################################
  #
  #  FHI-aims code project
  # Volker Blum, Fritz Haber Institute Berlin, 2009
  #
  #  Suggested "tight" defaults for N atom (to be pasted into control.in file)
  #
  ################################################################################
    species        N
  #     global species definitions
      nucleus             7
      mass                14.0067
  #
      l_hartree           6
  #
      cut_pot             4.0  2.0  1.0
      basis_dep_cutoff    1e-4
  #
      radial_base         35 7.0
      radial_multiplier   2
      angular_grids       specified
        division   0.1841   50
        division   0.3514  110
        division   0.5126  194
        division   0.6292  302
        division   0.6939  434
  #      division   0.7396  590
  #      division   0.7632  770
  #      division   0.8122  974
  #      division   1.1604 1202
  #      outer_grid  974
        outer_grid  434
  ################################################################################
  #
  #  Definition of "minimal" basis
  #
  ################################################################################
  #     valence basis states
      valence      2  s   2.
      valence      2  p   3.
  #     ion occupancy
      ion_occ      2  s   1.
      ion_occ      2  p   2.
  ################################################################################
  #
  #  Suggested additional basis functions. For production calculations,
  #  uncomment them one after another (the most important basis functions are
  #  listed first).
  #
  #  Constructed for dimers: 1.0 A, 1.1 A, 1.5 A, 2.0 A, 3.0 A
  #
  ################################################################################
  #  "First tier" - improvements: -1193.42 meV to -220.60 meV
       hydro 2 p 1.8
       hydro 3 d 6.8
       hydro 3 s 5.8
  #  "Second tier" - improvements: -80.21 meV to -6.86 meV
       hydro 4 f 10.8
       hydro 3 p 5.8
       hydro 1 s 0.8
       hydro 5 g 16
       hydro 3 d 4.9
  #  "Third tier" - improvements: -4.29 meV to -0.53 meV
  #     hydro 3 s 16
  #     ionic 2 p auto
  #     hydro 3 d 6.6
  #     hydro 4 f 11.6
  #  "Fourth tier" - improvements: -0.75 meV to -0.25 meV
  #     hydro 2 p 4.5
  #     hydro 2 s 2.4
  #     hydro 5 g 14.4
  #     hydro 4 d 14.4
  #     hydro 4 f 16.8
  # Further basis functions - -0.21 meV and below
  #     hydro 3 p 14.8
  #     hydro 3 s 4.4
  #     hydro 3 d 19.6
  #     hydro 5 g 12.8
  ################################################################################
  #
  # For methods that use the localized form of the "resolution of identity" for
  # the two-electron Coulomb operator (RI_method LVL), particularly Hartree-Fock and
  # hybrid density functional calculations, the highest accuracy can be obtained by
  # uncommenting the line beginning with "for_aux"  below, thus adding an extra g radial
  # function to the construction of the product basis set for the expansion.
  # See Ref. New J. Phys. 17, 093020 (2015) for more information, particularly Figs. 1 and 6.
  #
  ################################################################################
  #
  # for_aux hydro 5 g 6.0
  ################################################################################
  #
  #  FHI-aims code project
  # Volker Blum, Fritz Haber Institute Berlin, 2009
  #
  #  Suggested "tight" defaults for O atom (to be pasted into control.in file)
  #
  ################################################################################
    species        O
  #     global species definitions
      nucleus             8
      mass                15.9994
  #
      l_hartree           6
  #
      cut_pot             4.0  2.0  1.0
      basis_dep_cutoff    1e-4
  #
      radial_base         36 7.0
      radial_multiplier   2
       angular_grids specified
        division   0.1817   50
        division   0.3417  110
        division   0.4949  194
        division   0.6251  302
        division   0.8014  434
  #      division   0.8507  590
  #      division   0.8762  770
  #      division   0.9023  974
  #      division   1.2339 1202
  #      outer_grid 974
        outer_grid  434
  ################################################################################
  #
  #  Definition of "minimal" basis
  #
  ################################################################################
  #     valence basis states
      valence      2  s   2.
      valence      2  p   4.
  #     ion occupancy
      ion_occ      2  s   1.
      ion_occ      2  p   3.
  ################################################################################
  #
  #  Suggested additional basis functions. For production calculations,
  #  uncomment them one after another (the most important basis functions are
  #  listed first).
  #
  #  Constructed for dimers: 1.0 A, 1.208 A, 1.5 A, 2.0 A, 3.0 A
  #
  ################################################################################
  #  "First tier" - improvements: -699.05 meV to -159.38 meV
       hydro 2 p 1.8
       hydro 3 d 7.6
       hydro 3 s 6.4
  #  "Second tier" - improvements: -49.91 meV to -5.39 meV
       hydro 4 f 11.6
       hydro 3 p 6.2
       hydro 3 d 5.6
       hydro 5 g 17.6
       hydro 1 s 0.75
  #  "Third tier" - improvements: -2.83 meV to -0.50 meV
  #     ionic 2 p auto
  #     hydro 4 f 10.8
  #     hydro 4 d 4.7
  #     hydro 2 s 6.8
  #  "Fourth tier" - improvements: -0.40 meV to -0.12 meV
  #     hydro 3 p 5
  #     hydro 3 s 3.3
  #     hydro 5 g 15.6
  #     hydro 4 f 17.6
  #     hydro 4 d 14
  # Further basis functions - -0.08 meV and below
  #     hydro 3 s 2.1
  #     hydro 4 d 11.6
  #     hydro 3 p 16
  #     hydro 2 s 17.2
  ################################################################################
  #
  # For methods that use the localized form of the "resolution of identity" for
  # the two-electron Coulomb operator (RI_method LVL), particularly Hartree-Fock and
  # hybrid density functional calculations, the highest accuracy can be obtained by
  # uncommenting the line beginning with "for_aux"  below, thus adding an extra g radial
  # function to the construction of the product basis set for the expansion.
  # See Ref. New J. Phys. 17, 093020 (2015) for more information, particularly Figs. 1 and 6.
  #
  ################################################################################
  #
  # for_aux hydro 5 g 6.0
  
  -----------------------------------------------------------------------
  Completed first pass over input file control.in .
  -----------------------------------------------------------------------
  
  
  -----------------------------------------------------------------------
  Parsing geometry.in (first pass over file, find array dimensions only).
  The contents of geometry.in will be repeated verbatim below
  unless switched off by setting 'verbatim_writeout .false.' .
  in the first line of geometry.in .
  -----------------------------------------------------------------------
  
  #
  # This is the geometry file that corresponds to the current relaxation step.
  # If you do not want this file to be written, set the "write_restart_geometry" flag to .false.
  #
  atom      -0.82587195     -1.10906632      0.21263517 C
  atom      -0.27996131     -0.63485283      1.54184901 C
  atom       0.94077535     -0.61460834      1.76888696 O
  atom      -0.54907780     -2.16208439      0.07208220 H
  atom      -0.34598420     -0.53524590     -0.58954333 H
  atom      -1.91438422     -1.01249676      0.12156836 H
  atom      -1.20100114     -0.23767934      2.45821262 N
  atom      -0.87379173      0.23722918      3.80895770 C
  atom      -0.57649401     -0.98733450      4.72755186 C
  atom      -1.39411141     -1.42498985      5.53241656 O
  atom      -2.18371873     -0.35196942      2.23482317 H
  atom       0.04578942      0.83381882      3.71304571 H
  atom      -2.00583214      1.08929473      4.35815315 C
  atom      -2.91469976      0.48874282      4.49652403 H
  atom      -2.21827125      1.93216878      3.68798818 H
  atom      -1.73336855      1.48639873      5.34279079 H
  atom       0.65451277     -1.50616521      4.48838218 N
  atom       1.15410518     -2.78227534      4.99801771 C
  atom       2.58298272     -3.06032096      4.49805151 C
  atom       3.38201821     -3.66477477      5.21010903 O
  atom       1.17821772     -1.04275278      3.74608613 H
  atom       1.23363685     -2.72852507      6.09253708 H
  atom       0.24695786     -3.96717623      4.62186765 C
  atom      -0.75168162     -3.82964493      5.05076025 H
  atom       0.67848799     -4.89639792      5.01373769 H
  atom       0.15767044     -4.05514340      3.53009357 H
  atom       2.87813966     -2.64944523      3.23051203 N
  atom       4.18134629     -2.89270366      2.63852099 C
  atom       2.17399201     -2.20581712      2.64463728 H
  atom       4.42934757     -2.07512446      1.95160679 H
  atom       4.21170868     -3.84486962      2.08636567 H
  atom       4.92770812     -2.94227170      3.43879530 H
  
  -----------------------------------------------------------------------
  Completed first pass over input file geometry.in .
  -----------------------------------------------------------------------
  

  Basic array size parameters:
  | Number of species                 :        4
  | Number of atoms                   :       32
  | Max. basis fn. angular momentum   :        4
  | Max. atomic/ionic basis occupied n:        2
  | Max. number of basis fn. types    :        2
  | Max. radial fns per species/type  :        8
  | Max. logarithmic grid size        :     1301
  | Max. radial integration grid size :       73
  | Max. angular integration grid size:      434
  | Max. angular grid division number :        8
  | Radial grid for Hartree potential :     1301
  | Number of spin channels           :        1

------------------------------------------------------------
          Reading file control.in.
------------------------------------------------------------
  XC: Using PBE gradient-corrected functionals.
  Self-consistent screening and van der Waals energy (TS, TS+SCS,MBD) module
  Spin treatment: No spin polarisation.
  Charge =   0.000000E+00: Neutral system requested explicitly.
  Occupation type: Gaussian broadening, width =   0.500000E-01 eV.
  Using pulay charge density mixing.
  Pulay mixing - number of memorized iterations:   10
  Charge density mixing - mixing parameter:     0.5000
  Convergence accuracy of self-consistent charge density:  0.1000E-03
  Convergence accuracy of sum of eigenvalues:  0.1000E-01
  Convergence accuracy of total energy:  0.1000E-04
  Convergence accuracy of forces:  0.1000E-03
  Maximum number of s.-c. iterations  :  1000
  Fitting ESP-charges to Potential. 
  | Esp charge output options: 
  | ESP Grid method: 3, cubic grid
  | Number of points in x, ,y, z:  0080 0080 0080
  |
 
  Reading configuration options for species H                   .
  | Found nuclear charge :   1.0000
  | Found atomic mass :    1.00794000000000      amu
  | Found l_max for Hartree potential  :   6
  | Found cutoff potl. onset [A], width [A], scale factor :    4.00000    2.00000    1.00000
  | Threshold for basis-dependent cutoff potential is   0.100000E-03
  | Found data for basic radial integration grid :    24 points, outermost radius =    7.000 A
  | Found multiplier for basic radial grid :   2
  | Found angular grid specification: user-specified.
  | Specified grid contains     6 separate shells.
  | Check grid settings after all constraints further below.
  | Found free-atom valence shell :  1 s   1.000
  | No ionic wave fns used. Skipping ion_occ.
  | Found hydrogenic basis function :  2 s   2.100
  | Found hydrogenic basis function :  2 p   3.500
  | Found hydrogenic basis function :  1 s   0.850
  | Found hydrogenic basis function :  2 p   3.700
  | Found hydrogenic basis function :  2 s   1.200
  | Found hydrogenic basis function :  3 d   7.000
  Species H                   : Missing cutoff potential type.
  Defaulting to exp(1/x)/(1-x)^2 type cutoff potential.
  Species H : No 'logarithmic' tag. Using default grid for free atom:
  | Default logarithmic grid data [bohr] : 0.1000E-03 0.1000E+03 0.1012E+01
  Species H : On-site basis accuracy parameter (for Gram-Schmidt orthonormalisation) not specified.
  Using default value basis_acc =  0.1000000E-03.
  Species H                   : Using default innermost maximum threshold i_radial=  2 for radial functions.
  Species H                   : Default cutoff onset for free atom density etc. : 0.40000000E+01 AA.
  Species H                   : Basic radial grid will be enhanced according to radial_multiplier =   2, to contain    49 grid points.
 
  Reading configuration options for species C                   .
  | Found nuclear charge :   6.0000
  | Found atomic mass :    12.0107000000000      amu
  | Found l_max for Hartree potential  :   6
  | Found cutoff potl. onset [A], width [A], scale factor :    4.00000    2.00000    1.00000
  | Threshold for basis-dependent cutoff potential is   0.100000E-03
  | Found data for basic radial integration grid :    34 points, outermost radius =    7.000 A
  | Found multiplier for basic radial grid :   2
  | Found angular grid specification: user-specified.
  | Specified grid contains     6 separate shells.
  | Check grid settings after all constraints further below.
  | Found free-atom valence shell :  2 s   2.000
  | Found free-atom valence shell :  2 p   2.000
  | No ionic wave fns used. Skipping ion_occ.
  | No ionic wave fns used. Skipping ion_occ.
  | Found hydrogenic basis function :  2 p   1.700
  | Found hydrogenic basis function :  3 d   6.000
  | Found hydrogenic basis function :  2 s   4.900
  | Found hydrogenic basis function :  4 f   9.800
  | Found hydrogenic basis function :  3 p   5.200
  | Found hydrogenic basis function :  3 s   4.300
  | Found hydrogenic basis function :  5 g  14.400
  | Found hydrogenic basis function :  3 d   6.200
  Species C                   : Missing cutoff potential type.
  Defaulting to exp(1/x)/(1-x)^2 type cutoff potential.
  Species C : No 'logarithmic' tag. Using default grid for free atom:
  | Default logarithmic grid data [bohr] : 0.1000E-03 0.1000E+03 0.1012E+01
  Species C : On-site basis accuracy parameter (for Gram-Schmidt orthonormalisation) not specified.
  Using default value basis_acc =  0.1000000E-03.
  Species C                   : Using default innermost maximum threshold i_radial=  2 for radial functions.
  Species C                   : Default cutoff onset for free atom density etc. : 0.40000000E+01 AA.
  Species C                   : Basic radial grid will be enhanced according to radial_multiplier =   2, to contain    69 grid points.
 
  Reading configuration options for species N                   .
  | Found nuclear charge :   7.0000
  | Found atomic mass :    14.0067000000000      amu
  | Found l_max for Hartree potential  :   6
  | Found cutoff potl. onset [A], width [A], scale factor :    4.00000    2.00000    1.00000
  | Threshold for basis-dependent cutoff potential is   0.100000E-03
  | Found data for basic radial integration grid :    35 points, outermost radius =    7.000 A
  | Found multiplier for basic radial grid :   2
  | Found angular grid specification: user-specified.
  | Specified grid contains     6 separate shells.
  | Check grid settings after all constraints further below.
  | Found free-atom valence shell :  2 s   2.000
  | Found free-atom valence shell :  2 p   3.000
  | No ionic wave fns used. Skipping ion_occ.
  | No ionic wave fns used. Skipping ion_occ.
  | Found hydrogenic basis function :  2 p   1.800
  | Found hydrogenic basis function :  3 d   6.800
  | Found hydrogenic basis function :  3 s   5.800
  | Found hydrogenic basis function :  4 f  10.800
  | Found hydrogenic basis function :  3 p   5.800
  | Found hydrogenic basis function :  1 s   0.800
  | Found hydrogenic basis function :  5 g  16.000
  | Found hydrogenic basis function :  3 d   4.900
  Species N                   : Missing cutoff potential type.
  Defaulting to exp(1/x)/(1-x)^2 type cutoff potential.
  Species N : No 'logarithmic' tag. Using default grid for free atom:
  | Default logarithmic grid data [bohr] : 0.1000E-03 0.1000E+03 0.1012E+01
  Species N : On-site basis accuracy parameter (for Gram-Schmidt orthonormalisation) not specified.
  Using default value basis_acc =  0.1000000E-03.
  Species N                   : Using default innermost maximum threshold i_radial=  2 for radial functions.
  Species N                   : Default cutoff onset for free atom density etc. : 0.40000000E+01 AA.
  Species N                   : Basic radial grid will be enhanced according to radial_multiplier =   2, to contain    71 grid points.
 
  Reading configuration options for species O                   .
  | Found nuclear charge :   8.0000
  | Found atomic mass :    15.9994000000000      amu
  | Found l_max for Hartree potential  :   6
  | Found cutoff potl. onset [A], width [A], scale factor :    4.00000    2.00000    1.00000
  | Threshold for basis-dependent cutoff potential is   0.100000E-03
  | Found data for basic radial integration grid :    36 points, outermost radius =    7.000 A
  | Found multiplier for basic radial grid :   2
  | Found angular grid specification: user-specified.
  | Specified grid contains     6 separate shells.
  | Check grid settings after all constraints further below.
  | Found free-atom valence shell :  2 s   2.000
  | Found free-atom valence shell :  2 p   4.000
  | No ionic wave fns used. Skipping ion_occ.
  | No ionic wave fns used. Skipping ion_occ.
  | Found hydrogenic basis function :  2 p   1.800
  | Found hydrogenic basis function :  3 d   7.600
  | Found hydrogenic basis function :  3 s   6.400
  | Found hydrogenic basis function :  4 f  11.600
  | Found hydrogenic basis function :  3 p   6.200
  | Found hydrogenic basis function :  3 d   5.600
  | Found hydrogenic basis function :  5 g  17.600
  | Found hydrogenic basis function :  1 s   0.750
  Species O                   : Missing cutoff potential type.
  Defaulting to exp(1/x)/(1-x)^2 type cutoff potential.
  Species O : No 'logarithmic' tag. Using default grid for free atom:
  | Default logarithmic grid data [bohr] : 0.1000E-03 0.1000E+03 0.1012E+01
  Species O : On-site basis accuracy parameter (for Gram-Schmidt orthonormalisation) not specified.
  Using default value basis_acc =  0.1000000E-03.
  Species O                   : Using default innermost maximum threshold i_radial=  2 for radial functions.
  Species O                   : Default cutoff onset for free atom density etc. : 0.40000000E+01 AA.
  Species O                   : Basic radial grid will be enhanced according to radial_multiplier =   2, to contain    73 grid points.
 
  Finished reading input file 'control.in'. Consistency checks are next.
 
  Target number of points in a grid batch is not set. Defaulting to  100
  Method for grid partitioning is not set. Defaulting to parallel hash+maxmin partitioning.
  Batch size limit is not set. Defaulting to    200
  By default, will store active basis functions for each batch.
  If in need of memory, prune_basis_once .false. can be used to disable this option.
  communication_type for Hartree potential was not specified.
  Defaulting to calc_hartree .
  Pulay mixer: Number of initial linear mixing iterations not set.
  Defaulting to    0 iterations.
  Work space size for distributed Hartree potential not set.
  Defaulting to   0.200000E+03 MB.
  Algorithm-dependent basis array size parameters:
  | n_max_pulay                         :       10
  Geometry relaxation not requested: no relaxation will be performed.
  Handling of forces: Unphysical translation and rotation will be removed from forces.
  No accuracy limit for integral partition fn. given. Defaulting to  0.1000E-14.
  No threshold value for u(r) in integrations given. Defaulting to  0.1000E-05.
  No accuracy for occupation numbers given. Defaulting to  0.1000E-07.
  No threshold value for occupation numbers given. Defaulting to  0.0000E+00.
  No accuracy for fermi level given. Defaulting to  0.1000E-19.
  Maximum # of iterations to find E_F not set. Defaulting to  200.
  Preferred method for the eigenvalue solver ('KS_method') not specified in 'control.in'.
  Calling blacs routine to test compilation state
  Since scalapack support is enabled, defaulting to 'elpa'.
  Preferred method for the MBD eigenvalue solver ('mbd_eigensolver') not specified in 'control.in'.
  Calling blacs routine to test compilation state
  Since scalapack support is enabled, defaulting to 'scaLAPACK'.
  Will not use alltoall communication since running on < 1024 CPUs.
  Threshold for basis singularities not set.
  Default threshold for basis singularities:  0.1000E-04
  partition_type (choice of integration weights) for integrals was not specified.
  | Using a version of the partition function of Stratmann and coworkers ('stratmann_smoother').
  | At each grid point, the set of atoms used to build the partition table is smoothly restricted to
  | only those atoms whose free-atom density would be non-zero at that grid point.
  Partitioning for Hartree potential was not defined. Using partition_type for integrals.
  | Adjusted default value of keyword multip_moments_threshold to:       0.10000000E-11
  | This value may affect high angular momentum components of the Hartree potential in periodic systems.
  No q(lm)/r^(l+1) cutoff set for long-range Hartree potential.
  | Using default value of  0.100000E-09 .
  | Verify using the multipole_threshold keyword.
  Defaulting to new monopole extrapolation.
  Density update method: automatic selection selected.
------------------------------------------------------------


------------------------------------------------------------
          Reading geometry description geometry.in.
------------------------------------------------------------
 * Warning! You did not set the 'relativistic' flag in input file 'control.in'.
 * Since you are not attempting to treat any elements beyond Ca(Z=20), FHI-aims
 * will default to 'relativistic none'.
 * You must ensure that this is really what you want!!
 * For example, DO NOT compute total-energy differences between results from
 * different settings of the 'relativistic' flag.
  Input structure read successfully.
  The structure contains       32 atoms,  and a total of        116.000 electrons.

  Input geometry:
  | No unit cell requested.
  | Atomic structure:
  |       Atom                x [A]            y [A]            z [A]
  |    1: Species C             -0.825872        -1.109066         0.212635
  |    2: Species C             -0.279961        -0.634853         1.541849
  |    3: Species O              0.940775        -0.614608         1.768887
  |    4: Species H             -0.549078        -2.162084         0.072082
  |    5: Species H             -0.345984        -0.535246        -0.589543
  |    6: Species H             -1.914384        -1.012497         0.121568
  |    7: Species N             -1.201001        -0.237679         2.458213
  |    8: Species C             -0.873792         0.237229         3.808958
  |    9: Species C             -0.576494        -0.987335         4.727552
  |   10: Species O             -1.394111        -1.424990         5.532417
  |   11: Species H             -2.183719        -0.351969         2.234823
  |   12: Species H              0.045789         0.833819         3.713046
  |   13: Species C             -2.005832         1.089295         4.358153
  |   14: Species H             -2.914700         0.488743         4.496524
  |   15: Species H             -2.218271         1.932169         3.687988
  |   16: Species H             -1.733369         1.486399         5.342791
  |   17: Species N              0.654513        -1.506165         4.488382
  |   18: Species C              1.154105        -2.782275         4.998018
  |   19: Species C              2.582983        -3.060321         4.498052
  |   20: Species O              3.382018        -3.664775         5.210109
  |   21: Species H              1.178218        -1.042753         3.746086
  |   22: Species H              1.233637        -2.728525         6.092537
  |   23: Species C              0.246958        -3.967176         4.621868
  |   24: Species H             -0.751682        -3.829645         5.050760
  |   25: Species H              0.678488        -4.896398         5.013738
  |   26: Species H              0.157670        -4.055143         3.530094
  |   27: Species N              2.878140        -2.649445         3.230512
  |   28: Species C              4.181346        -2.892704         2.638521
  |   29: Species H              2.173992        -2.205817         2.644637
  |   30: Species H              4.429348        -2.075124         1.951607
  |   31: Species H              4.211709        -3.844870         2.086366
  |   32: Species H              4.927708        -2.942272         3.438795
  |

  | The smallest distance between any two atoms is         1.01424796 AA.
  |
  | The first atom of this pair is atom number                      7 .
  | The second atom of this pair is atom number                    11 .

  Number of empty states per atom not set in control.in - providing a guess from actual geometry.
  | Total number of empty states used during s.c.f. cycle:       71
  If you use a very high smearing, use empty_states (per atom!) in control.in to increase this value.

  Structure-dependent array size parameters: 
  | Maximum number of distinct radial functions  :       40
  | Maximum number of basis functions            :      840
  | Number of Kohn-Sham states (occupied + empty):      129
------------------------------------------------------------

------------------------------------------------------------
          Preparing all fixed parts of the calculation.
------------------------------------------------------------
  Determining machine precision:
    2.225073858507201E-308
  Setting up grids for atomic and cluster calculations.

  Creating wave function, potential, and density for free atoms.

  Species: H

  List of occupied orbitals and eigenvalues:
    n    l              occ      energy [Ha]    energy [eV]
    1    0           1.0000        -0.238382        -6.4867


  Species: C

  List of occupied orbitals and eigenvalues:
    n    l              occ      energy [Ha]    energy [eV]
    1    0           2.0000       -10.041232      -273.2358
    2    0           2.0000        -0.504327       -13.7234
    2    1           2.0000        -0.193750        -5.2722


  Species: N

  List of occupied orbitals and eigenvalues:
    n    l              occ      energy [Ha]    energy [eV]
    1    0           2.0000       -14.129007      -384.4699
    2    0           2.0000        -0.681802       -18.5528
    2    1           3.0000        -0.260543        -7.0897


  Species: O

  List of occupied orbitals and eigenvalues:
    n    l              occ      energy [Ha]    energy [eV]
    1    0           2.0000       -18.898576      -514.2564
    2    0           2.0000        -0.878795       -23.9132
    2    1           4.0000        -0.332075        -9.0362

  Creating fixed part of basis set: Ionic, confined, hydrogenic.
 
  H                    hydrogenic:
 
  List of hydrogenic basis orbitals: 
    n    l      effective z      eigenvalue [eV]  inner max. [A]     outer max. [A]     outer radius [A]   
    2    0         2.100000       -14.9965           0.193243           1.317208           5.373006
    2    1         3.500000       -41.6672           0.602369           0.602369           4.056063
    1    0         0.850000        -9.8292           0.624871           0.624871           5.373006
    2    1         3.700000       -46.5653           0.573622           0.573622           3.910002
    2    0         1.200000        -4.5995           0.334980           2.228188           5.505995
    3    2         7.000000       -74.0753           0.680699           0.680699           3.769201
 
 
  C                    hydrogenic:
 
  List of hydrogenic basis orbitals: 
    n    l      effective z      eigenvalue [eV]  inner max. [A]     outer max. [A]     outer radius [A]   
    2    1         1.700000        -9.8152           1.245706           1.245706           5.401630
    3    2         6.000000       -54.4226           0.792453           0.792453           4.178599
    2    0         4.900000       -81.6681           0.082559           0.562749           3.353238
    4    3         9.800000       -81.6681           0.863254           0.863254           4.028125
    3    1         5.200000       -40.8774           0.305389           1.215618           4.898362
    3    0         4.300000       -27.9508           0.091041           1.610311           5.401630
    5    4        14.400000      -112.8510           0.917666           0.917666           3.883070
    3    2         6.200000       -58.1113           0.763917           0.763917           4.077671
 
 
  N                    hydrogenic:
 
  List of hydrogenic basis orbitals: 
    n    l      effective z      eigenvalue [eV]  inner max. [A]     outer max. [A]     outer radius [A]   
    2    1         1.800000       -11.0118           1.177451           1.177451           5.427479
    3    2         6.800000       -69.9029           0.704619           0.704619           3.854246
    3    0         5.800000       -50.8549           0.067388           1.191934           4.629968
    4    3        10.800000       -99.1854           0.786571           0.786571           3.761152
    3    1         5.800000       -50.8549           0.274880           1.094176           4.518138
    1    0         0.800000        -8.7059           0.662839           0.662839           5.361532
    5    4        16.000000      -139.3222           0.825990           0.825990           3.625711
    3    2         4.900000       -36.2967           0.968267           0.968267           4.862000
 
 
  O                    hydrogenic:
 
  List of hydrogenic basis orbitals: 
    n    l      effective z      eigenvalue [eV]  inner max. [A]     outer max. [A]     outer radius [A]   
    2    1         1.800000       -11.0118           1.178562           1.178562           5.432602
    3    2         7.600000       -87.3182           0.624125           0.624125           3.541477
    3    0         6.400000       -61.9209           0.061167           1.081902           4.306578
    4    3        11.600000      -114.4238           0.731631           0.731631           3.585037
    3    1         6.200000       -58.1113           0.255680           1.030270           4.306578
    3    2         5.600000       -47.4081           0.847233           0.847233           4.413171
    5    4        17.600000      -168.5799           0.749740           0.749740           3.372465
    1    0         0.750000        -7.6499           0.705284           0.705284           5.366593
 

  Adding cutoff potential to free-atom effective potential.
  Creating atomic-like basis functions for current effective potential.

  Species H                   :

  List of atomic basis orbitals and eigenvalues:
    n    l      energy [Ha]    energy [eV]    outer radius [A]
    1    0        -0.238382        -6.4867       5.373006


  Species C                   :

  List of atomic basis orbitals and eigenvalues:
    n    l      energy [Ha]    energy [eV]    outer radius [A]
    1    0       -10.041232      -273.2358       1.934409
    2    0        -0.504327       -13.7234       5.271162
    2    1        -0.193750        -5.2722       5.401630


  Species N                   :

  List of atomic basis orbitals and eigenvalues:
    n    l      energy [Ha]    energy [eV]    outer radius [A]
    1    0       -14.129007      -384.4699       1.637919
    2    0        -0.681802       -18.5528       5.168461
    2    1        -0.260543        -7.0897       5.361532


  Species O                   :

  List of atomic basis orbitals and eigenvalues:
    n    l      energy [Ha]    energy [eV]    outer radius [A]
    1    0       -18.898576      -514.2564       1.415765
    2    0        -0.878795       -23.9132       5.048385
    2    1        -0.332075        -9.0362       5.301386

  Assembling full basis from fixed parts.
  | Species H :   atomic orbital   1 s accepted.
  | Species H :    hydro orbital   2 s accepted.
  | Species H :    hydro orbital   1 s accepted.
  | Species H :    hydro orbital   2 s accepted.
  | Species H :    hydro orbital   2 p accepted.
  | Species H :    hydro orbital   2 p accepted.
  | Species H :    hydro orbital   3 d accepted.
  | Species C :   atomic orbital   1 s accepted.
  | Species C :    hydro orbital   2 s accepted.
  | Species C :   atomic orbital   2 s accepted.
  | Species C :    hydro orbital   3 s accepted.
  | Species C :    hydro orbital   3 p accepted.
  | Species C :   atomic orbital   2 p accepted.
  | Species C :    hydro orbital   2 p accepted.
  | Species C :    hydro orbital   3 d accepted.
  | Species C :    hydro orbital   3 d accepted.
  | Species C :    hydro orbital   4 f accepted.
  | Species C :    hydro orbital   5 g accepted.
  | Species N :   atomic orbital   1 s accepted.
  | Species N :    hydro orbital   3 s accepted.
  | Species N :   atomic orbital   2 s accepted.
  | Species N :    hydro orbital   1 s accepted.
  | Species N :    hydro orbital   3 p accepted.
  | Species N :   atomic orbital   2 p accepted.
  | Species N :    hydro orbital   2 p accepted.
  | Species N :    hydro orbital   3 d accepted.
  | Species N :    hydro orbital   3 d accepted.
  | Species N :    hydro orbital   4 f accepted.
  | Species N :    hydro orbital   5 g accepted.
  | Species O :   atomic orbital   1 s accepted.
  | Species O :    hydro orbital   3 s accepted.
  | Species O :   atomic orbital   2 s accepted.
  | Species O :    hydro orbital   1 s accepted.
  | Species O :    hydro orbital   3 p accepted.
  | Species O :   atomic orbital   2 p accepted.
  | Species O :    hydro orbital   2 p accepted.
  | Species O :    hydro orbital   3 d accepted.
  | Species O :    hydro orbital   3 d accepted.
  | Species O :    hydro orbital   4 f accepted.
  | Species O :    hydro orbital   5 g accepted.
 
  Basis size parameters after reduction:
  | Total number of radial functions:       40
  | Total number of basis functions :      840
 
  Testing on-site integration grid accuracy.
  |  Species  Function  <phi|h_atom|phi> (log., in eV)  <phi|h_atom|phi> (rad., in eV)
           1        1                 -6.4869821809                 -6.4870742227
           1        2                 13.5044133542                 13.5041049177
           1        3                 32.7854418792                 32.7779770519
           1        4                 33.7995553101                 33.7152624900 ***
           1        5                 28.8558651799                 28.8558652046
           1        6                 59.6361831893                 59.6362535845
           1        7                 60.2733718049                 60.2733715484
           2        8               -273.2358277112               -273.2358261765
           2        9                -10.7624923123                -10.7625144012
           2       10                 17.4634079027                 17.4634252127
           2       11                 53.0363661832                 53.0366180446
           2       12                 15.0981351967                 15.0981317714
           2       13                  3.8522181899                  3.8522770949
           2       14                 12.1181835661                 12.1206868578
           2       15                 29.4320778347                 29.4320780959
           2       16                 54.8753777694                 54.8752901936
           2       17                 59.3533975461                 59.3533974833
           2       18                 93.4537491195                 93.4537492066
           3       19               -384.4698526889               -384.4698499465
           3       20                 12.5691022037                 12.5690910168
           3       21                -15.7489097511                -15.7489165588
           3       22                 27.0978334940                 27.0985589490
           3       23                 18.5949116966                 18.5949125562
           3       24                  1.2212828291                  1.2212855301
           3       25                 13.4428926797                 13.4434051125
           3       26                 35.9380614500                 35.9380613666
           3       27                 39.9231532098                 39.9231654735
           3       28                 72.9957335806                 72.9957336833
           3       29                116.4231321147                116.4231321431
           4       30               -514.2564144315               -514.2564099626
           4       31                 15.1726678541                 15.1726530877
           4       32                -21.5447785304                -21.5447874973
           4       33                 14.4944558459                 14.4944698284
           4       34                 20.8882174564                 20.8882178906
           4       35                 -2.4850315908                 -2.4850322289
           4       36                 13.8600193195                 13.8599826966
           4       37                 45.8243383616                 45.8243383675
           4       38                 52.1840606465                 52.1840622440
           4       39                 85.4074185510                 85.4074185819
           4       40                142.0983717302                142.0983717339
 * Note: Onsite integrals marked "***" above are less accurate than
 * onsite_accuracy_threshold =    0.03000 eV. Usually, this is harmless.
 * When in doubt, tighten the "radial" and/or "radial_multiplier" flags to check.

  Preparing densities etc. for the partition functions (integrals / Hartree potential).

  Preparations completed.
  max(cpu_time)          :      0.240 s.
  Wall clock time (cpu1) :      0.237 s.
------------------------------------------------------------

------------------------------------------------------------
          Begin self-consistency loop: Initialization.

          Date     :  20170309, Time     :  162541.503
------------------------------------------------------------

  Initializing index lists of integration centers etc. from given atomic structure:
  | Number of centers in hartree potential         :        32
  | Number of centers in hartree multipole         :        32
  | Number of centers in electron density summation:        32
  | Number of centers in basis integrals           :        32
  | Number of centers in integrals                 :        32
  | Number of centers in hamiltonian               :        32
  Using modified Scalapack Eigenvalue solver (ELPA)
  * Using 32 tasks for Scalapack Eigenvalue solver.
  Detailed listing of tasks and assigned k-points:
  (for non-periodic systems, the "k-point" denotes an internal label only)
   Task     0 k-point     1 on eos341
   Task     1 k-point     1 on eos341
   Task     2 k-point     1 on eos341
   Task     3 k-point     1 on eos341
   Task     4 k-point     1 on eos341
   Task     5 k-point     1 on eos341
   Task     6 k-point     1 on eos341
   Task     7 k-point     1 on eos341
   Task     8 k-point     1 on eos341
   Task     9 k-point     1 on eos341
   Task    10 k-point     1 on eos341
   Task    11 k-point     1 on eos341
   Task    12 k-point     1 on eos341
   Task    13 k-point     1 on eos341
   Task    14 k-point     1 on eos341
   Task    15 k-point     1 on eos341
   Task    16 k-point     1 on eos341
   Task    17 k-point     1 on eos341
   Task    18 k-point     1 on eos341
   Task    19 k-point     1 on eos341
   Task    20 k-point     1 on eos341
   Task    21 k-point     1 on eos341
   Task    22 k-point     1 on eos341
   Task    23 k-point     1 on eos341
   Task    24 k-point     1 on eos341
   Task    25 k-point     1 on eos341
   Task    26 k-point     1 on eos341
   Task    27 k-point     1 on eos341
   Task    28 k-point     1 on eos341
   Task    29 k-point     1 on eos341
   Task    30 k-point     1 on eos341
   Task    31 k-point     1 on eos341
  Tasks:    32 split into      8 X      4 BLACS grid
  Calculating blocksize based on n_basis =          840 max_nprow =            8 max_npcol =            4
  Scalapack blocksize set to:           16
  Required Scalapack workspace - INTEGER:            1 REAL:             1
  Partitioning the integration grid into batches with parallel hashing+maxmin method.
  | Number of batches:     4885
  | Maximal batch size:     194
  | Minimal batch size:      11
  | Average batch size:     108.030
  | Standard deviation of batch sizes:      34.874

  Integration load balanced across    32 MPI tasks.
  Work distribution over tasks is as follows:
  Task     0 has      16587 integration points.
  Task     1 has      16474 integration points.
  Task     2 has      16574 integration points.
  Task     3 has      16471 integration points.
  Task     4 has      16424 integration points.
  Task     5 has      16509 integration points.
  Task     6 has      16458 integration points.
  Task     7 has      16427 integration points.
  Task     8 has      16520 integration points.
  Task     9 has      16435 integration points.
  Task    10 has      16602 integration points.
  Task    11 has      16488 integration points.
  Task    12 has      16456 integration points.
  Task    13 has      16425 integration points.
  Task    14 has      16523 integration points.
  Task    15 has      16472 integration points.
  Task    16 has      16516 integration points.
  Task    17 has      16425 integration points.
  Task    18 has      16505 integration points.
  Task    19 has      16586 integration points.
  Task    20 has      16514 integration points.
  Task    21 has      16513 integration points.
  Task    22 has      16522 integration points.
  Task    23 has      16515 integration points.
  Task    24 has      16526 integration points.
  Task    25 has      16429 integration points.
  Task    26 has      16459 integration points.
  Task    27 has      16468 integration points.
  Task    28 has      16481 integration points.
  Task    29 has      16459 integration points.
  Task    30 has      16510 integration points.
  Task    31 has      16455 integration points.
  Initializing partition tables, free-atom densities, potentials, etc. across the integration grid (initialize_grid_storage).
  | initialize_grid_storage: Actual outermost partition radius vs. multipole_radius_free
  | (-- VB: in principle, multipole_radius_free should be larger, hence this output)
  | Species        1: Confinement radius =              6.000000000000000 AA, multipole_radius_free =              6.071692442739658 AA.
  | Species        1: outer_partition_radius set to              6.071692442739658 AA .
  | Species        2: Confinement radius =              6.000000000000000 AA, multipole_radius_free =              6.029870734432609 AA.
  | Species        2: outer_partition_radius set to              6.029870734432609 AA .
  | Species        3: Confinement radius =              6.000000000000000 AA, multipole_radius_free =              6.058726835495003 AA.
  | Species        3: outer_partition_radius set to              6.058726835495003 AA .
  | Species        4: Confinement radius =              6.000000000000000 AA, multipole_radius_free =              6.064445521808699 AA.
  | Species        4: outer_partition_radius set to              6.064445521808699 AA .
  | Original list of interatomic distances with          32 x         32 entries is created.
  | Net number of integration points:   527728
  | of which are non-zero points    :   415157
  Obtaining max. number of non-zero basis functions in each batch (get_n_compute_maxes).
  | Maximal number of non-zero basis functions:      777 in task     0
  | Maximal number of non-zero basis functions:      765 in task     1
  | Maximal number of non-zero basis functions:      775 in task     2
  | Maximal number of non-zero basis functions:      779 in task     3
  | Maximal number of non-zero basis functions:      753 in task     4
  | Maximal number of non-zero basis functions:      765 in task     5
  | Maximal number of non-zero basis functions:      777 in task     6
  | Maximal number of non-zero basis functions:      758 in task     7
  | Maximal number of non-zero basis functions:      771 in task     8
  | Maximal number of non-zero basis functions:      779 in task     9
  | Maximal number of non-zero basis functions:      764 in task    10
  | Maximal number of non-zero basis functions:      751 in task    11
  | Maximal number of non-zero basis functions:      779 in task    12
  | Maximal number of non-zero basis functions:      782 in task    13
  | Maximal number of non-zero basis functions:      775 in task    14
  | Maximal number of non-zero basis functions:      771 in task    15
  | Maximal number of non-zero basis functions:      777 in task    16
  | Maximal number of non-zero basis functions:      782 in task    17
  | Maximal number of non-zero basis functions:      777 in task    18
  | Maximal number of non-zero basis functions:      763 in task    19
  | Maximal number of non-zero basis functions:      788 in task    20
  | Maximal number of non-zero basis functions:      761 in task    21
  | Maximal number of non-zero basis functions:      770 in task    22
  | Maximal number of non-zero basis functions:      747 in task    23
  | Maximal number of non-zero basis functions:      763 in task    24
  | Maximal number of non-zero basis functions:      771 in task    25
  | Maximal number of non-zero basis functions:      759 in task    26
  | Maximal number of non-zero basis functions:      771 in task    27
  | Maximal number of non-zero basis functions:      767 in task    28
  | Maximal number of non-zero basis functions:      766 in task    29
  | Maximal number of non-zero basis functions:      757 in task    30
  | Maximal number of non-zero basis functions:      759 in task    31
  Selecting the method for density update.
  Loop over occupied states selected for charge density update.
  Integrating Hamiltonian matrix: batch-based integration.
  Time summed over all CPUs for integration: real work       21.105 s, elapsed       22.083 s
  Integrating overlap matrix.
  Time summed over all CPUs for integration: real work       12.799 s, elapsed       13.368 s
  Deallocating overlap matrix.

  Updating Kohn-Sham eigenvalues, eigenvectors, occupation numbers, and Fermi level.
  Solving generalized eigenproblem
  Solving real symmetric generalised eigenvalue problem by standard ScaLAPACK.
  Transforming overlap matrix with ScaLAPACK and checking for singularities.
  : Overlap matrix is nonsingular, using Cholesky decomposition
  | Lowest eigenvalue:  0.805317E-04
  Factoring overlap matrix with Cholesky decomposition
  Using Cholesky factor for transformation
  Using 1-stage real ELPA solver
  Determining occupation numbers for Kohn-Sham eigenstates.
  | Chemical potential (Fermi level) in eV                 : -.96133067E+01
  | Error in electron count due to remaining E_F inaccuracy: 0.00000000E+00
  | Maximum occupation number of highest empty state:  0.00E+00

  Writing Kohn-Sham eigenvalues.

  State    Occupation    Eigenvalue [Ha]    Eigenvalue [eV]
      1       2.00000         -18.974301         -516.31701
      2       2.00000         -18.974121         -516.31210
      3       2.00000         -18.972696         -516.27333
      4       2.00000         -14.255370         -387.90836
      5       2.00000         -14.255362         -387.90814
      6       2.00000         -14.255162         -387.90270
      7       2.00000         -10.172049         -276.79553
      8       2.00000         -10.171309         -276.77540
      9       2.00000         -10.170353         -276.74940
     10       2.00000         -10.166842         -276.65383
     11       2.00000         -10.148118         -276.14434
     12       2.00000         -10.147881         -276.13789
     13       2.00000         -10.136173         -275.81930
     14       2.00000         -10.134957         -275.78622
     15       2.00000         -10.134156         -275.76440
     16       2.00000          -1.132826          -30.82576
     17       2.00000          -1.130166          -30.75339
     18       2.00000          -1.124936          -30.61107
     19       2.00000          -1.024852          -27.88764
     20       2.00000          -1.015008          -27.61977
     21       2.00000          -1.004578          -27.33595
     22       2.00000          -0.893339          -24.30900
     23       2.00000          -0.877282          -23.87205
     24       2.00000          -0.842388          -22.92255
     25       2.00000          -0.818845          -22.28192
     26       2.00000          -0.779669          -21.21588
     27       2.00000          -0.746436          -20.31156
     28       2.00000          -0.700847          -19.07102
     29       2.00000          -0.686885          -18.69109
     30       2.00000          -0.679980          -18.50320
     31       2.00000          -0.656269          -17.85799
     32       2.00000          -0.624198          -16.98528
     33       2.00000          -0.608003          -16.54459
     34       2.00000          -0.603205          -16.41405
     35       2.00000          -0.600363          -16.33670
     36       2.00000          -0.575133          -15.65017
     37       2.00000          -0.572599          -15.58122
     38       2.00000          -0.561264          -15.27277
     39       2.00000          -0.555612          -15.11897
     40       2.00000          -0.554372          -15.08522
     41       2.00000          -0.547845          -14.90762
     42       2.00000          -0.541602          -14.73774
     43       2.00000          -0.537603          -14.62893
     44       2.00000          -0.528774          -14.38868
     45       2.00000          -0.519286          -14.13050
     46       2.00000          -0.514578          -14.00238
     47       2.00000          -0.508642          -13.84084
     48       2.00000          -0.507101          -13.79891
     49       2.00000          -0.493857          -13.43853
     50       2.00000          -0.485650          -13.21521
     51       2.00000          -0.478679          -13.02553
     52       2.00000          -0.476355          -12.96229
     53       2.00000          -0.417466          -11.35982
     54       2.00000          -0.406766          -11.06866
     55       2.00000          -0.400849          -10.90767
     56       2.00000          -0.389959          -10.61132
     57       2.00000          -0.385266          -10.48363
     58       2.00000          -0.375899          -10.22874
     59       0.00000          -0.168749           -4.59188
     60       0.00000          -0.161759           -4.40167
     61       0.00000          -0.151208           -4.11457
     62       0.00000          -0.079157           -2.15398
     63       0.00000          -0.059988           -1.63235
     64       0.00000          -0.054499           -1.48301
     65       0.00000          -0.050496           -1.37408
     66       0.00000          -0.047112           -1.28199
     67       0.00000          -0.040543           -1.10322
     68       0.00000          -0.032834           -0.89345
     69       0.00000          -0.026000           -0.70748
     70       0.00000          -0.025146           -0.68425
     71       0.00000          -0.021300           -0.57961
     72       0.00000          -0.012621           -0.34342
     73       0.00000          -0.010199           -0.27752
     74       0.00000          -0.006761           -0.18397
     75       0.00000          -0.001905           -0.05184
     76       0.00000           0.001763            0.04796
     77       0.00000           0.004765            0.12966
     78       0.00000           0.011029            0.30012
     79       0.00000           0.011401            0.31025
     80       0.00000           0.018782            0.51109
     81       0.00000           0.022597            0.61489
     82       0.00000           0.024547            0.66795
     83       0.00000           0.028627            0.77899
     84       0.00000           0.035440            0.96437
     85       0.00000           0.041500            1.12928
     86       0.00000           0.045754            1.24502
     87       0.00000           0.052332            1.42403
     88       0.00000           0.054432            1.48117
     89       0.00000           0.059085            1.60779
     90       0.00000           0.070155            1.90901
     91       0.00000           0.073479            1.99945
     92       0.00000           0.078772            2.14349
     93       0.00000           0.083617            2.27534
     94       0.00000           0.085094            2.31551
     95       0.00000           0.093887            2.55480
     96       0.00000           0.101247            2.75508
     97       0.00000           0.111328            3.02938
     98       0.00000           0.113675            3.09326
     99       0.00000           0.115934            3.15473
    100       0.00000           0.122249            3.32656
    101       0.00000           0.124156            3.37847
    102       0.00000           0.127647            3.47346
    103       0.00000           0.136443            3.71281
    104       0.00000           0.143428            3.90287
    105       0.00000           0.146557            3.98802
    106       0.00000           0.147998            4.02723
    107       0.00000           0.156333            4.25404
    108       0.00000           0.167318            4.55297
    109       0.00000           0.168882            4.59551
    110       0.00000           0.174102            4.73756
    111       0.00000           0.174622            4.75170
    112       0.00000           0.178290            4.85152
    113       0.00000           0.186190            5.06648
    114       0.00000           0.195287            5.31403
    115       0.00000           0.196844            5.35641
    116       0.00000           0.200424            5.45382
    117       0.00000           0.204744            5.57135
    118       0.00000           0.210357            5.72411
    119       0.00000           0.213095            5.79861
    120       0.00000           0.215621            5.86735
    121       0.00000           0.217957            5.93091
    122       0.00000           0.224710            6.11467
    123       0.00000           0.228269            6.21153
    124       0.00000           0.240682            6.54930
    125       0.00000           0.244844            6.66255
    126       0.00000           0.248206            6.75402
    127       0.00000           0.257650            7.01100
    128       0.00000           0.262297            7.13746
    129       0.00000           0.267627            7.28251

  Highest occupied state (VBM) at    -10.22873557 eV
  | Occupation number:      2.00000000

  Lowest unoccupied state (CBM) at    -4.59188373 eV
  | Occupation number:      0.00000000

  Overall HOMO-LUMO gap:      5.63685184 eV.
  Calculating total energy contributions from superposition of free atom densities.

  Total energy components:
  | Sum of eigenvalues            :        -437.90816766 Ha      -11916.08752590 eV
  | XC energy correction          :         -98.82660078 Ha       -2689.20863263 eV
  | XC potential correction       :         127.02995337 Ha        3456.66090408 eV
  | Free-atom electrostatic energy:        -333.58984941 Ha       -9077.44165768 eV
  | Hartree energy correction     :           0.00000000 Ha           0.00000000 eV
  | MBD@rsSCS energy              :           0.00000000 Ha           0.00000000 eV
  | Entropy correction            :          -0.00000000 Ha          -0.00000000 eV
  | ---------------------------
  | Total energy                  :        -743.29466449 Ha      -20226.07691213 eV
  | Total energy, T -> 0          :        -743.29466449 Ha      -20226.07691213 eV  <-- do not rely on this value for anything but (periodic) metals
  | Electronic free energy        :        -743.29466449 Ha      -20226.07691213 eV

  Derived energy quantities:
  | Kinetic energy                :         735.16885138 Ha       20004.96228740 eV
  | Electrostatic energy          :       -1379.63691509 Ha      -37541.83056690 eV
  | Energy correction for multipole
  | error in Hartree potential    :           0.00000000 Ha           0.00000000 eV
  | Sum of eigenvalues per atom                           :        -372.37773518 eV
  | Total energy (T->0) per atom                          :        -632.06490350 eV  <-- do not rely on this value for anything but (periodic) metals
  | Electronic free energy per atom                       :        -632.06490350 eV
  Initialize hartree_potential_storage
  Max. number of atoms included in rho_multipole:           32

  End scf initialization - timings             :  max(cpu_time)    wall_clock(cpu1)
  | Time for scf. initialization               :        1.900 s           1.899 s
  | Boundary condition initialization          :        0.000 s           0.000 s
  | Integration                                :        1.132 s           1.129 s
  | Solution of K.-S. eqns.                    :        0.076 s           0.075 s
  | Grid partitioning                          :        0.344 s           0.337 s
  | Preloading free-atom quantities on grid    :        0.028 s           0.028 s
  | Free-atom superposition energy             :        0.040 s           0.039 s
  | Total energy evaluation                    :        0.004 s           0.000 s
------------------------------------------------------------

------------------------------------------------------------
          Begin self-consistency iteration #    1

  Date     :  20170309, Time     :  162543.403
------------------------------------------------------------
  Evaluating new KS density.
  Integration grid: deviation in total charge (<rho> - N_e) =   2.842171E-14
  Pulay mixing of updated and previous charge densities.

  Evaluating partitioned Hartree potential by multipole expansion.
  | Analytical far-field extrapolation by fixed multipoles:
  | Hartree multipole sum: apparent total charge =   0.109230E-04
  Summing up the Hartree potential.
  Time summed over all CPUs for potential: real work        9.554 s, elapsed        9.747 s
  | RMS charge density error from multipole expansion :   0.106755E-01

  Integrating Hamiltonian matrix: batch-based integration.
  Time summed over all CPUs for integration: real work       21.211 s, elapsed       22.389 s

  Updating Kohn-Sham eigenvalues, eigenvectors, occupation numbers, and Fermi level.
  Solving generalized eigenproblem
  Solving real symmetric generalised eigenvalue problem by standard ScaLAPACK.
  Using Cholesky factor for transformation
  Using 2-stage real ELPA solver
  K-Point:    1, Trafo times: 1-stage=     0.021 s, 2-stage=     0.019 s ==> Using 2-stage solver
  Determining occupation numbers for Kohn-Sham eigenstates.
  | Chemical potential (Fermi level) in eV                 : -.44363802E+01
  | Error in electron count due to remaining E_F inaccuracy: 0.00000000E+00
  | Maximum occupation number of highest empty state:  0.00E+00

  Writing Kohn-Sham eigenvalues.

  State    Occupation    Eigenvalue [Ha]    Eigenvalue [eV]
      1       2.00000         -18.649018         -507.46559
      2       2.00000         -18.617835         -506.61708
      3       2.00000         -18.604337         -506.24978
      4       2.00000         -14.011638         -381.27606
      5       2.00000         -13.988947         -380.65861
      6       2.00000         -13.980208         -380.42082
      7       2.00000         -10.072805         -274.09496
      8       2.00000         -10.051248         -273.50838
      9       2.00000         -10.043584         -273.29982
     10       2.00000          -9.967836         -271.23862
     11       2.00000          -9.952838         -270.83049
     12       2.00000          -9.874012         -268.68553
     13       2.00000          -9.863298         -268.39400
     14       2.00000          -9.838196         -267.71093
     15       2.00000          -9.824158         -267.32894
     16       2.00000          -0.981254          -26.70127
     17       2.00000          -0.958546          -26.08336
     18       2.00000          -0.948305          -25.80468
     19       2.00000          -0.883110          -24.03063
     20       2.00000          -0.869379          -23.65701
     21       2.00000          -0.846158          -23.02513
     22       2.00000          -0.752933          -20.48835
     23       2.00000          -0.722321          -19.65535
     24       2.00000          -0.698226          -18.99970
     25       2.00000          -0.662191          -18.01913
     26       2.00000          -0.632669          -17.21580
     27       2.00000          -0.602485          -16.39445
     28       2.00000          -0.581742          -15.83001
     29       2.00000          -0.556335          -15.13864
     30       2.00000          -0.543824          -14.79820
     31       2.00000          -0.527114          -14.34350
     32       2.00000          -0.488853          -13.30236
     33       2.00000          -0.479236          -13.04067
     34       2.00000          -0.467834          -12.73041
     35       2.00000          -0.454780          -12.37520
     36       2.00000          -0.440508          -11.98682
     37       2.00000          -0.426307          -11.60040
     38       2.00000          -0.414043          -11.26667
     39       2.00000          -0.410074          -11.15869
     40       2.00000          -0.404221          -10.99942
     41       2.00000          -0.389544          -10.60004
     42       2.00000          -0.387966          -10.55708
     43       2.00000          -0.384243          -10.45580
     44       2.00000          -0.379129          -10.31662
     45       2.00000          -0.372525          -10.13693
     46       2.00000          -0.368725          -10.03351
     47       2.00000          -0.360738           -9.81617
     48       2.00000          -0.352762           -9.59915
     49       2.00000          -0.351684           -9.56982
     50       2.00000          -0.344308           -9.36909
     51       2.00000          -0.338687           -9.21615
     52       2.00000          -0.325399           -8.85457
     53       2.00000          -0.264067           -7.18563
     54       2.00000          -0.241666           -6.57607
     55       2.00000          -0.231225           -6.29196
     56       2.00000          -0.223353           -6.07775
     57       2.00000          -0.212040           -5.76990
     58       2.00000          -0.199116           -5.41822
     59       0.00000          -0.066836           -1.81870
     60       0.00000          -0.045265           -1.23172
     61       0.00000          -0.040503           -1.10214
     62       0.00000          -0.031336           -0.85268
     63       0.00000          -0.017352           -0.47216
     64       0.00000          -0.014853           -0.40416
     65       0.00000          -0.000966           -0.02628
     66       0.00000           0.002711            0.07378
     67       0.00000           0.011655            0.31715
     68       0.00000           0.021087            0.57382
     69       0.00000           0.026107            0.71040
     70       0.00000           0.028762            0.78265
     71       0.00000           0.034112            0.92823
     72       0.00000           0.038459            1.04652
     73       0.00000           0.041441            1.12768
     74       0.00000           0.046964            1.27796
     75       0.00000           0.051013            1.38813
     76       0.00000           0.060801            1.65448
     77       0.00000           0.070063            1.90650
     78       0.00000           0.074781            2.03489
     79       0.00000           0.084966            2.31203
     80       0.00000           0.086367            2.35016
     81       0.00000           0.090944            2.47470
     82       0.00000           0.095931            2.61041
     83       0.00000           0.098126            2.67015
     84       0.00000           0.103208            2.80844
     85       0.00000           0.109127            2.96949
     86       0.00000           0.111872            3.04418
     87       0.00000           0.115871            3.15301
     88       0.00000           0.123027            3.34773
     89       0.00000           0.131890            3.58892
     90       0.00000           0.136272            3.70816
     91       0.00000           0.139435            3.79422
     92       0.00000           0.147121            4.00336
     93       0.00000           0.151857            4.13224
     94       0.00000           0.154551            4.20554
     95       0.00000           0.161477            4.39402
     96       0.00000           0.165955            4.51586
     97       0.00000           0.171960            4.67928
     98       0.00000           0.178117            4.84680
     99       0.00000           0.179652            4.88858
    100       0.00000           0.185548            5.04903
    101       0.00000           0.192763            5.24535
    102       0.00000           0.199837            5.43785
    103       0.00000           0.202625            5.51370
    104       0.00000           0.208264            5.66715
    105       0.00000           0.214444            5.83531
    106       0.00000           0.216592            5.89376
    107       0.00000           0.222002            6.04098
    108       0.00000           0.225568            6.13802
    109       0.00000           0.228303            6.21245
    110       0.00000           0.232385            6.32352
    111       0.00000           0.239361            6.51336
    112       0.00000           0.243928            6.63762
    113       0.00000           0.250731            6.82272
    114       0.00000           0.254074            6.91372
    115       0.00000           0.257464            7.00595
    116       0.00000           0.262454            7.14173
    117       0.00000           0.266235            7.24463
    118       0.00000           0.273205            7.43428
    119       0.00000           0.278000            7.56476
    120       0.00000           0.284297            7.73611
    121       0.00000           0.289668            7.88227
    122       0.00000           0.294501            8.01377
    123       0.00000           0.297287            8.08959
    124       0.00000           0.304557            8.28741
    125       0.00000           0.312557            8.50510
    126       0.00000           0.321262            8.74197
    127       0.00000           0.326076            8.87297
    128       0.00000           0.340442            9.26388
    129       0.00000           0.342738            9.32637

  Highest occupied state (VBM) at     -5.41822379 eV
  | Occupation number:      2.00000000

  Lowest unoccupied state (CBM) at    -1.81869863 eV
  | Occupation number:      0.00000000

  Overall HOMO-LUMO gap:      3.59952516 eV.

  Total energy components:
  | Sum of eigenvalues            :        -417.63916195 Ha      -11364.53981817 eV
  | XC energy correction          :        -100.75551999 Ha       -2741.69719488 eV
  | XC potential correction       :         129.53178203 Ha        3524.73912570 eV
  | Free-atom electrostatic energy:        -333.58984941 Ha       -9077.44165768 eV
  | Hartree energy correction     :         -20.27379302 Ha        -551.67797712 eV
  | MBD@rsSCS energy              :           0.00000000 Ha           0.00000000 eV
  | Entropy correction            :          -0.00000000 Ha          -0.00000000 eV
  | ---------------------------
  | Total energy                  :        -742.72654235 Ha      -20210.61752215 eV
  | Total energy, T -> 0          :        -742.72654235 Ha      -20210.61752215 eV  <-- do not rely on this value for anything but (periodic) metals
  | Electronic free energy        :        -742.72654235 Ha      -20210.61752215 eV

  Derived energy quantities:
  | Kinetic energy                :         744.01702952 Ha       20245.73346484 eV
  | Electrostatic energy          :       -1385.98805188 Ha      -37714.65379211 eV
  | Energy correction for multipole
  | error in Hartree potential    :          -0.04125130 Ha          -1.12250509 eV
  | Sum of eigenvalues per atom                           :        -355.14186932 eV
  | Total energy (T->0) per atom                          :        -631.58179757 eV  <-- do not rely on this value for anything but (periodic) metals
  | Electronic free energy per atom                       :        -631.58179757 eV

  Self-consistency convergence accuracy:
  | Change of charge density      :  0.9007E+00
  | Change of sum of eigenvalues  :  0.5515E+03 eV
  | Change of total energy        :  0.1546E+02 eV

  End self-consistency iteration #     1       :  max(cpu_time)    wall_clock(cpu1)
  | Time for this iteration                    :        1.540 s           1.538 s
[...]
   Multipole                     : -0.368518E+00  0.287979E+00 -0.388607E+00
   Pulay + GGA                   : -0.815684E+01  0.650974E+01 -0.811199E+01
   MBD@rsSCS                     : -0.170479E-01  0.677900E-02 -0.109173E-01
   ----------------------------------------------------------------
   Total forces(  20)            : -0.141570E-01  0.212715E-02 -0.703930E-02
  atom #   21
   Hellmann-Feynman              : -0.505951E-01  0.824141E-02  0.214809E-01
   Ionic forces                  :  0.000000E+00  0.000000E+00  0.000000E+00
   Multipole                     :  0.282996E-01 -0.250775E-01  0.191081E-01
   Pulay + GGA                   :  0.165885E-01  0.254267E-01 -0.463736E-01
   MBD@rsSCS                     : -0.648524E-02 -0.675616E-02  0.128457E-02
   ----------------------------------------------------------------
   Total forces(  21)            : -0.121922E-01  0.183444E-02 -0.449999E-02
  atom #   22
   Hellmann-Feynman              :  0.430185E-02 -0.761482E-02 -0.612678E-01
   Ionic forces                  :  0.000000E+00  0.000000E+00  0.000000E+00
   Multipole                     : -0.180082E-01 -0.201259E-02 -0.661521E-02
   Pulay + GGA                   :  0.418915E-02  0.658462E-02  0.684128E-01
   MBD@rsSCS                     : -0.446274E-02  0.153860E-02 -0.479181E-02
   ----------------------------------------------------------------
   Total forces(  22)            : -0.139799E-01 -0.150419E-02 -0.426203E-02
  atom #   23
   Hellmann-Feynman              : -0.829315E+00 -0.872395E+00 -0.456881E-01
   Ionic forces                  :  0.000000E+00  0.000000E+00  0.000000E+00
   Multipole                     :  0.188529E+00  0.283995E+00  0.122505E+00
   Pulay + GGA                   :  0.645055E+00  0.598564E+00 -0.652077E-01
   MBD@rsSCS                     :  0.363814E-02  0.169310E-01 -0.542163E-02
   ----------------------------------------------------------------
   Total forces(  23)            :  0.790766E-02  0.270952E-01  0.618746E-02
  atom #   24
   Hellmann-Feynman              :  0.430057E-01  0.585571E-01  0.212780E-01
   Ionic forces                  :  0.000000E+00  0.000000E+00  0.000000E+00
   Multipole                     :  0.684545E-02 -0.310809E-01 -0.239151E-01
   Pulay + GGA                   : -0.497695E-01 -0.138887E-01  0.718368E-02
   MBD@rsSCS                     :  0.486722E-02  0.137690E-01 -0.364736E-03
   ----------------------------------------------------------------
   Total forces(  24)            :  0.494893E-02  0.273565E-01  0.418186E-02
  atom #   25
   Hellmann-Feynman              :  0.312774E-01  0.620158E-01  0.120219E-01
   Ionic forces                  :  0.000000E+00  0.000000E+00  0.000000E+00
   Multipole                     : -0.348094E-01 -0.316390E-02 -0.215064E-01
   Pulay + GGA                   :  0.868186E-02 -0.591155E-01  0.142640E-01
   MBD@rsSCS                     :  0.712885E-02  0.840017E-02  0.235530E-03
   ----------------------------------------------------------------
   Total forces(  25)            :  0.122786E-01  0.813662E-02  0.501495E-02
  atom #   26
   Hellmann-Feynman              :  0.241026E-01  0.845142E-02  0.450382E-01
   Ionic forces                  :  0.000000E+00  0.000000E+00  0.000000E+00
   Multipole                     : -0.121120E-01 -0.122711E-01  0.240694E-01
   Pulay + GGA                   : -0.856755E-02 -0.440728E-02 -0.664277E-01
   MBD@rsSCS                     :  0.700750E-02  0.150153E-01 -0.569803E-02
   ----------------------------------------------------------------
   Total forces(  26)            :  0.104305E-01  0.678825E-02 -0.301805E-02
  atom #   27
   Hellmann-Feynman              : -0.738537E+00  0.502138E+00  0.540390E+00
   Ionic forces                  :  0.000000E+00  0.000000E+00  0.000000E+00
   Multipole                     : -0.671924E-01 -0.372527E-01  0.282223E+00
   Pulay + GGA                   :  0.811991E+00 -0.464586E+00 -0.823548E+00
   MBD@rsSCS                     : -0.295979E-01  0.415478E-02  0.101171E-01
   ----------------------------------------------------------------
   Total forces(  27)            : -0.233366E-01  0.445396E-02  0.918200E-02
  atom #   28
   Hellmann-Feynman              :  0.220067E+01 -0.325934E+00 -0.657161E+00
   Ionic forces                  :  0.000000E+00  0.000000E+00  0.000000E+00
   Multipole                     : -0.129737E+00  0.703471E-01  0.166002E-01
   Pulay + GGA                   : -0.205488E+01  0.249325E+00  0.640154E+00
   MBD@rsSCS                     : -0.102830E-01  0.335762E-02  0.656535E-02
   ----------------------------------------------------------------
   Total forces(  28)            :  0.576699E-02 -0.290390E-02  0.615856E-02
  atom #   29
   Hellmann-Feynman              :  0.387270E-01 -0.366816E-02 -0.352891E-02
   Ionic forces                  :  0.000000E+00  0.000000E+00  0.000000E+00
   Multipole                     :  0.197983E-01 -0.120593E-01  0.175736E-01
   Pulay + GGA                   : -0.496716E-01  0.161178E-01 -0.185138E-01
   MBD@rsSCS                     : -0.575946E-02 -0.773318E-03  0.497107E-02
   ----------------------------------------------------------------
   Total forces(  29)            :  0.309433E-02 -0.382990E-03  0.501976E-03
  atom #   30
   Hellmann-Feynman              : -0.424534E-01 -0.925027E-02  0.348420E-01
   Ionic forces                  :  0.000000E+00  0.000000E+00  0.000000E+00
   Multipole                     :  0.238415E-01 -0.335597E-01  0.528176E-02
   Pulay + GGA                   :  0.222238E-01  0.429014E-01 -0.449650E-01
   MBD@rsSCS                     : -0.633584E-02  0.108868E-02  0.297758E-02
   ----------------------------------------------------------------
   Total forces(  30)            : -0.272395E-02  0.118015E-02 -0.186367E-02
  atom #   31
   Hellmann-Feynman              : -0.324627E-01  0.251205E-01  0.442719E-01
   Ionic forces                  :  0.000000E+00  0.000000E+00  0.000000E+00
   Multipole                     :  0.153714E-01  0.301964E-01  0.288044E-02
   Pulay + GGA                   :  0.156643E-01 -0.531043E-01 -0.480601E-01
   MBD@rsSCS                     : -0.602422E-02  0.124917E-02  0.499003E-02
   ----------------------------------------------------------------
   Total forces(  31)            : -0.745120E-02  0.346173E-02  0.408223E-02
  atom #   32
   Hellmann-Feynman              : -0.692502E-01 -0.343538E-02  0.210142E-01
   Ionic forces                  :  0.000000E+00  0.000000E+00  0.000000E+00
   Multipole                     :  0.843862E-02 -0.854454E-02 -0.440775E-01
   Pulay + GGA                   :  0.613750E-01  0.989704E-02  0.259823E-01
   MBD@rsSCS                     : -0.727175E-02  0.146516E-03  0.142994E-02
   ----------------------------------------------------------------
   Total forces(  32)            : -0.670834E-02 -0.193637E-02  0.434895E-02

  Removing unitary transformations (pure translations, rotations) from forces on atoms.
  Atomic forces before filtering:
  | Net force on center of mass :   0.451706E-03  0.353536E-03 -0.268187E-03 eV/A
  | Net torque on center of mass:  -0.447944E-03  0.522343E-02 -0.279480E-03 eV
  Atomic forces after filtering:
  | Net force on center of mass :  -0.181194E-16  0.662054E-17  0.905969E-17 eV/A
  | Net torque on center of mass:   0.468124E-16  0.560550E-16  0.604804E-16 eV

  Energy and forces in a compact form:
  | Total energy uncorrected      :         -0.202093145780383E+05 eV
  | Total energy corrected        :         -0.202093145780389E+05 eV  <-- do not rely on this value for anything but (periodic) metals
  | Electronic free energy        :         -0.202093145780396E+05 eV
  Total atomic forces (unitary forces cleaned) [eV/Ang]:
  |   1         -0.518232186745693E-02          0.171697067659056E-02         -0.272020226332312E-02
  |   2          0.128706598944991E-01         -0.256102375487588E-03          0.403246988042958E-01
  |   3         -0.176753620943588E-01         -0.622904868171539E-02          0.126080102295956E-01
  |   4          0.527127121127793E-02          0.311246611203436E-02          0.205710814513277E-02
  |   5          0.452356454660824E-02          0.293050922609161E-03          0.580470950813105E-02
  |   6         -0.124828636773774E-03          0.402302443411236E-02          0.108707978838177E-01
  |   7          0.110214857860068E-01         -0.241781639115618E-02          0.147131335905509E-01
  |   8          0.417787206808215E-02         -0.202466745956904E-02         -0.627204370473486E-02
  |   9          0.144533244206847E-02         -0.177970839026123E-01         -0.100599816405021E-01
  |  10          0.103751805841003E-01         -0.153464938822353E-02         -0.124401148461114E-01
  |  11         -0.443138931522598E-02          0.577996832619203E-02          0.916063421251752E-02
  |  12         -0.118528340643418E-03         -0.544702730704713E-02         -0.468617523283168E-02
  |  13         -0.639683964430243E-02         -0.532870260356021E-02          0.145062281991858E-02
  |  14          0.179490850934127E-01         -0.176610567600863E-01         -0.974718725185237E-02
  |  15          0.937436570660062E-02         -0.997564874469477E-02         -0.797531490129333E-02
  |  16          0.102941990110080E-01         -0.136436033059672E-01         -0.286295653613181E-02
  |  17         -0.164802960900574E-01         -0.363905323741920E-02         -0.464074532876003E-01
  |  18         -0.717879338094069E-02          0.729015570899987E-02          0.239782810856423E-02
  |  19          0.668780597589330E-02         -0.118143470932374E-01         -0.156395776099843E-01
  |  20         -0.142136110868734E-01          0.210121763624942E-02         -0.698151308398763E-02
  |  21         -0.122183901785542E-01          0.182030271646657E-02         -0.446686875959376E-02
  |  22         -0.140617281672295E-01         -0.154672207861620E-02         -0.424799804496753E-02
  |  23          0.786698425702021E-02          0.270678578318245E-01          0.616109566441049E-02
  |  24          0.489687617534213E-02          0.273212240353775E-01          0.413153156872524E-02
  |  25          0.122304448031453E-01          0.810570026426920E-02          0.498835877092463E-02
  |  26          0.104180940658432E-01          0.677395557309377E-02         -0.304777239949241E-02
  |  27         -0.233452019876280E-01          0.445074265390408E-02          0.923920748237532E-02
  |  28          0.577428961693129E-02         -0.289635729439836E-02          0.624625656870065E-02
  |  29          0.309959821393258E-02         -0.381004879405824E-03          0.546504136052286E-03
  |  30         -0.270124822457532E-02          0.119672039647890E-02         -0.175965587857636E-02
  |  31         -0.742713060607291E-02          0.347606704297753E-02          0.415912075777172E-02
  |  32         -0.672143983107972E-02         -0.193653282798309E-02          0.445519718949837E-02

  ------------------------------------ 
  Start decomposition of the XC Energy 
  ------------------------------------ 
  Hartree-Fock part   :          0.000000000 Ha              0.000000000 eV
  ------------------------------------ 
  X Energy            :        -96.992754175 Ha          -2639.307127558 eV
  C Energy GGA        :         -3.870560691 Ha           -105.323315200 eV
  Total XC Energy     :       -100.863314866 Ha          -2744.630442758 eV
  LDA X and C from self-consistent density 
  X Energy LDA        :        -88.012525958 Ha          -2394.942684664 eV
  C Energy LDA        :         -7.532732426 Ha           -204.976078380 eV
  ------------------------------------ 
  End decomposition of the XC Energy 
  ------------------------------------ 
   
  ESP charge fitting starts.
  | Calculation :  00000001  of  00000001
  | Full density
  Computing multipole expansion for total density.
  Generating points for esp charges.
  Partitioning the integration grid into batches with parallel hashing+maxmin method.
  | Number of batches:     3859
  | Maximal batch size:     200
  | Minimal batch size:      54
  | Average batch size:     126.327
  | Standard deviation of batch sizes:      17.546

  Integration load balanced across    32 MPI tasks.
  Work distribution over tasks is as follows:
  Initializing partition tables, free-atom densities, potentials, etc. across the integration grid (initialize_grid_storage).
  | Original list of interatomic distances with          32 x         32 entries is created.
  | Net number of integration points:   487495
  | of which are non-zero points    :   487495
  Summing up potential from multipole expanded  density.
  Summing up the Hartree potential.
  Time summed over all CPUs for potential: real work        6.351 s, elapsed        6.607 s
  Fitting esp charges to potential.
  |
  | ESP charges fitted to the electrostatic potential :
  |
  | Atom         1: C, ESP charge:      0.67576333
  |
  | Atom         2: C, ESP charge:     -0.57193332
  |
  | Atom         3: O, ESP charge:      0.44834325
  |
  | Atom         4: H, ESP charge:     -0.21358360
  |
  | Atom         5: H, ESP charge:     -0.20638090
  |
  | Atom         6: H, ESP charge:     -0.16753587
  |
  | Atom         7: N, ESP charge:      0.36540812
  |
  | Atom         8: C, ESP charge:      0.11837376
  |
  | Atom         9: C, ESP charge:     -0.64678795
  |
  | Atom        10: O, ESP charge:      0.51896656
  |
  | Atom        11: H, ESP charge:     -0.32048905
  |
  | Atom        12: H, ESP charge:     -0.20966361
  |
  | Atom        13: C, ESP charge:      0.61166183
  |
  | Atom        14: H, ESP charge:     -0.18838488
  |
  | Atom        15: H, ESP charge:     -0.17769323
  |
  | Atom        16: H, ESP charge:     -0.19690649
  |
  | Atom        17: N, ESP charge:      0.41676209
  |
  | Atom        18: C, ESP charge:     -0.22750740
  |
  | Atom        19: C, ESP charge:     -0.24639675
  |
  | Atom        20: O, ESP charge:      0.49241402
  |
  | Atom        21: H, ESP charge:     -0.04436645
  |
  | Atom        22: H, ESP charge:     -0.08268403
  |
  | Atom        23: C, ESP charge:      0.54921033
  |
  | Atom        24: H, ESP charge:     -0.17364082
  |
  | Atom        25: H, ESP charge:     -0.16802268
  |
  | Atom        26: H, ESP charge:     -0.13057661
  |
  | Atom        27: N, ESP charge:     -0.20708915
  |
  | Atom        28: C, ESP charge:      0.39722110
  |
  | Atom        29: H, ESP charge:     -0.01689239
  |
  | Atom        30: H, ESP charge:     -0.13108405
  |
  | Atom        31: H, ESP charge:     -0.11979226
  |
  | Atom        32: H, ESP charge:     -0.14671289

  RRMS:       0.00204937

  Done.

------------------------------------------------------------------------------
  Final output of selected total energy values:

  The following output summarizes some interesting total energy values
  at the end of a run (AFTER all relaxation, molecular dynamics, etc.).

  | Total energy of the DFT / Hartree-Fock s.c.f. calculation      :         -20209.314578038 eV
  | Final zero-broadening corrected energy (caution - metals only) :         -20209.314578039 eV
  | For reference only, the value of 1 Hartree used in FHI-aims is :             27.211384500 eV

  Before relying on these values, please be sure to understand exactly which
  total energy value is referred to by a given number. Different objects may
  all carry the same name 'total energy'. Definitions:

  Total energy of the DFT / Hartree-Fock s.c.f. calculation:
  | Note that this energy does not include ANY quantities calculated after the
  | s.c.f. cycle, in particular not ANY RPA, MP2, etc. many-body perturbation terms.

  Final zero-broadening corrected energy:
  | For metallic systems only, a broadening of the occupation numbers at the Fermi
  | level can be extrapolated back to zero broadening by an electron-gas inspired
  | formula. For all systems that are not real metals, this value can be
  | meaningless and should be avoided.

------------------------------------------------------------------------------
  Methods described in the following list of references were used in this FHI-aims run.
  If you publish the results, please make sure to cite these reference if they apply.
  FHI-aims is an academic code, and for our developers (often, Ph.D. students
  and postdocs), scientific credit in the community is essential.
  Thank you for helping us!

  For any use of FHI-aims, please cite:

    Volker Blum, Ralf Gehrke, Felix Hanke, Paula Havu, Ville Havu,
    Xinguo Ren, Karsten Reuter, and Matthias Scheffler
    'Ab initio molecular simulations with numeric atom-centered orbitals'
    Computer Physics Communications 180, 2175-2196 (2009)
    http://dx.doi.org/10.1016/j.cpc.2009.06.022


  The scalable eigensolver library ELPA was used in your run.
  ELPA is essential especially for large systems on hundreds or thousands of CPUs.
  For ELPA, please cite:

    Andreas Marek, Volker Blum, Rainer Johanni, Ville Havu, Bruno Lang,
    Thomas Auckenthaler, Alexander Heinecke, Hans-Joachim Bungartz, and Hermann Lederer,
    'The ELPA Library - Scalable Parallel Eigenvalue Solutions
    for Electronic Structure Theory and Computational Science'
    The Journal of Physics: Condensed Matter 26, 213201 (2014).
    http://dx.doi.org/10.1088/0953-8984/26/21/213201


  For ELPA's efficient two-stage tridiagonalization used in your run, please cite:

    T. Auckenthaler, V. Blum, H.-J. Bungartz, T. Huckle, R. Johanni, L. Kraemer,
    B. Lang, H. Lederer, and P. R. Willems,
    'Parallel solution of partial symmetric eigenvalue problems'
    'from  electronic structure calculations'
    Parallel Computing 37, 783-794 (2011).
    http://dx.doi.org/10.1016/j.parco.2011.05.002


  For the real-space grid partitioning and parallelization used in this calculation, please cite:

    Ville Havu, Volker Blum, Paula Havu, and Matthias Scheffler,
    'Efficient O(N) integration for all-electron electronic structure calculation'
    'using numerically tabulated basis functions'
    Journal of Computational Physics 228, 8367-8379 (2009).
    http://dx.doi.org/10.1016/j.jcp.2009.08.008

  Of course, there are many other important community references, e.g., those cited in the
  above references. Our list is limited to references that describe implementations in the
  FHI-aims code. The reason is purely practical (length of this list) - please credit others as well.

------------------------------------------------------------
          Leaving FHI-aims.
          Date     :  20170309, Time     :  162614.049

          Computational steps:
          | Number of self-consistency cycles          :           14

          Detailed time accounting                     :  max(cpu_time)    wall_clock(cpu1)
          | Total time                                 :       33.450 s          33.671 s
          | Preparation time                           :        0.240 s           0.237 s
          | Grid partitioning                          :        0.344 s           0.337 s
          | Preloading free-atom quantities on grid    :        0.028 s           0.028 s
          | Free-atom superposition energy             :        0.040 s           0.039 s
          | Total time for integrations                :       11.089 s          11.068 s
          | Total time for solution of K.-S. equations :        0.528 s           0.494 s
          | Total time for density & force components  :        9.773 s           9.746 s
          | Total time for mixing                      :        0.124 s           0.105 s
          | Total time for Hartree multipole update    :        0.076 s           0.070 s
          | Total time for Hartree multipole sum       :        6.356 s           6.326 s
          | Total time for total energy evaluation     :        0.028 s           0.017 s

          Have a nice day.
------------------------------------------------------------
