  MPI-parallelism will be employed.
------------------------------------------------------------
          Invoking FHI-aims ...
          Version 150427
          Git rev.: 9dd23e0 BL: Update Version stamp
          Compiled on 2015/11/03 at 22:05:20 on host eos03.

          When using FHI-aims, please cite the following reference:

          Volker Blum, Ralf Gehrke, Felix Hanke, Paula Havu,
          Ville Havu, Xinguo Ren, Karsten Reuter, and Matthias Scheffler,
          'Ab Initio Molecular Simulations with Numeric Atom-Centered Orbitals: FHI-aims',
          Computer Physics Communications 180, 2175-2196 (2009)

          For any questions about FHI-aims, please visit the aimsclub website
          with its forums and wiki. Contributions to both the forums and the
          wiki are warmly encouraged - they are for you, and everyone is welcome there.

------------------------------------------------------------

  Date     :  20170309, Time     :  182340.454
  Time zero on CPU 1             :   0.372023000000000E+00  s.
  Internal wall clock time zero  :           258315820.454  s.

  Using       32 parallel tasks.
  Task        0 on host eos306 reporting.
  Task        1 on host eos306 reporting.
  Task        2 on host eos306 reporting.
  Task        3 on host eos306 reporting.
  Task        4 on host eos306 reporting.
  Task        5 on host eos306 reporting.
  Task        6 on host eos306 reporting.
  Task        7 on host eos306 reporting.
  Task        8 on host eos306 reporting.
  Task        9 on host eos306 reporting.
  Task       10 on host eos306 reporting.
  Task       11 on host eos306 reporting.
  Task       12 on host eos306 reporting.
  Task       13 on host eos306 reporting.
  Task       14 on host eos306 reporting.
  Task       15 on host eos306 reporting.
  Task       16 on host eos306 reporting.
  Task       17 on host eos306 reporting.
  Task       18 on host eos306 reporting.
  Task       19 on host eos306 reporting.
  Task       20 on host eos306 reporting.
  Task       21 on host eos306 reporting.
  Task       22 on host eos306 reporting.
  Task       23 on host eos306 reporting.
  Task       24 on host eos306 reporting.
  Task       25 on host eos306 reporting.
  Task       26 on host eos306 reporting.
  Task       27 on host eos306 reporting.
  Task       28 on host eos306 reporting.
  Task       29 on host eos306 reporting.
  Task       30 on host eos306 reporting.
  Task       31 on host eos306 reporting.

  Performing system and environment tests:
  | Environment variable OMP_NUM_THREADS correctly set to 1.
  | Stacksize not measured: no C compiler
  | Checking for scalapack...
  | Testing pdtran()...
  | All pdtran() tests passed.

  Obtaining array dimensions for all initial allocations:
  
  -----------------------------------------------------------------------
  Parsing control.in (first pass over file, find array dimensions only).
  The contents of control.in will be repeated verbatim below
  unless switched off by setting 'verbatim_writeout .false.' .
  in the first line of control.in .
  -----------------------------------------------------------------------
  
  #########################################################################################
  #
  # Input for System
  #
  #########################################################################################
  #
  #
  #  Physical model
  #
    xc                 pbe
    many_body_dispersion
    spin               none
    charge             0.
  #
  #  SCF convergence
  #
    occupation_type    gaussian 0.05
    mixer              pulay
      n_max_pulay        10
      charge_mix_param   0.5
    sc_accuracy_rho    1E-4
    sc_accuracy_eev    1E-2
    sc_accuracy_etot   1E-5
    sc_accuracy_forces 1E-4
    sc_iter_limit      1000
  #
  #  ESP charge
  #
    output esp
    esp equal_grid_n 80 80 80
  #
  #
  ################################################################################
  #
  #  FHI-aims code project
  # Volker Blum, Fritz Haber Institute Berlin, 2009
  #
  #  Suggested "tight" defaults for H atom (to be pasted into control.in file)
  #
  ################################################################################
    species        H
  #     global species definitions
      nucleus             1
      mass                1.00794
  #
      l_hartree           6
  #
      cut_pot             4.0  2.0  1.0
      basis_dep_cutoff    1e-4
  #
      radial_base         24 7.0
      radial_multiplier   2
      angular_grids       specified
        division   0.1930   50
        division   0.3175  110
        division   0.4293  194
        division   0.5066  302
        division   0.5626  434
  #      division   0.5922  590
  #      division   0.6227  974
  #      division   0.6868 1202
  #      outer_grid  770
        outer_grid  434
  ################################################################################
  #
  #  Definition of "minimal" basis
  #
  ################################################################################
  #     valence basis states
      valence      1  s   1.
  #     ion occupancy
      ion_occ      1  s   0.5
  ################################################################################
  #
  #  Suggested additional basis functions. For production calculations,
  #  uncomment them one after another (the most important basis functions are
  #  listed first).
  #
  #  Basis constructed for dimers: 0.5 A, 0.7 A, 1.0 A, 1.5 A, 2.5 A
  #
  ################################################################################
  #  "First tier" - improvements: -1014.90 meV to -62.69 meV
       hydro 2 s 2.1
       hydro 2 p 3.5
  #  "Second tier" - improvements: -12.89 meV to -1.83 meV
       hydro 1 s 0.85
       hydro 2 p 3.7
       hydro 2 s 1.2
       hydro 3 d 7
  #  "Third tier" - improvements: -0.25 meV to -0.12 meV
  #     hydro 4 f 11.2
  #     hydro 3 p 4.8
  #     hydro 4 d 9
  #     hydro 3 s 3.2
  ################################################################################
  #
  # For methods that use the localized form of the "resolution of identity" for
  # the two-electron Coulomb operator (RI_method LVL), particularly Hartree-Fock and
  # hybrid density functional calculations, the highest accuracy can be obtained by
  # uncommenting the line beginning with "for_aux"  below, thus adding an extra g radial
  # function to the construction of the product basis set for the expansion.
  # See Ref. New J. Phys. 17, 093020 (2015) for more information, particularly Figs. 1 and 6.
  #
  ################################################################################
  #
  # for_aux hydro 5 g 6.0
  ################################################################################
  #
  #  FHI-aims code project
  # Volker Blum, Fritz Haber Institute Berlin, 2009
  #
  #  Suggested "tight" defaults for C atom (to be pasted into control.in file)
  #
  ################################################################################
    species        C
  #     global species definitions
      nucleus             6
      mass                12.0107
  #
      l_hartree           6
  #
      cut_pot             4.0  2.0  1.0
      basis_dep_cutoff    1e-4
  #
      radial_base         34 7.0
      radial_multiplier   2
      angular_grids specified
        division   0.2187   50
        division   0.4416  110
        division   0.6335  194
        division   0.7727  302
        division   0.8772  434
  #      division   0.9334  590
  #      division   0.9924  770
  #      division   1.0230  974
  #      division   1.5020 1202
  #     outer_grid  974
        outer_grid  434
  ################################################################################
  #
  #  Definition of "minimal" basis
  #
  ################################################################################
  #     valence basis states
      valence      2  s   2.
      valence      2  p   2.
  #     ion occupancy
      ion_occ      2  s   1.
      ion_occ      2  p   1.
  ################################################################################
  #
  #  Suggested additional basis functions. For production calculations,
  #  uncomment them one after another (the most important basis functions are
  #  listed first).
  #
  #  Constructed for dimers: 1.0 A, 1.25 A, 1.5 A, 2.0 A, 3.0 A
  #
  ################################################################################
  #  "First tier" - improvements: -1214.57 meV to -155.61 meV
       hydro 2 p 1.7
       hydro 3 d 6
       hydro 2 s 4.9
  #  "Second tier" - improvements: -67.75 meV to -5.23 meV
       hydro 4 f 9.8
       hydro 3 p 5.2
       hydro 3 s 4.3
       hydro 5 g 14.4
       hydro 3 d 6.2
  #  "Third tier" - improvements: -2.43 meV to -0.60 meV
  #     hydro 2 p 5.6
  #     hydro 2 s 1.4
  #     hydro 3 d 4.9
  #     hydro 4 f 11.2
  #  "Fourth tier" - improvements: -0.39 meV to -0.18 meV
  #     hydro 2 p 2.1
  #     hydro 5 g 16.4
  #     hydro 4 d 13.2
  #     hydro 3 s 13.6
  #     hydro 4 f 17.6
  #  Further basis functions - improvements: -0.08 meV and below
  #     hydro 3 s 2
  #     hydro 3 p 6
  #     hydro 4 d 20
  ################################################################################
  #
  # For methods that use the localized form of the "resolution of identity" for
  # the two-electron Coulomb operator (RI_method LVL), particularly Hartree-Fock and
  # hybrid density functional calculations, the highest accuracy can be obtained by
  # uncommenting the line beginning with "for_aux"  below, thus adding an extra g radial
  # function to the construction of the product basis set for the expansion.
  # See Ref. New J. Phys. 17, 093020 (2015) for more information, particularly Figs. 1 and 6.
  #
  ################################################################################
  #
  # for_aux hydro 5 g 6.0
  ################################################################################
  #
  #  FHI-aims code project
  # Volker Blum, Fritz Haber Institute Berlin, 2009
  #
  #  Suggested "tight" defaults for N atom (to be pasted into control.in file)
  #
  ################################################################################
    species        N
  #     global species definitions
      nucleus             7
      mass                14.0067
  #
      l_hartree           6
  #
      cut_pot             4.0  2.0  1.0
      basis_dep_cutoff    1e-4
  #
      radial_base         35 7.0
      radial_multiplier   2
      angular_grids       specified
        division   0.1841   50
        division   0.3514  110
        division   0.5126  194
        division   0.6292  302
        division   0.6939  434
  #      division   0.7396  590
  #      division   0.7632  770
  #      division   0.8122  974
  #      division   1.1604 1202
  #      outer_grid  974
        outer_grid  434
  ################################################################################
  #
  #  Definition of "minimal" basis
  #
  ################################################################################
  #     valence basis states
      valence      2  s   2.
      valence      2  p   3.
  #     ion occupancy
      ion_occ      2  s   1.
      ion_occ      2  p   2.
  ################################################################################
  #
  #  Suggested additional basis functions. For production calculations,
  #  uncomment them one after another (the most important basis functions are
  #  listed first).
  #
  #  Constructed for dimers: 1.0 A, 1.1 A, 1.5 A, 2.0 A, 3.0 A
  #
  ################################################################################
  #  "First tier" - improvements: -1193.42 meV to -220.60 meV
       hydro 2 p 1.8
       hydro 3 d 6.8
       hydro 3 s 5.8
  #  "Second tier" - improvements: -80.21 meV to -6.86 meV
       hydro 4 f 10.8
       hydro 3 p 5.8
       hydro 1 s 0.8
       hydro 5 g 16
       hydro 3 d 4.9
  #  "Third tier" - improvements: -4.29 meV to -0.53 meV
  #     hydro 3 s 16
  #     ionic 2 p auto
  #     hydro 3 d 6.6
  #     hydro 4 f 11.6
  #  "Fourth tier" - improvements: -0.75 meV to -0.25 meV
  #     hydro 2 p 4.5
  #     hydro 2 s 2.4
  #     hydro 5 g 14.4
  #     hydro 4 d 14.4
  #     hydro 4 f 16.8
  # Further basis functions - -0.21 meV and below
  #     hydro 3 p 14.8
  #     hydro 3 s 4.4
  #     hydro 3 d 19.6
  #     hydro 5 g 12.8
  ################################################################################
  #
  # For methods that use the localized form of the "resolution of identity" for
  # the two-electron Coulomb operator (RI_method LVL), particularly Hartree-Fock and
  # hybrid density functional calculations, the highest accuracy can be obtained by
  # uncommenting the line beginning with "for_aux"  below, thus adding an extra g radial
  # function to the construction of the product basis set for the expansion.
  # See Ref. New J. Phys. 17, 093020 (2015) for more information, particularly Figs. 1 and 6.
  #
  ################################################################################
  #
  # for_aux hydro 5 g 6.0
  ################################################################################
  #
  #  FHI-aims code project
  # Volker Blum, Fritz Haber Institute Berlin, 2009
  #
  #  Suggested "tight" defaults for O atom (to be pasted into control.in file)
  #
  ################################################################################
    species        O
  #     global species definitions
      nucleus             8
      mass                15.9994
  #
      l_hartree           6
  #
      cut_pot             4.0  2.0  1.0
      basis_dep_cutoff    1e-4
  #
      radial_base         36 7.0
      radial_multiplier   2
       angular_grids specified
        division   0.1817   50
        division   0.3417  110
        division   0.4949  194
        division   0.6251  302
        division   0.8014  434
  #      division   0.8507  590
  #      division   0.8762  770
  #      division   0.9023  974
  #      division   1.2339 1202
  #      outer_grid 974
        outer_grid  434
  ################################################################################
  #
  #  Definition of "minimal" basis
  #
  ################################################################################
  #     valence basis states
      valence      2  s   2.
      valence      2  p   4.
  #     ion occupancy
      ion_occ      2  s   1.
      ion_occ      2  p   3.
  ################################################################################
  #
  #  Suggested additional basis functions. For production calculations,
  #  uncomment them one after another (the most important basis functions are
  #  listed first).
  #
  #  Constructed for dimers: 1.0 A, 1.208 A, 1.5 A, 2.0 A, 3.0 A
  #
  ################################################################################
  #  "First tier" - improvements: -699.05 meV to -159.38 meV
       hydro 2 p 1.8
       hydro 3 d 7.6
       hydro 3 s 6.4
  #  "Second tier" - improvements: -49.91 meV to -5.39 meV
       hydro 4 f 11.6
       hydro 3 p 6.2
       hydro 3 d 5.6
       hydro 5 g 17.6
       hydro 1 s 0.75
  #  "Third tier" - improvements: -2.83 meV to -0.50 meV
  #     ionic 2 p auto
  #     hydro 4 f 10.8
  #     hydro 4 d 4.7
  #     hydro 2 s 6.8
  #  "Fourth tier" - improvements: -0.40 meV to -0.12 meV
  #     hydro 3 p 5
  #     hydro 3 s 3.3
  #     hydro 5 g 15.6
  #     hydro 4 f 17.6
  #     hydro 4 d 14
  # Further basis functions - -0.08 meV and below
  #     hydro 3 s 2.1
  #     hydro 4 d 11.6
  #     hydro 3 p 16
  #     hydro 2 s 17.2
  ################################################################################
  #
  # For methods that use the localized form of the "resolution of identity" for
  # the two-electron Coulomb operator (RI_method LVL), particularly Hartree-Fock and
  # hybrid density functional calculations, the highest accuracy can be obtained by
  # uncommenting the line beginning with "for_aux"  below, thus adding an extra g radial
  # function to the construction of the product basis set for the expansion.
  # See Ref. New J. Phys. 17, 093020 (2015) for more information, particularly Figs. 1 and 6.
  #
  ################################################################################
  #
  # for_aux hydro 5 g 6.0
  
  -----------------------------------------------------------------------
  Completed first pass over input file control.in .
  -----------------------------------------------------------------------
  
  
  -----------------------------------------------------------------------
  Parsing geometry.in (first pass over file, find array dimensions only).
  The contents of geometry.in will be repeated verbatim below
  unless switched off by setting 'verbatim_writeout .false.' .
  in the first line of geometry.in .
  -----------------------------------------------------------------------
  
  #
  # This is the geometry file that corresponds to the current relaxation step.
  # If you do not want this file to be written, set the "write_restart_geometry" flag to .false.
  #
  atom      -0.84930990      0.25049142     -0.65975199 C
  atom      -0.07702826     -0.24001100      0.55087494 C
  atom       1.05285824     -0.70939680      0.44703040 O
  atom      -1.89067666     -0.09313116     -0.68413932 H
  atom      -0.33199150     -0.11292553     -1.55166611 H
  atom      -0.85826378      1.34877794     -0.68927224 H
  atom      -0.65427777     -0.10997605      1.79620179 N
  atom      -2.02254195      0.25226158      2.15546203 C
  atom      -3.03932470     -0.73020158      1.51170382 C
  atom      -2.83176479     -1.94153880      1.53019927 O
  atom      -0.09704002     -0.55871884      2.51600908 H
  atom      -2.09891621      0.02149719      3.22909994 H
  atom      -2.31567331      1.74999574      1.99271148 C
  atom      -2.34169862      2.06561038      0.94132020 H
  atom      -1.52711998      2.32834616      2.48867221 H
  atom      -3.27104999      2.02089919      2.46305225 H
  atom      -4.16540331     -0.17271794      0.98123822 N
  atom      -5.12873832     -0.96254354      0.21681669 C
  atom      -4.76841233     -0.80382843     -1.27773731 C
  atom      -4.91675007      0.28628706     -1.83419211 O
  atom      -4.18936513      0.83100036      0.83051406 H
  atom      -4.99869299     -1.99617253      0.55450117 H
  atom      -6.55807669     -0.49255911      0.47215616 C
  atom      -7.27083685     -1.12288405     -0.07554362 H
  atom      -6.69345799      0.54042185      0.12647035 H
  atom      -6.79108819     -0.55223826      1.54245312 H
  atom      -4.24853392     -1.88073717     -1.92458813 N
  atom      -3.97030525     -3.21440472     -1.40183001 C
  atom      -4.03445713     -1.69599157     -2.90047522 H
  atom      -3.27782338     -3.71288102     -2.08884663 H
  atom      -4.87952153     -3.83091167     -1.33006364 H
  atom      -3.48631370     -3.15944315     -0.41859887 H
  
  -----------------------------------------------------------------------
  Completed first pass over input file geometry.in .
  -----------------------------------------------------------------------
  

  Basic array size parameters:
  | Number of species                 :        4
  | Number of atoms                   :       32
  | Max. basis fn. angular momentum   :        4
  | Max. atomic/ionic basis occupied n:        2
  | Max. number of basis fn. types    :        2
  | Max. radial fns per species/type  :        8
  | Max. logarithmic grid size        :     1301
  | Max. radial integration grid size :       73
  | Max. angular integration grid size:      434
  | Max. angular grid division number :        8
  | Radial grid for Hartree potential :     1301
  | Number of spin channels           :        1

------------------------------------------------------------
          Reading file control.in.
------------------------------------------------------------
  XC: Using PBE gradient-corrected functionals.
  Self-consistent screening and van der Waals energy (TS, TS+SCS,MBD) module
  Spin treatment: No spin polarisation.
  Charge =   0.000000E+00: Neutral system requested explicitly.
  Occupation type: Gaussian broadening, width =   0.500000E-01 eV.
  Using pulay charge density mixing.
  Pulay mixing - number of memorized iterations:   10
  Charge density mixing - mixing parameter:     0.5000
  Convergence accuracy of self-consistent charge density:  0.1000E-03
  Convergence accuracy of sum of eigenvalues:  0.1000E-01
  Convergence accuracy of total energy:  0.1000E-04
  Convergence accuracy of forces:  0.1000E-03
  Maximum number of s.-c. iterations  :  1000
  Fitting ESP-charges to Potential. 
  | Esp charge output options: 
  | ESP Grid method: 3, cubic grid
  | Number of points in x, ,y, z:  0080 0080 0080
  |
 
  Reading configuration options for species H                   .
  | Found nuclear charge :   1.0000
  | Found atomic mass :    1.00794000000000      amu
  | Found l_max for Hartree potential  :   6
  | Found cutoff potl. onset [A], width [A], scale factor :    4.00000    2.00000    1.00000
  | Threshold for basis-dependent cutoff potential is   0.100000E-03
  | Found data for basic radial integration grid :    24 points, outermost radius =    7.000 A
  | Found multiplier for basic radial grid :   2
  | Found angular grid specification: user-specified.
  | Specified grid contains     6 separate shells.
  | Check grid settings after all constraints further below.
  | Found free-atom valence shell :  1 s   1.000
  | No ionic wave fns used. Skipping ion_occ.
  | Found hydrogenic basis function :  2 s   2.100
  | Found hydrogenic basis function :  2 p   3.500
  | Found hydrogenic basis function :  1 s   0.850
  | Found hydrogenic basis function :  2 p   3.700
  | Found hydrogenic basis function :  2 s   1.200
  | Found hydrogenic basis function :  3 d   7.000
  Species H                   : Missing cutoff potential type.
  Defaulting to exp(1/x)/(1-x)^2 type cutoff potential.
  Species H : No 'logarithmic' tag. Using default grid for free atom:
  | Default logarithmic grid data [bohr] : 0.1000E-03 0.1000E+03 0.1012E+01
  Species H : On-site basis accuracy parameter (for Gram-Schmidt orthonormalisation) not specified.
  Using default value basis_acc =  0.1000000E-03.
  Species H                   : Using default innermost maximum threshold i_radial=  2 for radial functions.
  Species H                   : Default cutoff onset for free atom density etc. : 0.40000000E+01 AA.
  Species H                   : Basic radial grid will be enhanced according to radial_multiplier =   2, to contain    49 grid points.
 
  Reading configuration options for species C                   .
  | Found nuclear charge :   6.0000
  | Found atomic mass :    12.0107000000000      amu
  | Found l_max for Hartree potential  :   6
  | Found cutoff potl. onset [A], width [A], scale factor :    4.00000    2.00000    1.00000
  | Threshold for basis-dependent cutoff potential is   0.100000E-03
  | Found data for basic radial integration grid :    34 points, outermost radius =    7.000 A
  | Found multiplier for basic radial grid :   2
  | Found angular grid specification: user-specified.
  | Specified grid contains     6 separate shells.
  | Check grid settings after all constraints further below.
  | Found free-atom valence shell :  2 s   2.000
  | Found free-atom valence shell :  2 p   2.000
  | No ionic wave fns used. Skipping ion_occ.
  | No ionic wave fns used. Skipping ion_occ.
  | Found hydrogenic basis function :  2 p   1.700
  | Found hydrogenic basis function :  3 d   6.000
  | Found hydrogenic basis function :  2 s   4.900
  | Found hydrogenic basis function :  4 f   9.800
  | Found hydrogenic basis function :  3 p   5.200
  | Found hydrogenic basis function :  3 s   4.300
  | Found hydrogenic basis function :  5 g  14.400
  | Found hydrogenic basis function :  3 d   6.200
  Species C                   : Missing cutoff potential type.
  Defaulting to exp(1/x)/(1-x)^2 type cutoff potential.
  Species C : No 'logarithmic' tag. Using default grid for free atom:
  | Default logarithmic grid data [bohr] : 0.1000E-03 0.1000E+03 0.1012E+01
  Species C : On-site basis accuracy parameter (for Gram-Schmidt orthonormalisation) not specified.
  Using default value basis_acc =  0.1000000E-03.
  Species C                   : Using default innermost maximum threshold i_radial=  2 for radial functions.
  Species C                   : Default cutoff onset for free atom density etc. : 0.40000000E+01 AA.
  Species C                   : Basic radial grid will be enhanced according to radial_multiplier =   2, to contain    69 grid points.
 
  Reading configuration options for species N                   .
  | Found nuclear charge :   7.0000
  | Found atomic mass :    14.0067000000000      amu
  | Found l_max for Hartree potential  :   6
  | Found cutoff potl. onset [A], width [A], scale factor :    4.00000    2.00000    1.00000
  | Threshold for basis-dependent cutoff potential is   0.100000E-03
  | Found data for basic radial integration grid :    35 points, outermost radius =    7.000 A
  | Found multiplier for basic radial grid :   2
  | Found angular grid specification: user-specified.
  | Specified grid contains     6 separate shells.
  | Check grid settings after all constraints further below.
  | Found free-atom valence shell :  2 s   2.000
  | Found free-atom valence shell :  2 p   3.000
  | No ionic wave fns used. Skipping ion_occ.
  | No ionic wave fns used. Skipping ion_occ.
  | Found hydrogenic basis function :  2 p   1.800
  | Found hydrogenic basis function :  3 d   6.800
  | Found hydrogenic basis function :  3 s   5.800
  | Found hydrogenic basis function :  4 f  10.800
  | Found hydrogenic basis function :  3 p   5.800
  | Found hydrogenic basis function :  1 s   0.800
  | Found hydrogenic basis function :  5 g  16.000
  | Found hydrogenic basis function :  3 d   4.900
  Species N                   : Missing cutoff potential type.
  Defaulting to exp(1/x)/(1-x)^2 type cutoff potential.
  Species N : No 'logarithmic' tag. Using default grid for free atom:
  | Default logarithmic grid data [bohr] : 0.1000E-03 0.1000E+03 0.1012E+01
  Species N : On-site basis accuracy parameter (for Gram-Schmidt orthonormalisation) not specified.
  Using default value basis_acc =  0.1000000E-03.
  Species N                   : Using default innermost maximum threshold i_radial=  2 for radial functions.
  Species N                   : Default cutoff onset for free atom density etc. : 0.40000000E+01 AA.
  Species N                   : Basic radial grid will be enhanced according to radial_multiplier =   2, to contain    71 grid points.
 
  Reading configuration options for species O                   .
  | Found nuclear charge :   8.0000
  | Found atomic mass :    15.9994000000000      amu
  | Found l_max for Hartree potential  :   6
  | Found cutoff potl. onset [A], width [A], scale factor :    4.00000    2.00000    1.00000
  | Threshold for basis-dependent cutoff potential is   0.100000E-03
  | Found data for basic radial integration grid :    36 points, outermost radius =    7.000 A
  | Found multiplier for basic radial grid :   2
  | Found angular grid specification: user-specified.
  | Specified grid contains     6 separate shells.
  | Check grid settings after all constraints further below.
  | Found free-atom valence shell :  2 s   2.000
  | Found free-atom valence shell :  2 p   4.000
  | No ionic wave fns used. Skipping ion_occ.
  | No ionic wave fns used. Skipping ion_occ.
  | Found hydrogenic basis function :  2 p   1.800
  | Found hydrogenic basis function :  3 d   7.600
  | Found hydrogenic basis function :  3 s   6.400
  | Found hydrogenic basis function :  4 f  11.600
  | Found hydrogenic basis function :  3 p   6.200
  | Found hydrogenic basis function :  3 d   5.600
  | Found hydrogenic basis function :  5 g  17.600
  | Found hydrogenic basis function :  1 s   0.750
  Species O                   : Missing cutoff potential type.
  Defaulting to exp(1/x)/(1-x)^2 type cutoff potential.
  Species O : No 'logarithmic' tag. Using default grid for free atom:
  | Default logarithmic grid data [bohr] : 0.1000E-03 0.1000E+03 0.1012E+01
  Species O : On-site basis accuracy parameter (for Gram-Schmidt orthonormalisation) not specified.
  Using default value basis_acc =  0.1000000E-03.
  Species O                   : Using default innermost maximum threshold i_radial=  2 for radial functions.
  Species O                   : Default cutoff onset for free atom density etc. : 0.40000000E+01 AA.
  Species O                   : Basic radial grid will be enhanced according to radial_multiplier =   2, to contain    73 grid points.
 
  Finished reading input file 'control.in'. Consistency checks are next.
 
  Target number of points in a grid batch is not set. Defaulting to  100
  Method for grid partitioning is not set. Defaulting to parallel hash+maxmin partitioning.
  Batch size limit is not set. Defaulting to    200
  By default, will store active basis functions for each batch.
  If in need of memory, prune_basis_once .false. can be used to disable this option.
  communication_type for Hartree potential was not specified.
  Defaulting to calc_hartree .
  Pulay mixer: Number of initial linear mixing iterations not set.
  Defaulting to    0 iterations.
  Work space size for distributed Hartree potential not set.
  Defaulting to   0.200000E+03 MB.
  Algorithm-dependent basis array size parameters:
  | n_max_pulay                         :       10
  Geometry relaxation not requested: no relaxation will be performed.
  Handling of forces: Unphysical translation and rotation will be removed from forces.
  No accuracy limit for integral partition fn. given. Defaulting to  0.1000E-14.
  No threshold value for u(r) in integrations given. Defaulting to  0.1000E-05.
  No accuracy for occupation numbers given. Defaulting to  0.1000E-07.
  No threshold value for occupation numbers given. Defaulting to  0.0000E+00.
  No accuracy for fermi level given. Defaulting to  0.1000E-19.
  Maximum # of iterations to find E_F not set. Defaulting to  200.
  Preferred method for the eigenvalue solver ('KS_method') not specified in 'control.in'.
  Calling blacs routine to test compilation state
  Since scalapack support is enabled, defaulting to 'elpa'.
  Preferred method for the MBD eigenvalue solver ('mbd_eigensolver') not specified in 'control.in'.
  Calling blacs routine to test compilation state
  Since scalapack support is enabled, defaulting to 'scaLAPACK'.
  Will not use alltoall communication since running on < 1024 CPUs.
  Threshold for basis singularities not set.
  Default threshold for basis singularities:  0.1000E-04
  partition_type (choice of integration weights) for integrals was not specified.
  | Using a version of the partition function of Stratmann and coworkers ('stratmann_smoother').
  | At each grid point, the set of atoms used to build the partition table is smoothly restricted to
  | only those atoms whose free-atom density would be non-zero at that grid point.
  Partitioning for Hartree potential was not defined. Using partition_type for integrals.
  | Adjusted default value of keyword multip_moments_threshold to:       0.10000000E-11
  | This value may affect high angular momentum components of the Hartree potential in periodic systems.
  No q(lm)/r^(l+1) cutoff set for long-range Hartree potential.
  | Using default value of  0.100000E-09 .
  | Verify using the multipole_threshold keyword.
  Defaulting to new monopole extrapolation.
  Density update method: automatic selection selected.
------------------------------------------------------------


------------------------------------------------------------
          Reading geometry description geometry.in.
------------------------------------------------------------
 * Warning! You did not set the 'relativistic' flag in input file 'control.in'.
 * Since you are not attempting to treat any elements beyond Ca(Z=20), FHI-aims
 * will default to 'relativistic none'.
 * You must ensure that this is really what you want!!
 * For example, DO NOT compute total-energy differences between results from
 * different settings of the 'relativistic' flag.
  Input structure read successfully.
  The structure contains       32 atoms,  and a total of        116.000 electrons.

  Input geometry:
  | No unit cell requested.
  | Atomic structure:
  |       Atom                x [A]            y [A]            z [A]
  |    1: Species C             -0.849310         0.250491        -0.659752
  |    2: Species C             -0.077028        -0.240011         0.550875
  |    3: Species O              1.052858        -0.709397         0.447030
  |    4: Species H             -1.890677        -0.093131        -0.684139
  |    5: Species H             -0.331991        -0.112926        -1.551666
  |    6: Species H             -0.858264         1.348778        -0.689272
  |    7: Species N             -0.654278        -0.109976         1.796202
  |    8: Species C             -2.022542         0.252262         2.155462
  |    9: Species C             -3.039325        -0.730202         1.511704
  |   10: Species O             -2.831765        -1.941539         1.530199
  |   11: Species H             -0.097040        -0.558719         2.516009
  |   12: Species H             -2.098916         0.021497         3.229100
  |   13: Species C             -2.315673         1.749996         1.992711
  |   14: Species H             -2.341699         2.065610         0.941320
  |   15: Species H             -1.527120         2.328346         2.488672
  |   16: Species H             -3.271050         2.020899         2.463052
  |   17: Species N             -4.165403        -0.172718         0.981238
  |   18: Species C             -5.128738        -0.962544         0.216817
  |   19: Species C             -4.768412        -0.803828        -1.277737
  |   20: Species O             -4.916750         0.286287        -1.834192
  |   21: Species H             -4.189365         0.831000         0.830514
  |   22: Species H             -4.998693        -1.996173         0.554501
  |   23: Species C             -6.558077        -0.492559         0.472156
  |   24: Species H             -7.270837        -1.122884        -0.075544
  |   25: Species H             -6.693458         0.540422         0.126470
  |   26: Species H             -6.791088        -0.552238         1.542453
  |   27: Species N             -4.248534        -1.880737        -1.924588
  |   28: Species C             -3.970305        -3.214405        -1.401830
  |   29: Species H             -4.034457        -1.695992        -2.900475
  |   30: Species H             -3.277823        -3.712881        -2.088847
  |   31: Species H             -4.879522        -3.830912        -1.330064
  |   32: Species H             -3.486314        -3.159443        -0.418599
  |

  | The smallest distance between any two atoms is         1.01489238 AA.
  |
  | The first atom of this pair is atom number                      7 .
  | The second atom of this pair is atom number                    11 .

  Number of empty states per atom not set in control.in - providing a guess from actual geometry.
  | Total number of empty states used during s.c.f. cycle:       71
  If you use a very high smearing, use empty_states (per atom!) in control.in to increase this value.

  Structure-dependent array size parameters: 
  | Maximum number of distinct radial functions  :       40
  | Maximum number of basis functions            :      840
  | Number of Kohn-Sham states (occupied + empty):      129
------------------------------------------------------------

------------------------------------------------------------
          Preparing all fixed parts of the calculation.
------------------------------------------------------------
  Determining machine precision:
    2.225073858507201E-308
  Setting up grids for atomic and cluster calculations.

  Creating wave function, potential, and density for free atoms.

  Species: H

  List of occupied orbitals and eigenvalues:
    n    l              occ      energy [Ha]    energy [eV]
    1    0           1.0000        -0.238382        -6.4867


  Species: C

  List of occupied orbitals and eigenvalues:
    n    l              occ      energy [Ha]    energy [eV]
    1    0           2.0000       -10.041232      -273.2358
    2    0           2.0000        -0.504327       -13.7234
    2    1           2.0000        -0.193750        -5.2722


  Species: N

  List of occupied orbitals and eigenvalues:
    n    l              occ      energy [Ha]    energy [eV]
    1    0           2.0000       -14.129007      -384.4699
    2    0           2.0000        -0.681802       -18.5528
    2    1           3.0000        -0.260543        -7.0897


  Species: O

  List of occupied orbitals and eigenvalues:
    n    l              occ      energy [Ha]    energy [eV]
    1    0           2.0000       -18.898576      -514.2564
    2    0           2.0000        -0.878795       -23.9132
    2    1           4.0000        -0.332075        -9.0362

  Creating fixed part of basis set: Ionic, confined, hydrogenic.
 
  H                    hydrogenic:
 
  List of hydrogenic basis orbitals: 
    n    l      effective z      eigenvalue [eV]  inner max. [A]     outer max. [A]     outer radius [A]   
    2    0         2.100000       -14.9965           0.193243           1.317208           5.373006
    2    1         3.500000       -41.6672           0.602369           0.602369           4.056063
    1    0         0.850000        -9.8292           0.624871           0.624871           5.373006
    2    1         3.700000       -46.5653           0.573622           0.573622           3.910002
    2    0         1.200000        -4.5995           0.334980           2.228188           5.505995
    3    2         7.000000       -74.0753           0.680699           0.680699           3.769201
 
 
  C                    hydrogenic:
 
  List of hydrogenic basis orbitals: 
    n    l      effective z      eigenvalue [eV]  inner max. [A]     outer max. [A]     outer radius [A]   
    2    1         1.700000        -9.8152           1.245706           1.245706           5.401630
    3    2         6.000000       -54.4226           0.792453           0.792453           4.178599
    2    0         4.900000       -81.6681           0.082559           0.562749           3.353238
    4    3         9.800000       -81.6681           0.863254           0.863254           4.028125
    3    1         5.200000       -40.8774           0.305389           1.215618           4.898362
    3    0         4.300000       -27.9508           0.091041           1.610311           5.401630
    5    4        14.400000      -112.8510           0.917666           0.917666           3.883070
    3    2         6.200000       -58.1113           0.763917           0.763917           4.077671
 
 
  N                    hydrogenic:
 
  List of hydrogenic basis orbitals: 
    n    l      effective z      eigenvalue [eV]  inner max. [A]     outer max. [A]     outer radius [A]   
    2    1         1.800000       -11.0118           1.177451           1.177451           5.427479
    3    2         6.800000       -69.9029           0.704619           0.704619           3.854246
    3    0         5.800000       -50.8549           0.067388           1.191934           4.629968
    4    3        10.800000       -99.1854           0.786571           0.786571           3.761152
    3    1         5.800000       -50.8549           0.274880           1.094176           4.518138
    1    0         0.800000        -8.7059           0.662839           0.662839           5.361532
    5    4        16.000000      -139.3222           0.825990           0.825990           3.625711
    3    2         4.900000       -36.2967           0.968267           0.968267           4.862000
 
 
  O                    hydrogenic:
 
  List of hydrogenic basis orbitals: 
    n    l      effective z      eigenvalue [eV]  inner max. [A]     outer max. [A]     outer radius [A]   
    2    1         1.800000       -11.0118           1.178562           1.178562           5.432602
    3    2         7.600000       -87.3182           0.624125           0.624125           3.541477
    3    0         6.400000       -61.9209           0.061167           1.081902           4.306578
    4    3        11.600000      -114.4238           0.731631           0.731631           3.585037
    3    1         6.200000       -58.1113           0.255680           1.030270           4.306578
    3    2         5.600000       -47.4081           0.847233           0.847233           4.413171
    5    4        17.600000      -168.5799           0.749740           0.749740           3.372465
    1    0         0.750000        -7.6499           0.705284           0.705284           5.366593
 

  Adding cutoff potential to free-atom effective potential.
  Creating atomic-like basis functions for current effective potential.

  Species H                   :

  List of atomic basis orbitals and eigenvalues:
    n    l      energy [Ha]    energy [eV]    outer radius [A]
    1    0        -0.238382        -6.4867       5.373006


  Species C                   :

  List of atomic basis orbitals and eigenvalues:
    n    l      energy [Ha]    energy [eV]    outer radius [A]
    1    0       -10.041232      -273.2358       1.934409
    2    0        -0.504327       -13.7234       5.271162
    2    1        -0.193750        -5.2722       5.401630


  Species N                   :

  List of atomic basis orbitals and eigenvalues:
    n    l      energy [Ha]    energy [eV]    outer radius [A]
    1    0       -14.129007      -384.4699       1.637919
    2    0        -0.681802       -18.5528       5.168461
    2    1        -0.260543        -7.0897       5.361532


  Species O                   :

  List of atomic basis orbitals and eigenvalues:
    n    l      energy [Ha]    energy [eV]    outer radius [A]
    1    0       -18.898576      -514.2564       1.415765
    2    0        -0.878795       -23.9132       5.048385
    2    1        -0.332075        -9.0362       5.301386

  Assembling full basis from fixed parts.
  | Species H :   atomic orbital   1 s accepted.
  | Species H :    hydro orbital   2 s accepted.
  | Species H :    hydro orbital   1 s accepted.
  | Species H :    hydro orbital   2 s accepted.
  | Species H :    hydro orbital   2 p accepted.
  | Species H :    hydro orbital   2 p accepted.
  | Species H :    hydro orbital   3 d accepted.
  | Species C :   atomic orbital   1 s accepted.
  | Species C :    hydro orbital   2 s accepted.
  | Species C :   atomic orbital   2 s accepted.
  | Species C :    hydro orbital   3 s accepted.
  | Species C :    hydro orbital   3 p accepted.
  | Species C :   atomic orbital   2 p accepted.
  | Species C :    hydro orbital   2 p accepted.
  | Species C :    hydro orbital   3 d accepted.
  | Species C :    hydro orbital   3 d accepted.
  | Species C :    hydro orbital   4 f accepted.
  | Species C :    hydro orbital   5 g accepted.
  | Species N :   atomic orbital   1 s accepted.
  | Species N :    hydro orbital   3 s accepted.
  | Species N :   atomic orbital   2 s accepted.
  | Species N :    hydro orbital   1 s accepted.
  | Species N :    hydro orbital   3 p accepted.
  | Species N :   atomic orbital   2 p accepted.
  | Species N :    hydro orbital   2 p accepted.
  | Species N :    hydro orbital   3 d accepted.
  | Species N :    hydro orbital   3 d accepted.
  | Species N :    hydro orbital   4 f accepted.
  | Species N :    hydro orbital   5 g accepted.
  | Species O :   atomic orbital   1 s accepted.
  | Species O :    hydro orbital   3 s accepted.
  | Species O :   atomic orbital   2 s accepted.
  | Species O :    hydro orbital   1 s accepted.
  | Species O :    hydro orbital   3 p accepted.
  | Species O :   atomic orbital   2 p accepted.
  | Species O :    hydro orbital   2 p accepted.
  | Species O :    hydro orbital   3 d accepted.
  | Species O :    hydro orbital   3 d accepted.
  | Species O :    hydro orbital   4 f accepted.
  | Species O :    hydro orbital   5 g accepted.
 
  Basis size parameters after reduction:
  | Total number of radial functions:       40
  | Total number of basis functions :      840
 
  Testing on-site integration grid accuracy.
  |  Species  Function  <phi|h_atom|phi> (log., in eV)  <phi|h_atom|phi> (rad., in eV)
           1        1                 -6.4869821809                 -6.4870742227
           1        2                 13.5044133542                 13.5041049177
           1        3                 32.7854418792                 32.7779770519
           1        4                 33.7995553101                 33.7152624900 ***
           1        5                 28.8558651799                 28.8558652046
           1        6                 59.6361831893                 59.6362535845
           1        7                 60.2733718049                 60.2733715484
           2        8               -273.2358277112               -273.2358261765
           2        9                -10.7624923123                -10.7625144012
           2       10                 17.4634079027                 17.4634252127
           2       11                 53.0363661832                 53.0366180446
           2       12                 15.0981351967                 15.0981317714
           2       13                  3.8522181899                  3.8522770949
           2       14                 12.1181835661                 12.1206868578
           2       15                 29.4320778347                 29.4320780959
           2       16                 54.8753777694                 54.8752901936
           2       17                 59.3533975461                 59.3533974833
           2       18                 93.4537491195                 93.4537492066
           3       19               -384.4698526889               -384.4698499465
           3       20                 12.5691022037                 12.5690910168
           3       21                -15.7489097511                -15.7489165588
           3       22                 27.0978334940                 27.0985589490
           3       23                 18.5949116966                 18.5949125562
           3       24                  1.2212828291                  1.2212855301
           3       25                 13.4428926797                 13.4434051125
           3       26                 35.9380614500                 35.9380613666
           3       27                 39.9231532098                 39.9231654735
           3       28                 72.9957335806                 72.9957336833
           3       29                116.4231321147                116.4231321431
           4       30               -514.2564144315               -514.2564099626
           4       31                 15.1726678541                 15.1726530877
           4       32                -21.5447785304                -21.5447874973
           4       33                 14.4944558459                 14.4944698284
           4       34                 20.8882174564                 20.8882178906
           4       35                 -2.4850315908                 -2.4850322289
           4       36                 13.8600193195                 13.8599826966
           4       37                 45.8243383616                 45.8243383675
           4       38                 52.1840606465                 52.1840622440
           4       39                 85.4074185510                 85.4074185819
           4       40                142.0983717302                142.0983717339
 * Note: Onsite integrals marked "***" above are less accurate than
 * onsite_accuracy_threshold =    0.03000 eV. Usually, this is harmless.
 * When in doubt, tighten the "radial" and/or "radial_multiplier" flags to check.

  Preparing densities etc. for the partition functions (integrals / Hartree potential).

  Preparations completed.
  max(cpu_time)          :      0.236 s.
  Wall clock time (cpu1) :      0.236 s.
------------------------------------------------------------

------------------------------------------------------------
          Begin self-consistency loop: Initialization.

          Date     :  20170309, Time     :  182341.517
------------------------------------------------------------

  Initializing index lists of integration centers etc. from given atomic structure:
  | Number of centers in hartree potential         :        32
  | Number of centers in hartree multipole         :        32
  | Number of centers in electron density summation:        32
  | Number of centers in basis integrals           :        32
  | Number of centers in integrals                 :        32
  | Number of centers in hamiltonian               :        32
  Using modified Scalapack Eigenvalue solver (ELPA)
  * Using 32 tasks for Scalapack Eigenvalue solver.
  Detailed listing of tasks and assigned k-points:
  (for non-periodic systems, the "k-point" denotes an internal label only)
   Task     0 k-point     1 on eos306
   Task     1 k-point     1 on eos306
   Task     2 k-point     1 on eos306
   Task     3 k-point     1 on eos306
   Task     4 k-point     1 on eos306
   Task     5 k-point     1 on eos306
   Task     6 k-point     1 on eos306
   Task     7 k-point     1 on eos306
   Task     8 k-point     1 on eos306
   Task     9 k-point     1 on eos306
   Task    10 k-point     1 on eos306
   Task    11 k-point     1 on eos306
   Task    12 k-point     1 on eos306
   Task    13 k-point     1 on eos306
   Task    14 k-point     1 on eos306
   Task    15 k-point     1 on eos306
   Task    16 k-point     1 on eos306
   Task    17 k-point     1 on eos306
   Task    18 k-point     1 on eos306
   Task    19 k-point     1 on eos306
   Task    20 k-point     1 on eos306
   Task    21 k-point     1 on eos306
   Task    22 k-point     1 on eos306
   Task    23 k-point     1 on eos306
   Task    24 k-point     1 on eos306
   Task    25 k-point     1 on eos306
   Task    26 k-point     1 on eos306
   Task    27 k-point     1 on eos306
   Task    28 k-point     1 on eos306
   Task    29 k-point     1 on eos306
   Task    30 k-point     1 on eos306
   Task    31 k-point     1 on eos306
  Tasks:    32 split into      8 X      4 BLACS grid
  Calculating blocksize based on n_basis =          840 max_nprow =            8 max_npcol =            4
  Scalapack blocksize set to:           16
  Required Scalapack workspace - INTEGER:            1 REAL:             1
  Partitioning the integration grid into batches with parallel hashing+maxmin method.
  | Number of batches:     4907
  | Maximal batch size:     200
  | Minimal batch size:      42
  | Average batch size:     107.546
  | Standard deviation of batch sizes:      32.068

  Integration load balanced across    32 MPI tasks.
  Work distribution over tasks is as follows:
  Task     0 has      16541 integration points.
  Task     1 has      16464 integration points.
  Task     2 has      16414 integration points.
  Task     3 has      16500 integration points.
  Task     4 has      16518 integration points.
  Task     5 has      16520 integration points.
  Task     6 has      16499 integration points.
  Task     7 has      16511 integration points.
  Task     8 has      16414 integration points.
  Task     9 has      16467 integration points.
  Task    10 has      16516 integration points.
  Task    11 has      16434 integration points.
  Task    12 has      16518 integration points.
  Task    13 has      16532 integration points.
  Task    14 has      16432 integration points.
  Task    15 has      16514 integration points.
  Task    16 has      16492 integration points.
  Task    17 has      16519 integration points.
  Task    18 has      16422 integration points.
  Task    19 has      16520 integration points.
  Task    20 has      16532 integration points.
  Task    21 has      16515 integration points.
  Task    22 has      16485 integration points.
  Task    23 has      16566 integration points.
  Task    24 has      16516 integration points.
  Task    25 has      16480 integration points.
  Task    26 has      16504 integration points.
  Task    27 has      16522 integration points.
  Task    28 has      16510 integration points.
  Task    29 has      16424 integration points.
  Task    30 has      16430 integration points.
  Task    31 has      16497 integration points.
  Initializing partition tables, free-atom densities, potentials, etc. across the integration grid (initialize_grid_storage).
  | initialize_grid_storage: Actual outermost partition radius vs. multipole_radius_free
  | (-- VB: in principle, multipole_radius_free should be larger, hence this output)
  | Species        1: Confinement radius =              6.000000000000000 AA, multipole_radius_free =              6.071692442739658 AA.
  | Species        1: outer_partition_radius set to              6.071692442739658 AA .
  | Species        2: Confinement radius =              6.000000000000000 AA, multipole_radius_free =              6.029870734432609 AA.
  | Species        2: outer_partition_radius set to              6.029870734432609 AA .
  | Species        3: Confinement radius =              6.000000000000000 AA, multipole_radius_free =              6.058726835495003 AA.
  | Species        3: outer_partition_radius set to              6.058726835495003 AA .
  | Species        4: Confinement radius =              6.000000000000000 AA, multipole_radius_free =              6.064445521808699 AA.
  | Species        4: outer_partition_radius set to              6.064445521808699 AA .
  | Original list of interatomic distances with          32 x         32 entries is created.
  | Net number of integration points:   527728
  | of which are non-zero points    :   412321
  Obtaining max. number of non-zero basis functions in each batch (get_n_compute_maxes).
  | Maximal number of non-zero basis functions:      797 in task     0
  | Maximal number of non-zero basis functions:      805 in task     1
  | Maximal number of non-zero basis functions:      808 in task     2
  | Maximal number of non-zero basis functions:      805 in task     3
  | Maximal number of non-zero basis functions:      795 in task     4
  | Maximal number of non-zero basis functions:      797 in task     5
  | Maximal number of non-zero basis functions:      804 in task     6
  | Maximal number of non-zero basis functions:      801 in task     7
  | Maximal number of non-zero basis functions:      809 in task     8
  | Maximal number of non-zero basis functions:      793 in task     9
  | Maximal number of non-zero basis functions:      793 in task    10
  | Maximal number of non-zero basis functions:      796 in task    11
  | Maximal number of non-zero basis functions:      796 in task    12
  | Maximal number of non-zero basis functions:      794 in task    13
  | Maximal number of non-zero basis functions:      790 in task    14
  | Maximal number of non-zero basis functions:      805 in task    15
  | Maximal number of non-zero basis functions:      806 in task    16
  | Maximal number of non-zero basis functions:      804 in task    17
  | Maximal number of non-zero basis functions:      808 in task    18
  | Maximal number of non-zero basis functions:      801 in task    19
  | Maximal number of non-zero basis functions:      797 in task    20
  | Maximal number of non-zero basis functions:      799 in task    21
  | Maximal number of non-zero basis functions:      800 in task    22
  | Maximal number of non-zero basis functions:      810 in task    23
  | Maximal number of non-zero basis functions:      783 in task    24
  | Maximal number of non-zero basis functions:      788 in task    25
  | Maximal number of non-zero basis functions:      805 in task    26
  | Maximal number of non-zero basis functions:      813 in task    27
  | Maximal number of non-zero basis functions:      799 in task    28
  | Maximal number of non-zero basis functions:      796 in task    29
  | Maximal number of non-zero basis functions:      808 in task    30
  | Maximal number of non-zero basis functions:      804 in task    31
  Selecting the method for density update.
  Loop over occupied states selected for charge density update.
  Integrating Hamiltonian matrix: batch-based integration.
  Time summed over all CPUs for integration: real work       22.738 s, elapsed       23.516 s
  Integrating overlap matrix.
  Time summed over all CPUs for integration: real work       13.898 s, elapsed       14.450 s
  Deallocating overlap matrix.

  Updating Kohn-Sham eigenvalues, eigenvectors, occupation numbers, and Fermi level.
  Solving generalized eigenproblem
  Solving real symmetric generalised eigenvalue problem by standard ScaLAPACK.
  Transforming overlap matrix with ScaLAPACK and checking for singularities.
  : Overlap matrix is nonsingular, using Cholesky decomposition
  | Lowest eigenvalue:  0.895934E-04
  Factoring overlap matrix with Cholesky decomposition
  Using Cholesky factor for transformation
  Using 1-stage real ELPA solver
  Determining occupation numbers for Kohn-Sham eigenstates.
  | Chemical potential (Fermi level) in eV                 : -.96448527E+01
  | Error in electron count due to remaining E_F inaccuracy: 0.00000000E+00
  | Maximum occupation number of highest empty state:  0.00E+00

  Writing Kohn-Sham eigenvalues.

  State    Occupation    Eigenvalue [Ha]    Eigenvalue [eV]
      1       2.00000         -18.974556         -516.32393
      2       2.00000         -18.974253         -516.31568
      3       2.00000         -18.972992         -516.28137
      4       2.00000         -14.255170         -387.90291
      5       2.00000         -14.255106         -387.90117
      6       2.00000         -14.252322         -387.82540
      7       2.00000         -10.171294         -276.77499
      8       2.00000         -10.171240         -276.77353
      9       2.00000         -10.170753         -276.76028
     10       2.00000         -10.166227         -276.63710
     11       2.00000         -10.149554         -276.18340
     12       2.00000         -10.147206         -276.11951
     13       2.00000         -10.135319         -275.79606
     14       2.00000         -10.134271         -275.76755
     15       2.00000         -10.133882         -275.75697
     16       2.00000          -1.134495          -30.87118
     17       2.00000          -1.131231          -30.78236
     18       2.00000          -1.127938          -30.69274
     19       2.00000          -1.018131          -27.70475
     20       2.00000          -1.010676          -27.50188
     21       2.00000          -1.008457          -27.44150
     22       2.00000          -0.889484          -24.20408
     23       2.00000          -0.867106          -23.59515
     24       2.00000          -0.848305          -23.08354
     25       2.00000          -0.817087          -22.23406
     26       2.00000          -0.778967          -21.19678
     27       2.00000          -0.761479          -20.72088
     28       2.00000          -0.707861          -19.26188
     29       2.00000          -0.679323          -18.48532
     30       2.00000          -0.674710          -18.35978
     31       2.00000          -0.637953          -17.35959
     32       2.00000          -0.622216          -16.93136
     33       2.00000          -0.612051          -16.65476
     34       2.00000          -0.605003          -16.46296
     35       2.00000          -0.595173          -16.19548
     36       2.00000          -0.591816          -16.10414
     37       2.00000          -0.566326          -15.41052
     38       2.00000          -0.557324          -15.16557
     39       2.00000          -0.554613          -15.09178
     40       2.00000          -0.552198          -15.02608
     41       2.00000          -0.546597          -14.87366
     42       2.00000          -0.543555          -14.79090
     43       2.00000          -0.533646          -14.52124
     44       2.00000          -0.527128          -14.34388
     45       2.00000          -0.521323          -14.18591
     46       2.00000          -0.517801          -14.09009
     47       2.00000          -0.515141          -14.01770
     48       2.00000          -0.500949          -13.63151
     49       2.00000          -0.491643          -13.37829
     50       2.00000          -0.487209          -13.25763
     51       2.00000          -0.482152          -13.12001
     52       2.00000          -0.473926          -12.89618
     53       2.00000          -0.412633          -11.22832
     54       2.00000          -0.406162          -11.05222
     55       2.00000          -0.402005          -10.93911
     56       2.00000          -0.385412          -10.48759
     57       2.00000          -0.384193          -10.45443
     58       2.00000          -0.380273          -10.34777
     59       0.00000          -0.173998           -4.73473
     60       0.00000          -0.159237           -4.33306
     61       0.00000          -0.152417           -4.14747
     62       0.00000          -0.080205           -2.18250
     63       0.00000          -0.065935           -1.79419
     64       0.00000          -0.055750           -1.51704
     65       0.00000          -0.053182           -1.44717
     66       0.00000          -0.045614           -1.24121
     67       0.00000          -0.037645           -1.02438
     68       0.00000          -0.033751           -0.91842
     69       0.00000          -0.025585           -0.69621
     70       0.00000          -0.023995           -0.65294
     71       0.00000          -0.019049           -0.51835
     72       0.00000          -0.017922           -0.48767
     73       0.00000          -0.012255           -0.33347
     74       0.00000          -0.008803           -0.23956
     75       0.00000          -0.005567           -0.15149
     76       0.00000          -0.003477           -0.09460
     77       0.00000           0.000631            0.01717
     78       0.00000           0.006960            0.18940
     79       0.00000           0.010469            0.28488
     80       0.00000           0.015013            0.40851
     81       0.00000           0.018204            0.49535
     82       0.00000           0.024015            0.65347
     83       0.00000           0.033694            0.91687
     84       0.00000           0.036050            0.98097
     85       0.00000           0.040337            1.09762
     86       0.00000           0.045912            1.24933
     87       0.00000           0.054284            1.47714
     88       0.00000           0.063088            1.71672
     89       0.00000           0.070760            1.92547
     90       0.00000           0.077390            2.10588
     91       0.00000           0.079443            2.16174
     92       0.00000           0.081846            2.22714
     93       0.00000           0.090676            2.46742
     94       0.00000           0.093833            2.55333
     95       0.00000           0.098606            2.68320
     96       0.00000           0.106463            2.89699
     97       0.00000           0.112059            3.04928
     98       0.00000           0.113556            3.09001
     99       0.00000           0.120156            3.26961
    100       0.00000           0.121057            3.29414
    101       0.00000           0.129803            3.53213
    102       0.00000           0.133629            3.63624
    103       0.00000           0.138474            3.76808
    104       0.00000           0.140559            3.82480
    105       0.00000           0.147411            4.01126
    106       0.00000           0.153401            4.17427
    107       0.00000           0.159107            4.32953
    108       0.00000           0.161471            4.39386
    109       0.00000           0.167835            4.56702
    110       0.00000           0.172409            4.69149
    111       0.00000           0.173648            4.72521
    112       0.00000           0.177443            4.82847
    113       0.00000           0.184195            5.01219
    114       0.00000           0.194230            5.28526
    115       0.00000           0.197935            5.38607
    116       0.00000           0.203674            5.54224
    117       0.00000           0.205332            5.58738
    118       0.00000           0.209510            5.70106
    119       0.00000           0.213567            5.81146
    120       0.00000           0.217818            5.92713
    121       0.00000           0.225058            6.12414
    122       0.00000           0.226949            6.17560
    123       0.00000           0.239239            6.51003
    124       0.00000           0.243395            6.62312
    125       0.00000           0.246492            6.70740
    126       0.00000           0.254357            6.92140
    127       0.00000           0.259561            7.06302
    128       0.00000           0.260654            7.09276
    129       0.00000           0.266285            7.24598

  Highest occupied state (VBM) at    -10.34776521 eV
  | Occupation number:      2.00000000

  Lowest unoccupied state (CBM) at    -4.73473154 eV
  | Occupation number:      0.00000000

  Overall HOMO-LUMO gap:      5.61303367 eV.
  Calculating total energy contributions from superposition of free atom densities.

  Total energy components:
  | Sum of eigenvalues            :        -437.85162237 Ha      -11914.54885031 eV
  | XC energy correction          :         -98.81912962 Ha       -2689.00533202 eV
  | XC potential correction       :         127.02019914 Ha        3456.39547816 eV
  | Free-atom electrostatic energy:        -333.63101032 Ha       -9078.56170283 eV
  | Hartree energy correction     :           0.00000000 Ha           0.00000000 eV
  | MBD@rsSCS energy              :           0.00000000 Ha           0.00000000 eV
  | Entropy correction            :          -0.00000000 Ha          -0.00000000 eV
  | ---------------------------
  | Total energy                  :        -743.28156316 Ha      -20225.72040700 eV
  | Total energy, T -> 0          :        -743.28156316 Ha      -20225.72040700 eV  <-- do not rely on this value for anything but (periodic) metals
  | Electronic free energy        :        -743.28156316 Ha      -20225.72040700 eV

  Derived energy quantities:
  | Kinetic energy                :         735.15674271 Ha       20004.63279359 eV
  | Electrostatic energy          :       -1379.61917625 Ha      -37541.34786858 eV
  | Energy correction for multipole
  | error in Hartree potential    :           0.00000000 Ha           0.00000000 eV
  | Sum of eigenvalues per atom                           :        -372.32965157 eV
  | Total energy (T->0) per atom                          :        -632.05376272 eV  <-- do not rely on this value for anything but (periodic) metals
  | Electronic free energy per atom                       :        -632.05376272 eV
  Initialize hartree_potential_storage
  Max. number of atoms included in rho_multipole:           32

  End scf initialization - timings             :  max(cpu_time)    wall_clock(cpu1)
  | Time for scf. initialization               :        1.984 s           1.984 s
  | Boundary condition initialization          :        0.004 s           0.001 s
  | Integration                                :        1.212 s           1.208 s
  | Solution of K.-S. eqns.                    :        0.076 s           0.074 s
  | Grid partitioning                          :        0.336 s           0.330 s
  | Preloading free-atom quantities on grid    :        0.028 s           0.027 s
  | Free-atom superposition energy             :        0.044 s           0.041 s
  | Total energy evaluation                    :        0.004 s           0.000 s
------------------------------------------------------------

------------------------------------------------------------
          Begin self-consistency iteration #    1

  Date     :  20170309, Time     :  182343.502
------------------------------------------------------------
  Evaluating new KS density.
  Integration grid: deviation in total charge (<rho> - N_e) =   0.000000E+00
  Pulay mixing of updated and previous charge densities.

  Evaluating partitioned Hartree potential by multipole expansion.
  | Analytical far-field extrapolation by fixed multipoles:
  | Hartree multipole sum: apparent total charge =   0.652688E-04
  Summing up the Hartree potential.
  Time summed over all CPUs for potential: real work        9.597 s, elapsed        9.877 s
  | RMS charge density error from multipole expansion :   0.108327E-01

  Integrating Hamiltonian matrix: batch-based integration.
  Time summed over all CPUs for integration: real work       22.539 s, elapsed       23.428 s

  Updating Kohn-Sham eigenvalues, eigenvectors, occupation numbers, and Fermi level.
  Solving generalized eigenproblem
  Solving real symmetric generalised eigenvalue problem by standard ScaLAPACK.
  Using Cholesky factor for transformation
  Using 2-stage real ELPA solver
  K-Point:    1, Trafo times: 1-stage=     0.021 s, 2-stage=     0.019 s ==> Using 2-stage solver
  Determining occupation numbers for Kohn-Sham eigenstates.
  | Chemical potential (Fermi level) in eV                 : -.38735496E+01
  | Error in electron count due to remaining E_F inaccuracy: 0.00000000E+00
  | Maximum occupation number of highest empty state:  0.00E+00

  Writing Kohn-Sham eigenvalues.

  State    Occupation    Eigenvalue [Ha]    Eigenvalue [eV]
      1       2.00000         -18.630119         -506.95134
      2       2.00000         -18.616229         -506.57336
      3       2.00000         -18.600561         -506.14701
      4       2.00000         -14.003428         -381.05265
      5       2.00000         -13.990014         -380.68766
      6       2.00000         -13.978354         -380.37037
      7       2.00000         -10.067659         -273.95495
      8       2.00000         -10.052384         -273.53928
      9       2.00000         -10.042004         -273.25683
     10       2.00000          -9.974870         -271.43001
     11       2.00000          -9.958499         -270.98454
     12       2.00000          -9.891182         -269.15276
     13       2.00000          -9.851456         -268.07175
     14       2.00000          -9.841268         -267.79452
     15       2.00000          -9.835748         -267.64431
     16       2.00000          -0.975941          -26.55670
     17       2.00000          -0.959806          -26.11764
     18       2.00000          -0.946597          -25.75821
     19       2.00000          -0.875718          -23.82951
     20       2.00000          -0.859128          -23.37806
     21       2.00000          -0.856501          -23.30658
     22       2.00000          -0.747221          -20.33293
     23       2.00000          -0.715745          -19.47642
     24       2.00000          -0.691179          -18.80794
     25       2.00000          -0.672121          -18.28936
     26       2.00000          -0.639817          -17.41031
     27       2.00000          -0.625662          -17.02512
     28       2.00000          -0.582479          -15.85005
     29       2.00000          -0.557802          -15.17858
     30       2.00000          -0.542559          -14.76379
     31       2.00000          -0.503899          -13.71178
     32       2.00000          -0.491372          -13.37091
     33       2.00000          -0.471943          -12.84223
     34       2.00000          -0.462664          -12.58972
     35       2.00000          -0.454353          -12.36358
     36       2.00000          -0.440267          -11.98029
     37       2.00000          -0.433866          -11.80609
     38       2.00000          -0.421089          -11.45842
     39       2.00000          -0.405010          -11.02088
     40       2.00000          -0.400207          -10.89019
     41       2.00000          -0.393027          -10.69482
     42       2.00000          -0.392271          -10.67424
     43       2.00000          -0.386821          -10.52595
     44       2.00000          -0.380525          -10.35462
     45       2.00000          -0.377431          -10.27043
     46       2.00000          -0.371809          -10.11745
     47       2.00000          -0.365127           -9.93561
     48       2.00000          -0.355918           -9.68503
     49       2.00000          -0.347241           -9.44892
     50       2.00000          -0.346840           -9.43799
     51       2.00000          -0.338335           -9.20657
     52       2.00000          -0.331829           -9.02952
     53       2.00000          -0.250424           -6.81439
     54       2.00000          -0.232499           -6.32663
     55       2.00000          -0.228598           -6.22048
     56       2.00000          -0.220006           -5.98666
     57       2.00000          -0.212822           -5.79119
     58       2.00000          -0.198784           -5.40918
     59       0.00000          -0.066121           -1.79925
     60       0.00000          -0.045509           -1.23836
     61       0.00000          -0.039602           -1.07764
     62       0.00000          -0.029896           -0.81351
     63       0.00000          -0.022773           -0.61970
     64       0.00000          -0.011927           -0.32455
     65       0.00000          -0.011335           -0.30845
     66       0.00000           0.005569            0.15154
     67       0.00000           0.009374            0.25508
     68       0.00000           0.016347            0.44482
     69       0.00000           0.019672            0.53530
     70       0.00000           0.027059            0.73630
     71       0.00000           0.036461            0.99215
     72       0.00000           0.041013            1.11602
     73       0.00000           0.044747            1.21762
     74       0.00000           0.048795            1.32778
     75       0.00000           0.055482            1.50975
     76       0.00000           0.057014            1.55142
     77       0.00000           0.065070            1.77065
     78       0.00000           0.073089            1.98885
     79       0.00000           0.080311            2.18536
     80       0.00000           0.087110            2.37040
     81       0.00000           0.094631            2.57505
     82       0.00000           0.096062            2.61399
     83       0.00000           0.103548            2.81767
     84       0.00000           0.107173            2.91632
     85       0.00000           0.108869            2.96247
     86       0.00000           0.115611            3.14594
     87       0.00000           0.118394            3.22166
     88       0.00000           0.127525            3.47012
     89       0.00000           0.132317            3.60052
     90       0.00000           0.137758            3.74859
     91       0.00000           0.141044            3.83800
     92       0.00000           0.152314            4.14468
     93       0.00000           0.154522            4.20475
     94       0.00000           0.158957            4.32543
     95       0.00000           0.166521            4.53126
     96       0.00000           0.171067            4.65496
     97       0.00000           0.177251            4.82324
     98       0.00000           0.181847            4.94832
     99       0.00000           0.186185            5.06635
    100       0.00000           0.190227            5.17635
    101       0.00000           0.192991            5.25155
    102       0.00000           0.194259            5.28605
    103       0.00000           0.198690            5.40662
    104       0.00000           0.206467            5.61826
    105       0.00000           0.211423            5.75312
    106       0.00000           0.213253            5.80292
    107       0.00000           0.216693            5.89651
    108       0.00000           0.217310            5.91329
    109       0.00000           0.223102            6.07090
    110       0.00000           0.234128            6.37094
    111       0.00000           0.237512            6.46303
    112       0.00000           0.242660            6.60312
    113       0.00000           0.247064            6.72295
    114       0.00000           0.256220            6.97211
    115       0.00000           0.259199            7.05318
    116       0.00000           0.265301            7.21922
    117       0.00000           0.267064            7.26717
    118       0.00000           0.274151            7.46004
    119       0.00000           0.279847            7.61503
    120       0.00000           0.285674            7.77357
    121       0.00000           0.290438            7.90323
    122       0.00000           0.292974            7.97224
    123       0.00000           0.304290            8.28014
    124       0.00000           0.306625            8.34370
    125       0.00000           0.316602            8.61519
    126       0.00000           0.320916            8.73258
    127       0.00000           0.330564            8.99510
    128       0.00000           0.331503            9.02066
    129       0.00000           0.341019            9.27960

  Highest occupied state (VBM) at     -5.40918444 eV
  | Occupation number:      2.00000000

  Lowest unoccupied state (CBM) at    -1.79925441 eV
  | Occupation number:      0.00000000

  Overall HOMO-LUMO gap:      3.60993003 eV.

  Total energy components:
  | Sum of eigenvalues            :        -417.59406108 Ha      -11363.31256098 eV
  | XC energy correction          :        -100.75231107 Ha       -2741.60987591 eV
  | XC potential correction       :         129.52719891 Ha        3524.61441269 eV
  | Free-atom electrostatic energy:        -333.63101032 Ha       -9078.56170283 eV
  | Hartree energy correction     :         -20.26184730 Ha        -551.35291764 eV
  | MBD@rsSCS energy              :           0.00000000 Ha           0.00000000 eV
  | Entropy correction            :           0.00000000 Ha           0.00000000 eV
  | ---------------------------
  | Total energy                  :        -742.71203087 Ha      -20210.22264467 eV
  | Total energy, T -> 0          :        -742.71203087 Ha      -20210.22264467 eV  <-- do not rely on this value for anything but (periodic) metals
  | Electronic free energy        :        -742.71203087 Ha      -20210.22264467 eV

  Derived energy quantities:
  | Kinetic energy                :         744.04134093 Ha       20246.39501197 eV
  | Electrostatic energy          :       -1386.00106072 Ha      -37715.00778073 eV
  | Energy correction for multipole
  | error in Hartree potential    :          -0.04159489 Ha          -1.13185458 eV
  | Sum of eigenvalues per atom                           :        -355.10351753 eV
  | Total energy (T->0) per atom                          :        -631.56945765 eV  <-- do not rely on this value for anything but (periodic) metals
  | Electronic free energy per atom                       :        -631.56945765 eV

  Self-consistency convergence accuracy:
  | Change of charge density      :  0.9032E+00
  | Change of sum of eigenvalues  :  0.5512E+03 eV
  | Change of total energy        :  0.1550E+02 eV

  End self-consistency iteration #     1       :  max(cpu_time)    wall_clock(cpu1)
  | Time for this iteration                    :        1.596 s           1.596 s
[...]
   Multipole                     :  0.275861E-01 -0.482859E+00  0.282446E+00
   Pulay + GGA                   :  0.175433E+01 -0.115712E+02  0.591596E+01
   MBD@rsSCS                     :  0.669368E-02 -0.815583E-02  0.210757E-01
   ----------------------------------------------------------------
   Total forces(  20)            : -0.787152E-02 -0.116261E-02  0.303159E-01
  atom #   21
   Hellmann-Feynman              : -0.397310E-02 -0.467520E-01 -0.257632E-01
   Ionic forces                  :  0.000000E+00  0.000000E+00  0.000000E+00
   Multipole                     : -0.184149E-01 -0.134798E-01  0.700135E-02
   Pulay + GGA                   :  0.637729E-02  0.616501E-01  0.125907E-01
   MBD@rsSCS                     :  0.164136E-02 -0.259348E-02 -0.497724E-02
   ----------------------------------------------------------------
   Total forces(  21)            : -0.143694E-01 -0.117510E-02 -0.111485E-01
  atom #   22
   Hellmann-Feynman              :  0.116783E-01  0.501836E-01  0.157899E-01
   Ionic forces                  :  0.000000E+00  0.000000E+00  0.000000E+00
   Multipole                     : -0.216812E-01 -0.397273E-03 -0.175788E-01
   Pulay + GGA                   :  0.549171E-02 -0.564544E-01 -0.269468E-02
   MBD@rsSCS                     :  0.561313E-02 -0.256352E-02 -0.449750E-02
   ----------------------------------------------------------------
   Total forces(  22)            :  0.110193E-02 -0.923159E-02 -0.898111E-02
  atom #   23
   Hellmann-Feynman              : -0.876897E+00  0.582895E+00  0.196243E+00
   Ionic forces                  :  0.000000E+00  0.000000E+00  0.000000E+00
   Multipole                     :  0.232983E+00 -0.222742E+00 -0.743318E-02
   Pulay + GGA                   :  0.634044E+00 -0.347322E+00 -0.191678E+00
   MBD@rsSCS                     :  0.150475E-01 -0.362727E-03 -0.238106E-02
   ----------------------------------------------------------------
   Total forces(  23)            :  0.517804E-02  0.124681E-01 -0.524897E-02
  atom #   24
   Hellmann-Feynman              :  0.510705E-01  0.159783E-01  0.106225E-01
   Ionic forces                  :  0.000000E+00  0.000000E+00  0.000000E+00
   Multipole                     : -0.133966E-01  0.251003E-01  0.194630E-01
   Pulay + GGA                   : -0.387209E-01 -0.433721E-01 -0.286881E-01
   MBD@rsSCS                     :  0.970438E-02 -0.236499E-02 -0.383996E-02
   ----------------------------------------------------------------
   Total forces(  24)            :  0.865740E-02 -0.465849E-02 -0.244250E-02
  atom #   25
   Hellmann-Feynman              :  0.379053E-01 -0.426513E-01 -0.297029E-01
   Ionic forces                  :  0.000000E+00  0.000000E+00  0.000000E+00
   Multipole                     : -0.161409E-01 -0.173510E-01  0.181180E-01
   Pulay + GGA                   : -0.933131E-02  0.587547E-01  0.703489E-02
   MBD@rsSCS                     :  0.127459E-01 -0.180692E-02 -0.188379E-02
   ----------------------------------------------------------------
   Total forces(  25)            :  0.251789E-01 -0.305447E-02 -0.643385E-02
  atom #   26
   Hellmann-Feynman              :  0.430063E-01 -0.148966E-01 -0.291980E-01
   Ionic forces                  :  0.000000E+00  0.000000E+00  0.000000E+00
   Multipole                     : -0.251863E-01  0.154768E-01 -0.264709E-01
   Pulay + GGA                   : -0.182460E-01 -0.305460E-02  0.575428E-01
   MBD@rsSCS                     :  0.113568E-01 -0.104913E-02 -0.142926E-02
   ----------------------------------------------------------------
   Total forces(  26)            :  0.109308E-01 -0.352356E-02  0.444609E-03
  atom #   27
   Hellmann-Feynman              : -0.230073E+00  0.138897E+01 -0.383820E+00
   Ionic forces                  :  0.000000E+00  0.000000E+00  0.000000E+00
   Multipole                     : -0.377440E-01  0.108104E+00  0.260682E-01
   Pulay + GGA                   :  0.260628E+00 -0.151133E+01  0.336458E+00
   MBD@rsSCS                     :  0.996471E-03  0.142977E-01  0.261826E-01
   ----------------------------------------------------------------
   Total forces(  27)            : -0.619247E-02  0.462701E-04  0.488859E-02
  atom #   28
   Hellmann-Feynman              :  0.648247E+00 -0.209546E+01  0.942272E+00
   Ionic forces                  :  0.000000E+00  0.000000E+00  0.000000E+00
   Multipole                     :  0.133201E-01  0.104493E+00 -0.382828E-01
   Pulay + GGA                   : -0.668969E+00  0.197300E+01 -0.908972E+00
   MBD@rsSCS                     :  0.405731E-02  0.183461E-01  0.160544E-01
   ----------------------------------------------------------------
   Total forces(  28)            : -0.334456E-02  0.380205E-03  0.110718E-01
  atom #   29
   Hellmann-Feynman              : -0.233192E-01  0.422944E-01  0.470329E-01
   Ionic forces                  :  0.000000E+00  0.000000E+00  0.000000E+00
   Multipole                     :  0.467927E-02 -0.451170E-01  0.692971E-02
   Pulay + GGA                   :  0.189510E-01  0.186207E-04 -0.650395E-01
   MBD@rsSCS                     :  0.950662E-03 -0.127854E-02  0.698621E-02
   ----------------------------------------------------------------
   Total forces(  29)            :  0.126175E-02 -0.408250E-02 -0.409067E-02
  atom #   30
   Hellmann-Feynman              : -0.183481E-01  0.449522E-01  0.128132E-01
   Ionic forces                  :  0.000000E+00  0.000000E+00  0.000000E+00
   Multipole                     : -0.170329E-01 -0.226778E-01  0.310495E-01
   Pulay + GGA                   :  0.363939E-01 -0.271889E-01 -0.500903E-01
   MBD@rsSCS                     : -0.130179E-02  0.605423E-02  0.910927E-03
   ----------------------------------------------------------------
   Total forces(  30)            : -0.288803E-03  0.113968E-02 -0.531663E-02
  atom #   31
   Hellmann-Feynman              :  0.158916E-01  0.404795E-01 -0.216654E-01
   Ionic forces                  :  0.000000E+00  0.000000E+00  0.000000E+00
   Multipole                     :  0.324934E-01  0.506342E-02  0.102254E-01
   Pulay + GGA                   : -0.483320E-01 -0.472898E-01  0.994308E-02
   MBD@rsSCS                     : -0.236348E-02  0.958924E-02  0.387924E-02
   ----------------------------------------------------------------
   Total forces(  31)            : -0.231050E-02  0.784234E-02  0.238231E-02
  atom #   32
   Hellmann-Feynman              :  0.382494E-02  0.311940E-01 -0.203328E-01
   Ionic forces                  :  0.000000E+00  0.000000E+00  0.000000E+00
   Multipole                     : -0.224548E-01 -0.228287E-01 -0.189516E-01
   Pulay + GGA                   :  0.105443E-01 -0.582457E-02  0.405846E-01
   MBD@rsSCS                     : -0.318434E-02  0.163627E-01  0.633479E-02
   ----------------------------------------------------------------
   Total forces(  32)            : -0.112699E-01  0.189033E-01  0.763507E-02

  Removing unitary transformations (pure translations, rotations) from forces on atoms.
  Atomic forces before filtering:
  | Net force on center of mass :  -0.592249E-03 -0.130070E-04  0.254989E-03 eV/A
  | Net torque on center of mass:   0.754813E-03  0.356852E-02  0.179968E-02 eV
  Atomic forces after filtering:
  | Net force on center of mass :   0.696899E-17  0.000000E+00  0.111504E-16 eV/A
  | Net torque on center of mass:  -0.295026E-16 -0.553175E-17  0.944085E-16 eV

  Energy and forces in a compact form:
  | Total energy uncorrected      :         -0.202089059169555E+05 eV
  | Total energy corrected        :         -0.202089059169555E+05 eV  <-- do not rely on this value for anything but (periodic) metals
  | Electronic free energy        :         -0.202089059169555E+05 eV
  Total atomic forces (unitary forces cleaned) [eV/Ang]:
  |   1         -0.116748648064487E-01          0.702895412241619E-02          0.296521203925294E-01
  |   2         -0.166111157244281E-01          0.105685448450467E-02          0.105567783926307E-01
  |   3         -0.175703376364698E-02          0.229863401065641E-02         -0.508166094124865E-02
  |   4         -0.229277663747886E-01          0.549076382403355E-03          0.297847365282483E-01
  |   5          0.783699404321859E-02         -0.113886628068884E-02         -0.166890304496210E-02
  |   6          0.200398137189720E-02          0.348168012413935E-02          0.122924939285158E-01
  |   7         -0.120402191362005E-01          0.994810151709829E-02         -0.188939904615532E-01
  |   8         -0.168529794346986E-02          0.257495763525377E-02         -0.219314993831554E-01
  |   9          0.138535391172993E-01          0.131860857370134E-01         -0.279429268080329E-01
  |  10          0.546995063830104E-02          0.138890637062790E-01         -0.191141468255070E-02
  |  11         -0.201250281967773E-02         -0.698861588167030E-04          0.299200547684660E-02
  |  12         -0.262428096205397E-02          0.347096721227177E-02         -0.105234559983665E-02
  |  13          0.581954262389483E-02         -0.137660088045934E-01         -0.171545541959719E-01
  |  14          0.568584594569897E-02         -0.335526502409936E-01         -0.135751026821616E-01
  |  15          0.308542646393968E-02         -0.869279399742918E-02          0.658559048597748E-02
  |  16         -0.456359503773031E-02         -0.227723471859332E-01         -0.574783476242437E-02
  |  17          0.119026836343001E-01          0.312084849623338E-01          0.652394048841319E-03
  |  18          0.654111695330312E-02         -0.224088988596231E-01         -0.975375747806178E-02
  |  19          0.672195949366389E-02         -0.361423258819281E-03          0.195539022166188E-01
  |  20         -0.780071923449978E-02         -0.116260235410304E-02          0.302657479688299E-01
  |  21         -0.143443070923018E-01         -0.115657194411113E-02         -0.111899029151262E-01
  |  22          0.109644459718421E-02         -0.920563204218546E-02         -0.900907003661482E-02
  |  23          0.519334510240137E-02          0.125130302762365E-01         -0.532341840324312E-02
  |  24          0.867549379499756E-02         -0.461013997390855E-02         -0.252446363572906E-02
  |  25          0.252142192703847E-01         -0.301137417685828E-02         -0.652174726771526E-02
  |  26          0.109242345233535E-01         -0.346445155336882E-02          0.366179057114335E-03
  |  27         -0.614749671908933E-02          0.368215942744276E-04          0.487425547182753E-02
  |  28         -0.332691979594639E-02          0.372661559372585E-03          0.110768259588185E-01
  |  29          0.132835746201617E-02         -0.410484885269235E-02         -0.410270778070259E-02
  |  30         -0.263935730442368E-03          0.111614781012475E-02         -0.529268956939762E-02
  |  31         -0.230212871592660E-02          0.784712804698110E-02          0.237583911292516E-02
  |  32         -0.112709511792032E-01          0.188998465027655E-01          0.764912060876409E-02

  ------------------------------------ 
  Start decomposition of the XC Energy 
  ------------------------------------ 
  Hartree-Fock part   :          0.000000000 Ha              0.000000000 eV
  ------------------------------------ 
  X Energy            :        -96.985192777 Ha          -2639.101371451 eV
  C Energy GGA        :         -3.869136359 Ha           -105.284557158 eV
  Total XC Energy     :       -100.854329136 Ha          -2744.385928609 eV
  LDA X and C from self-consistent density 
  X Energy LDA        :        -88.002149389 Ha          -2394.660323851 eV
  C Energy LDA        :         -7.532105001 Ha           -204.959005288 eV
  ------------------------------------ 
  End decomposition of the XC Energy 
  ------------------------------------ 
   
  ESP charge fitting starts.
  | Calculation :  00000001  of  00000001
  | Full density
  Computing multipole expansion for total density.
  Generating points for esp charges.
  Partitioning the integration grid into batches with parallel hashing+maxmin method.
  | Number of batches:     3926
  | Maximal batch size:     200
  | Minimal batch size:      53
  | Average batch size:     124.267
  | Standard deviation of batch sizes:      17.038

  Integration load balanced across    32 MPI tasks.
  Work distribution over tasks is as follows:
  Initializing partition tables, free-atom densities, potentials, etc. across the integration grid (initialize_grid_storage).
  | Original list of interatomic distances with          32 x         32 entries is created.
  | Net number of integration points:   487872
  | of which are non-zero points    :   487872
  Summing up potential from multipole expanded  density.
  Summing up the Hartree potential.
  Time summed over all CPUs for potential: real work        6.390 s, elapsed        6.673 s
  Fitting esp charges to potential.
  |
  | ESP charges fitted to the electrostatic potential :
  |
  | Atom         1: C, ESP charge:      0.39753786
  |
  | Atom         2: C, ESP charge:     -0.67174349
  |
  | Atom         3: O, ESP charge:      0.55167933
  |
  | Atom         4: H, ESP charge:     -0.10494897
  |
  | Atom         5: H, ESP charge:     -0.13007969
  |
  | Atom         6: H, ESP charge:     -0.11700948
  |
  | Atom         7: N, ESP charge:      0.63029962
  |
  | Atom         8: C, ESP charge:     -0.34625302
  |
  | Atom         9: C, ESP charge:     -0.24620023
  |
  | Atom        10: O, ESP charge:      0.47372293
  |
  | Atom        11: H, ESP charge:     -0.32286912
  |
  | Atom        12: H, ESP charge:     -0.10503617
  |
  | Atom        13: C, ESP charge:      0.66627498
  |
  | Atom        14: H, ESP charge:     -0.22100300
  |
  | Atom        15: H, ESP charge:     -0.18741128
  |
  | Atom        16: H, ESP charge:     -0.16006105
  |
  | Atom        17: N, ESP charge:      0.45561826
  |
  | Atom        18: C, ESP charge:     -0.73753569
  |
  | Atom        19: C, ESP charge:     -0.10236152
  |
  | Atom        20: O, ESP charge:      0.48743641
  |
  | Atom        21: H, ESP charge:     -0.21821868
  |
  | Atom        22: H, ESP charge:      0.04252368
  |
  | Atom        23: C, ESP charge:      0.56349962
  |
  | Atom        24: H, ESP charge:     -0.13512827
  |
  | Atom        25: H, ESP charge:     -0.16436897
  |
  | Atom        26: H, ESP charge:     -0.11380183
  |
  | Atom        27: N, ESP charge:      0.14805736
  |
  | Atom        28: C, ESP charge:      0.39141932
  |
  | Atom        29: H, ESP charge:     -0.27262260
  |
  | Atom        30: H, ESP charge:     -0.15623974
  |
  | Atom        31: H, ESP charge:     -0.10820975
  |
  | Atom        32: H, ESP charge:     -0.18696682

  RRMS:       0.00514667

  Done.

------------------------------------------------------------------------------
  Final output of selected total energy values:

  The following output summarizes some interesting total energy values
  at the end of a run (AFTER all relaxation, molecular dynamics, etc.).

  | Total energy of the DFT / Hartree-Fock s.c.f. calculation      :         -20208.905916955 eV
  | Final zero-broadening corrected energy (caution - metals only) :         -20208.905916955 eV
  | For reference only, the value of 1 Hartree used in FHI-aims is :             27.211384500 eV

  Before relying on these values, please be sure to understand exactly which
  total energy value is referred to by a given number. Different objects may
  all carry the same name 'total energy'. Definitions:

  Total energy of the DFT / Hartree-Fock s.c.f. calculation:
  | Note that this energy does not include ANY quantities calculated after the
  | s.c.f. cycle, in particular not ANY RPA, MP2, etc. many-body perturbation terms.

  Final zero-broadening corrected energy:
  | For metallic systems only, a broadening of the occupation numbers at the Fermi
  | level can be extrapolated back to zero broadening by an electron-gas inspired
  | formula. For all systems that are not real metals, this value can be
  | meaningless and should be avoided.

------------------------------------------------------------------------------
  Methods described in the following list of references were used in this FHI-aims run.
  If you publish the results, please make sure to cite these reference if they apply.
  FHI-aims is an academic code, and for our developers (often, Ph.D. students
  and postdocs), scientific credit in the community is essential.
  Thank you for helping us!

  For any use of FHI-aims, please cite:

    Volker Blum, Ralf Gehrke, Felix Hanke, Paula Havu, Ville Havu,
    Xinguo Ren, Karsten Reuter, and Matthias Scheffler
    'Ab initio molecular simulations with numeric atom-centered orbitals'
    Computer Physics Communications 180, 2175-2196 (2009)
    http://dx.doi.org/10.1016/j.cpc.2009.06.022


  The scalable eigensolver library ELPA was used in your run.
  ELPA is essential especially for large systems on hundreds or thousands of CPUs.
  For ELPA, please cite:

    Andreas Marek, Volker Blum, Rainer Johanni, Ville Havu, Bruno Lang,
    Thomas Auckenthaler, Alexander Heinecke, Hans-Joachim Bungartz, and Hermann Lederer,
    'The ELPA Library - Scalable Parallel Eigenvalue Solutions
    for Electronic Structure Theory and Computational Science'
    The Journal of Physics: Condensed Matter 26, 213201 (2014).
    http://dx.doi.org/10.1088/0953-8984/26/21/213201


  For ELPA's efficient two-stage tridiagonalization used in your run, please cite:

    T. Auckenthaler, V. Blum, H.-J. Bungartz, T. Huckle, R. Johanni, L. Kraemer,
    B. Lang, H. Lederer, and P. R. Willems,
    'Parallel solution of partial symmetric eigenvalue problems'
    'from  electronic structure calculations'
    Parallel Computing 37, 783-794 (2011).
    http://dx.doi.org/10.1016/j.parco.2011.05.002


  For the real-space grid partitioning and parallelization used in this calculation, please cite:

    Ville Havu, Volker Blum, Paula Havu, and Matthias Scheffler,
    'Efficient O(N) integration for all-electron electronic structure calculation'
    'using numerically tabulated basis functions'
    Journal of Computational Physics 228, 8367-8379 (2009).
    http://dx.doi.org/10.1016/j.jcp.2009.08.008

  Of course, there are many other important community references, e.g., those cited in the
  above references. Our list is limited to references that describe implementations in the
  FHI-aims code. The reason is purely practical (length of this list) - please credit others as well.

------------------------------------------------------------
          Leaving FHI-aims.
          Date     :  20170309, Time     :  182414.756

          Computational steps:
          | Number of self-consistency cycles          :           14

          Detailed time accounting                     :  max(cpu_time)    wall_clock(cpu1)
          | Total time                                 :       33.994 s          34.302 s
          | Preparation time                           :        0.236 s           0.236 s
          | Grid partitioning                          :        0.336 s           0.330 s
          | Preloading free-atom quantities on grid    :        0.028 s           0.027 s
          | Free-atom superposition energy             :        0.044 s           0.041 s
          | Total time for integrations                :       11.625 s          11.597 s
          | Total time for solution of K.-S. equations :        0.528 s           0.494 s
          | Total time for density & force components  :        9.913 s           9.890 s
          | Total time for mixing                      :        0.124 s           0.106 s
          | Total time for Hartree multipole update    :        0.068 s           0.061 s
          | Total time for Hartree multipole sum       :        6.336 s           6.311 s
          | Total time for total energy evaluation     :        0.028 s           0.021 s

          Have a nice day.
------------------------------------------------------------
