  MPI-parallelism will be employed.
------------------------------------------------------------
          Invoking FHI-aims ...
          Version 150427
          Git rev.: 9dd23e0 BL: Update Version stamp
          Compiled on 2015/11/03 at 22:05:20 on host eos03.

          When using FHI-aims, please cite the following reference:

          Volker Blum, Ralf Gehrke, Felix Hanke, Paula Havu,
          Ville Havu, Xinguo Ren, Karsten Reuter, and Matthias Scheffler,
          'Ab Initio Molecular Simulations with Numeric Atom-Centered Orbitals: FHI-aims',
          Computer Physics Communications 180, 2175-2196 (2009)

          For any questions about FHI-aims, please visit the aimsclub website
          with its forums and wiki. Contributions to both the forums and the
          wiki are warmly encouraged - they are for you, and everyone is welcome there.

------------------------------------------------------------

  Date     :  20170309, Time     :  181140.437
  Time zero on CPU 1             :   0.352022000000000E+00  s.
  Internal wall clock time zero  :           258315100.437  s.

  Using       32 parallel tasks.
  Task        0 on host eos306 reporting.
  Task        1 on host eos306 reporting.
  Task        2 on host eos306 reporting.
  Task        3 on host eos306 reporting.
  Task        4 on host eos306 reporting.
  Task        5 on host eos306 reporting.
  Task        6 on host eos306 reporting.
  Task        7 on host eos306 reporting.
  Task        8 on host eos306 reporting.
  Task        9 on host eos306 reporting.
  Task       10 on host eos306 reporting.
  Task       11 on host eos306 reporting.
  Task       12 on host eos306 reporting.
  Task       13 on host eos306 reporting.
  Task       14 on host eos306 reporting.
  Task       15 on host eos306 reporting.
  Task       16 on host eos306 reporting.
  Task       17 on host eos306 reporting.
  Task       18 on host eos306 reporting.
  Task       19 on host eos306 reporting.
  Task       20 on host eos306 reporting.
  Task       21 on host eos306 reporting.
  Task       22 on host eos306 reporting.
  Task       23 on host eos306 reporting.
  Task       24 on host eos306 reporting.
  Task       25 on host eos306 reporting.
  Task       26 on host eos306 reporting.
  Task       27 on host eos306 reporting.
  Task       28 on host eos306 reporting.
  Task       29 on host eos306 reporting.
  Task       30 on host eos306 reporting.
  Task       31 on host eos306 reporting.

  Performing system and environment tests:
  | Environment variable OMP_NUM_THREADS correctly set to 1.
  | Stacksize not measured: no C compiler
  | Checking for scalapack...
  | Testing pdtran()...
  | All pdtran() tests passed.

  Obtaining array dimensions for all initial allocations:
  
  -----------------------------------------------------------------------
  Parsing control.in (first pass over file, find array dimensions only).
  The contents of control.in will be repeated verbatim below
  unless switched off by setting 'verbatim_writeout .false.' .
  in the first line of control.in .
  -----------------------------------------------------------------------
  
  #########################################################################################
  #
  # Input for System
  #
  #########################################################################################
  #
  #
  #  Physical model
  #
    xc                 pbe
    many_body_dispersion
    spin               none
    charge             0.
  #
  #  SCF convergence
  #
    occupation_type    gaussian 0.05
    mixer              pulay
      n_max_pulay        10
      charge_mix_param   0.5
    sc_accuracy_rho    1E-4
    sc_accuracy_eev    1E-2
    sc_accuracy_etot   1E-5
    sc_accuracy_forces 1E-4
    sc_iter_limit      1000
  #
  #  ESP charge
  #
    output esp
    esp equal_grid_n 80 80 80
  #
  #
  ################################################################################
  #
  #  FHI-aims code project
  # Volker Blum, Fritz Haber Institute Berlin, 2009
  #
  #  Suggested "tight" defaults for H atom (to be pasted into control.in file)
  #
  ################################################################################
    species        H
  #     global species definitions
      nucleus             1
      mass                1.00794
  #
      l_hartree           6
  #
      cut_pot             4.0  2.0  1.0
      basis_dep_cutoff    1e-4
  #
      radial_base         24 7.0
      radial_multiplier   2
      angular_grids       specified
        division   0.1930   50
        division   0.3175  110
        division   0.4293  194
        division   0.5066  302
        division   0.5626  434
  #      division   0.5922  590
  #      division   0.6227  974
  #      division   0.6868 1202
  #      outer_grid  770
        outer_grid  434
  ################################################################################
  #
  #  Definition of "minimal" basis
  #
  ################################################################################
  #     valence basis states
      valence      1  s   1.
  #     ion occupancy
      ion_occ      1  s   0.5
  ################################################################################
  #
  #  Suggested additional basis functions. For production calculations,
  #  uncomment them one after another (the most important basis functions are
  #  listed first).
  #
  #  Basis constructed for dimers: 0.5 A, 0.7 A, 1.0 A, 1.5 A, 2.5 A
  #
  ################################################################################
  #  "First tier" - improvements: -1014.90 meV to -62.69 meV
       hydro 2 s 2.1
       hydro 2 p 3.5
  #  "Second tier" - improvements: -12.89 meV to -1.83 meV
       hydro 1 s 0.85
       hydro 2 p 3.7
       hydro 2 s 1.2
       hydro 3 d 7
  #  "Third tier" - improvements: -0.25 meV to -0.12 meV
  #     hydro 4 f 11.2
  #     hydro 3 p 4.8
  #     hydro 4 d 9
  #     hydro 3 s 3.2
  ################################################################################
  #
  # For methods that use the localized form of the "resolution of identity" for
  # the two-electron Coulomb operator (RI_method LVL), particularly Hartree-Fock and
  # hybrid density functional calculations, the highest accuracy can be obtained by
  # uncommenting the line beginning with "for_aux"  below, thus adding an extra g radial
  # function to the construction of the product basis set for the expansion.
  # See Ref. New J. Phys. 17, 093020 (2015) for more information, particularly Figs. 1 and 6.
  #
  ################################################################################
  #
  # for_aux hydro 5 g 6.0
  ################################################################################
  #
  #  FHI-aims code project
  # Volker Blum, Fritz Haber Institute Berlin, 2009
  #
  #  Suggested "tight" defaults for C atom (to be pasted into control.in file)
  #
  ################################################################################
    species        C
  #     global species definitions
      nucleus             6
      mass                12.0107
  #
      l_hartree           6
  #
      cut_pot             4.0  2.0  1.0
      basis_dep_cutoff    1e-4
  #
      radial_base         34 7.0
      radial_multiplier   2
      angular_grids specified
        division   0.2187   50
        division   0.4416  110
        division   0.6335  194
        division   0.7727  302
        division   0.8772  434
  #      division   0.9334  590
  #      division   0.9924  770
  #      division   1.0230  974
  #      division   1.5020 1202
  #     outer_grid  974
        outer_grid  434
  ################################################################################
  #
  #  Definition of "minimal" basis
  #
  ################################################################################
  #     valence basis states
      valence      2  s   2.
      valence      2  p   2.
  #     ion occupancy
      ion_occ      2  s   1.
      ion_occ      2  p   1.
  ################################################################################
  #
  #  Suggested additional basis functions. For production calculations,
  #  uncomment them one after another (the most important basis functions are
  #  listed first).
  #
  #  Constructed for dimers: 1.0 A, 1.25 A, 1.5 A, 2.0 A, 3.0 A
  #
  ################################################################################
  #  "First tier" - improvements: -1214.57 meV to -155.61 meV
       hydro 2 p 1.7
       hydro 3 d 6
       hydro 2 s 4.9
  #  "Second tier" - improvements: -67.75 meV to -5.23 meV
       hydro 4 f 9.8
       hydro 3 p 5.2
       hydro 3 s 4.3
       hydro 5 g 14.4
       hydro 3 d 6.2
  #  "Third tier" - improvements: -2.43 meV to -0.60 meV
  #     hydro 2 p 5.6
  #     hydro 2 s 1.4
  #     hydro 3 d 4.9
  #     hydro 4 f 11.2
  #  "Fourth tier" - improvements: -0.39 meV to -0.18 meV
  #     hydro 2 p 2.1
  #     hydro 5 g 16.4
  #     hydro 4 d 13.2
  #     hydro 3 s 13.6
  #     hydro 4 f 17.6
  #  Further basis functions - improvements: -0.08 meV and below
  #     hydro 3 s 2
  #     hydro 3 p 6
  #     hydro 4 d 20
  ################################################################################
  #
  # For methods that use the localized form of the "resolution of identity" for
  # the two-electron Coulomb operator (RI_method LVL), particularly Hartree-Fock and
  # hybrid density functional calculations, the highest accuracy can be obtained by
  # uncommenting the line beginning with "for_aux"  below, thus adding an extra g radial
  # function to the construction of the product basis set for the expansion.
  # See Ref. New J. Phys. 17, 093020 (2015) for more information, particularly Figs. 1 and 6.
  #
  ################################################################################
  #
  # for_aux hydro 5 g 6.0
  ################################################################################
  #
  #  FHI-aims code project
  # Volker Blum, Fritz Haber Institute Berlin, 2009
  #
  #  Suggested "tight" defaults for N atom (to be pasted into control.in file)
  #
  ################################################################################
    species        N
  #     global species definitions
      nucleus             7
      mass                14.0067
  #
      l_hartree           6
  #
      cut_pot             4.0  2.0  1.0
      basis_dep_cutoff    1e-4
  #
      radial_base         35 7.0
      radial_multiplier   2
      angular_grids       specified
        division   0.1841   50
        division   0.3514  110
        division   0.5126  194
        division   0.6292  302
        division   0.6939  434
  #      division   0.7396  590
  #      division   0.7632  770
  #      division   0.8122  974
  #      division   1.1604 1202
  #      outer_grid  974
        outer_grid  434
  ################################################################################
  #
  #  Definition of "minimal" basis
  #
  ################################################################################
  #     valence basis states
      valence      2  s   2.
      valence      2  p   3.
  #     ion occupancy
      ion_occ      2  s   1.
      ion_occ      2  p   2.
  ################################################################################
  #
  #  Suggested additional basis functions. For production calculations,
  #  uncomment them one after another (the most important basis functions are
  #  listed first).
  #
  #  Constructed for dimers: 1.0 A, 1.1 A, 1.5 A, 2.0 A, 3.0 A
  #
  ################################################################################
  #  "First tier" - improvements: -1193.42 meV to -220.60 meV
       hydro 2 p 1.8
       hydro 3 d 6.8
       hydro 3 s 5.8
  #  "Second tier" - improvements: -80.21 meV to -6.86 meV
       hydro 4 f 10.8
       hydro 3 p 5.8
       hydro 1 s 0.8
       hydro 5 g 16
       hydro 3 d 4.9
  #  "Third tier" - improvements: -4.29 meV to -0.53 meV
  #     hydro 3 s 16
  #     ionic 2 p auto
  #     hydro 3 d 6.6
  #     hydro 4 f 11.6
  #  "Fourth tier" - improvements: -0.75 meV to -0.25 meV
  #     hydro 2 p 4.5
  #     hydro 2 s 2.4
  #     hydro 5 g 14.4
  #     hydro 4 d 14.4
  #     hydro 4 f 16.8
  # Further basis functions - -0.21 meV and below
  #     hydro 3 p 14.8
  #     hydro 3 s 4.4
  #     hydro 3 d 19.6
  #     hydro 5 g 12.8
  ################################################################################
  #
  # For methods that use the localized form of the "resolution of identity" for
  # the two-electron Coulomb operator (RI_method LVL), particularly Hartree-Fock and
  # hybrid density functional calculations, the highest accuracy can be obtained by
  # uncommenting the line beginning with "for_aux"  below, thus adding an extra g radial
  # function to the construction of the product basis set for the expansion.
  # See Ref. New J. Phys. 17, 093020 (2015) for more information, particularly Figs. 1 and 6.
  #
  ################################################################################
  #
  # for_aux hydro 5 g 6.0
  ################################################################################
  #
  #  FHI-aims code project
  # Volker Blum, Fritz Haber Institute Berlin, 2009
  #
  #  Suggested "tight" defaults for O atom (to be pasted into control.in file)
  #
  ################################################################################
    species        O
  #     global species definitions
      nucleus             8
      mass                15.9994
  #
      l_hartree           6
  #
      cut_pot             4.0  2.0  1.0
      basis_dep_cutoff    1e-4
  #
      radial_base         36 7.0
      radial_multiplier   2
       angular_grids specified
        division   0.1817   50
        division   0.3417  110
        division   0.4949  194
        division   0.6251  302
        division   0.8014  434
  #      division   0.8507  590
  #      division   0.8762  770
  #      division   0.9023  974
  #      division   1.2339 1202
  #      outer_grid 974
        outer_grid  434
  ################################################################################
  #
  #  Definition of "minimal" basis
  #
  ################################################################################
  #     valence basis states
      valence      2  s   2.
      valence      2  p   4.
  #     ion occupancy
      ion_occ      2  s   1.
      ion_occ      2  p   3.
  ################################################################################
  #
  #  Suggested additional basis functions. For production calculations,
  #  uncomment them one after another (the most important basis functions are
  #  listed first).
  #
  #  Constructed for dimers: 1.0 A, 1.208 A, 1.5 A, 2.0 A, 3.0 A
  #
  ################################################################################
  #  "First tier" - improvements: -699.05 meV to -159.38 meV
       hydro 2 p 1.8
       hydro 3 d 7.6
       hydro 3 s 6.4
  #  "Second tier" - improvements: -49.91 meV to -5.39 meV
       hydro 4 f 11.6
       hydro 3 p 6.2
       hydro 3 d 5.6
       hydro 5 g 17.6
       hydro 1 s 0.75
  #  "Third tier" - improvements: -2.83 meV to -0.50 meV
  #     ionic 2 p auto
  #     hydro 4 f 10.8
  #     hydro 4 d 4.7
  #     hydro 2 s 6.8
  #  "Fourth tier" - improvements: -0.40 meV to -0.12 meV
  #     hydro 3 p 5
  #     hydro 3 s 3.3
  #     hydro 5 g 15.6
  #     hydro 4 f 17.6
  #     hydro 4 d 14
  # Further basis functions - -0.08 meV and below
  #     hydro 3 s 2.1
  #     hydro 4 d 11.6
  #     hydro 3 p 16
  #     hydro 2 s 17.2
  ################################################################################
  #
  # For methods that use the localized form of the "resolution of identity" for
  # the two-electron Coulomb operator (RI_method LVL), particularly Hartree-Fock and
  # hybrid density functional calculations, the highest accuracy can be obtained by
  # uncommenting the line beginning with "for_aux"  below, thus adding an extra g radial
  # function to the construction of the product basis set for the expansion.
  # See Ref. New J. Phys. 17, 093020 (2015) for more information, particularly Figs. 1 and 6.
  #
  ################################################################################
  #
  # for_aux hydro 5 g 6.0
  
  -----------------------------------------------------------------------
  Completed first pass over input file control.in .
  -----------------------------------------------------------------------
  
  
  -----------------------------------------------------------------------
  Parsing geometry.in (first pass over file, find array dimensions only).
  The contents of geometry.in will be repeated verbatim below
  unless switched off by setting 'verbatim_writeout .false.' .
  in the first line of geometry.in .
  -----------------------------------------------------------------------
  
  #
  # This is the geometry file that corresponds to the current relaxation step.
  # If you do not want this file to be written, set the "write_restart_geometry" flag to .false.
  #
  atom       0.09060366     -0.69680783      0.10397402 C
  atom      -0.04076003     -0.81823159      1.61524410 C
  atom       0.86262559     -1.28261578      2.30721837 O
  atom       1.04008818     -1.15340480     -0.18766395 H
  atom       0.09686372      0.35835001     -0.20686905 H
  atom      -0.72801978     -1.19804017     -0.43051577 H
  atom      -1.20741159     -0.37372435      2.17759566 N
  atom      -2.35733580      0.21488315      1.52453717 C
  atom      -3.01222007      1.17443872      2.54590444 C
  atom      -2.85037026      1.02227108      3.75034327 O
  atom      -1.24850703     -0.37105920      3.19730041 H
  atom      -2.02358334      0.80416141      0.65579542 H
  atom      -3.38669932     -0.83934607      1.06756097 C
  atom      -4.23951005     -0.37454494      0.55425094 H
  atom      -3.76345481     -1.39353872      1.93701972 H
  atom      -2.91925888     -1.55684087      0.38161250 H
  atom      -3.83559103      2.10935333      1.97412544 N
  atom      -4.40369468      3.26212561      2.66330512 C
  atom      -3.31095760      4.35890010      2.82037309 C
  atom      -2.12381338      4.10954562      2.64358600 O
  atom      -3.70073653      2.23935488      0.97705503 H
  atom      -5.17629265      3.65566154      1.98224679 H
  atom      -5.08524110      2.89733320      3.99133251 C
  atom      -5.70809035      3.72703560      4.34485514 H
  atom      -4.34919263      2.64520243      4.75915305 H
  atom      -5.73542582      2.02608579      3.84406344 H
  atom      -3.72759773      5.62360060      3.13741512 N
  atom      -5.07013741      6.13954829      3.33920073 C
  atom      -2.95175691      6.26737513      3.26219293 H
  atom      -5.41137712      6.04653630      4.38211846 H
  atom      -5.79255172      5.62729112      2.69205591 H
  atom      -5.08740353      7.20183742      3.06723200 H
  
  -----------------------------------------------------------------------
  Completed first pass over input file geometry.in .
  -----------------------------------------------------------------------
  

  Basic array size parameters:
  | Number of species                 :        4
  | Number of atoms                   :       32
  | Max. basis fn. angular momentum   :        4
  | Max. atomic/ionic basis occupied n:        2
  | Max. number of basis fn. types    :        2
  | Max. radial fns per species/type  :        8
  | Max. logarithmic grid size        :     1301
  | Max. radial integration grid size :       73
  | Max. angular integration grid size:      434
  | Max. angular grid division number :        8
  | Radial grid for Hartree potential :     1301
  | Number of spin channels           :        1

------------------------------------------------------------
          Reading file control.in.
------------------------------------------------------------
  XC: Using PBE gradient-corrected functionals.
  Self-consistent screening and van der Waals energy (TS, TS+SCS,MBD) module
  Spin treatment: No spin polarisation.
  Charge =   0.000000E+00: Neutral system requested explicitly.
  Occupation type: Gaussian broadening, width =   0.500000E-01 eV.
  Using pulay charge density mixing.
  Pulay mixing - number of memorized iterations:   10
  Charge density mixing - mixing parameter:     0.5000
  Convergence accuracy of self-consistent charge density:  0.1000E-03
  Convergence accuracy of sum of eigenvalues:  0.1000E-01
  Convergence accuracy of total energy:  0.1000E-04
  Convergence accuracy of forces:  0.1000E-03
  Maximum number of s.-c. iterations  :  1000
  Fitting ESP-charges to Potential. 
  | Esp charge output options: 
  | ESP Grid method: 3, cubic grid
  | Number of points in x, ,y, z:  0080 0080 0080
  |
 
  Reading configuration options for species H                   .
  | Found nuclear charge :   1.0000
  | Found atomic mass :    1.00794000000000      amu
  | Found l_max for Hartree potential  :   6
  | Found cutoff potl. onset [A], width [A], scale factor :    4.00000    2.00000    1.00000
  | Threshold for basis-dependent cutoff potential is   0.100000E-03
  | Found data for basic radial integration grid :    24 points, outermost radius =    7.000 A
  | Found multiplier for basic radial grid :   2
  | Found angular grid specification: user-specified.
  | Specified grid contains     6 separate shells.
  | Check grid settings after all constraints further below.
  | Found free-atom valence shell :  1 s   1.000
  | No ionic wave fns used. Skipping ion_occ.
  | Found hydrogenic basis function :  2 s   2.100
  | Found hydrogenic basis function :  2 p   3.500
  | Found hydrogenic basis function :  1 s   0.850
  | Found hydrogenic basis function :  2 p   3.700
  | Found hydrogenic basis function :  2 s   1.200
  | Found hydrogenic basis function :  3 d   7.000
  Species H                   : Missing cutoff potential type.
  Defaulting to exp(1/x)/(1-x)^2 type cutoff potential.
  Species H : No 'logarithmic' tag. Using default grid for free atom:
  | Default logarithmic grid data [bohr] : 0.1000E-03 0.1000E+03 0.1012E+01
  Species H : On-site basis accuracy parameter (for Gram-Schmidt orthonormalisation) not specified.
  Using default value basis_acc =  0.1000000E-03.
  Species H                   : Using default innermost maximum threshold i_radial=  2 for radial functions.
  Species H                   : Default cutoff onset for free atom density etc. : 0.40000000E+01 AA.
  Species H                   : Basic radial grid will be enhanced according to radial_multiplier =   2, to contain    49 grid points.
 
  Reading configuration options for species C                   .
  | Found nuclear charge :   6.0000
  | Found atomic mass :    12.0107000000000      amu
  | Found l_max for Hartree potential  :   6
  | Found cutoff potl. onset [A], width [A], scale factor :    4.00000    2.00000    1.00000
  | Threshold for basis-dependent cutoff potential is   0.100000E-03
  | Found data for basic radial integration grid :    34 points, outermost radius =    7.000 A
  | Found multiplier for basic radial grid :   2
  | Found angular grid specification: user-specified.
  | Specified grid contains     6 separate shells.
  | Check grid settings after all constraints further below.
  | Found free-atom valence shell :  2 s   2.000
  | Found free-atom valence shell :  2 p   2.000
  | No ionic wave fns used. Skipping ion_occ.
  | No ionic wave fns used. Skipping ion_occ.
  | Found hydrogenic basis function :  2 p   1.700
  | Found hydrogenic basis function :  3 d   6.000
  | Found hydrogenic basis function :  2 s   4.900
  | Found hydrogenic basis function :  4 f   9.800
  | Found hydrogenic basis function :  3 p   5.200
  | Found hydrogenic basis function :  3 s   4.300
  | Found hydrogenic basis function :  5 g  14.400
  | Found hydrogenic basis function :  3 d   6.200
  Species C                   : Missing cutoff potential type.
  Defaulting to exp(1/x)/(1-x)^2 type cutoff potential.
  Species C : No 'logarithmic' tag. Using default grid for free atom:
  | Default logarithmic grid data [bohr] : 0.1000E-03 0.1000E+03 0.1012E+01
  Species C : On-site basis accuracy parameter (for Gram-Schmidt orthonormalisation) not specified.
  Using default value basis_acc =  0.1000000E-03.
  Species C                   : Using default innermost maximum threshold i_radial=  2 for radial functions.
  Species C                   : Default cutoff onset for free atom density etc. : 0.40000000E+01 AA.
  Species C                   : Basic radial grid will be enhanced according to radial_multiplier =   2, to contain    69 grid points.
 
  Reading configuration options for species N                   .
  | Found nuclear charge :   7.0000
  | Found atomic mass :    14.0067000000000      amu
  | Found l_max for Hartree potential  :   6
  | Found cutoff potl. onset [A], width [A], scale factor :    4.00000    2.00000    1.00000
  | Threshold for basis-dependent cutoff potential is   0.100000E-03
  | Found data for basic radial integration grid :    35 points, outermost radius =    7.000 A
  | Found multiplier for basic radial grid :   2
  | Found angular grid specification: user-specified.
  | Specified grid contains     6 separate shells.
  | Check grid settings after all constraints further below.
  | Found free-atom valence shell :  2 s   2.000
  | Found free-atom valence shell :  2 p   3.000
  | No ionic wave fns used. Skipping ion_occ.
  | No ionic wave fns used. Skipping ion_occ.
  | Found hydrogenic basis function :  2 p   1.800
  | Found hydrogenic basis function :  3 d   6.800
  | Found hydrogenic basis function :  3 s   5.800
  | Found hydrogenic basis function :  4 f  10.800
  | Found hydrogenic basis function :  3 p   5.800
  | Found hydrogenic basis function :  1 s   0.800
  | Found hydrogenic basis function :  5 g  16.000
  | Found hydrogenic basis function :  3 d   4.900
  Species N                   : Missing cutoff potential type.
  Defaulting to exp(1/x)/(1-x)^2 type cutoff potential.
  Species N : No 'logarithmic' tag. Using default grid for free atom:
  | Default logarithmic grid data [bohr] : 0.1000E-03 0.1000E+03 0.1012E+01
  Species N : On-site basis accuracy parameter (for Gram-Schmidt orthonormalisation) not specified.
  Using default value basis_acc =  0.1000000E-03.
  Species N                   : Using default innermost maximum threshold i_radial=  2 for radial functions.
  Species N                   : Default cutoff onset for free atom density etc. : 0.40000000E+01 AA.
  Species N                   : Basic radial grid will be enhanced according to radial_multiplier =   2, to contain    71 grid points.
 
  Reading configuration options for species O                   .
  | Found nuclear charge :   8.0000
  | Found atomic mass :    15.9994000000000      amu
  | Found l_max for Hartree potential  :   6
  | Found cutoff potl. onset [A], width [A], scale factor :    4.00000    2.00000    1.00000
  | Threshold for basis-dependent cutoff potential is   0.100000E-03
  | Found data for basic radial integration grid :    36 points, outermost radius =    7.000 A
  | Found multiplier for basic radial grid :   2
  | Found angular grid specification: user-specified.
  | Specified grid contains     6 separate shells.
  | Check grid settings after all constraints further below.
  | Found free-atom valence shell :  2 s   2.000
  | Found free-atom valence shell :  2 p   4.000
  | No ionic wave fns used. Skipping ion_occ.
  | No ionic wave fns used. Skipping ion_occ.
  | Found hydrogenic basis function :  2 p   1.800
  | Found hydrogenic basis function :  3 d   7.600
  | Found hydrogenic basis function :  3 s   6.400
  | Found hydrogenic basis function :  4 f  11.600
  | Found hydrogenic basis function :  3 p   6.200
  | Found hydrogenic basis function :  3 d   5.600
  | Found hydrogenic basis function :  5 g  17.600
  | Found hydrogenic basis function :  1 s   0.750
  Species O                   : Missing cutoff potential type.
  Defaulting to exp(1/x)/(1-x)^2 type cutoff potential.
  Species O : No 'logarithmic' tag. Using default grid for free atom:
  | Default logarithmic grid data [bohr] : 0.1000E-03 0.1000E+03 0.1012E+01
  Species O : On-site basis accuracy parameter (for Gram-Schmidt orthonormalisation) not specified.
  Using default value basis_acc =  0.1000000E-03.
  Species O                   : Using default innermost maximum threshold i_radial=  2 for radial functions.
  Species O                   : Default cutoff onset for free atom density etc. : 0.40000000E+01 AA.
  Species O                   : Basic radial grid will be enhanced according to radial_multiplier =   2, to contain    73 grid points.
 
  Finished reading input file 'control.in'. Consistency checks are next.
 
  Target number of points in a grid batch is not set. Defaulting to  100
  Method for grid partitioning is not set. Defaulting to parallel hash+maxmin partitioning.
  Batch size limit is not set. Defaulting to    200
  By default, will store active basis functions for each batch.
  If in need of memory, prune_basis_once .false. can be used to disable this option.
  communication_type for Hartree potential was not specified.
  Defaulting to calc_hartree .
  Pulay mixer: Number of initial linear mixing iterations not set.
  Defaulting to    0 iterations.
  Work space size for distributed Hartree potential not set.
  Defaulting to   0.200000E+03 MB.
  Algorithm-dependent basis array size parameters:
  | n_max_pulay                         :       10
  Geometry relaxation not requested: no relaxation will be performed.
  Handling of forces: Unphysical translation and rotation will be removed from forces.
  No accuracy limit for integral partition fn. given. Defaulting to  0.1000E-14.
  No threshold value for u(r) in integrations given. Defaulting to  0.1000E-05.
  No accuracy for occupation numbers given. Defaulting to  0.1000E-07.
  No threshold value for occupation numbers given. Defaulting to  0.0000E+00.
  No accuracy for fermi level given. Defaulting to  0.1000E-19.
  Maximum # of iterations to find E_F not set. Defaulting to  200.
  Preferred method for the eigenvalue solver ('KS_method') not specified in 'control.in'.
  Calling blacs routine to test compilation state
  Since scalapack support is enabled, defaulting to 'elpa'.
  Preferred method for the MBD eigenvalue solver ('mbd_eigensolver') not specified in 'control.in'.
  Calling blacs routine to test compilation state
  Since scalapack support is enabled, defaulting to 'scaLAPACK'.
  Will not use alltoall communication since running on < 1024 CPUs.
  Threshold for basis singularities not set.
  Default threshold for basis singularities:  0.1000E-04
  partition_type (choice of integration weights) for integrals was not specified.
  | Using a version of the partition function of Stratmann and coworkers ('stratmann_smoother').
  | At each grid point, the set of atoms used to build the partition table is smoothly restricted to
  | only those atoms whose free-atom density would be non-zero at that grid point.
  Partitioning for Hartree potential was not defined. Using partition_type for integrals.
  | Adjusted default value of keyword multip_moments_threshold to:       0.10000000E-11
  | This value may affect high angular momentum components of the Hartree potential in periodic systems.
  No q(lm)/r^(l+1) cutoff set for long-range Hartree potential.
  | Using default value of  0.100000E-09 .
  | Verify using the multipole_threshold keyword.
  Defaulting to new monopole extrapolation.
  Density update method: automatic selection selected.
------------------------------------------------------------


------------------------------------------------------------
          Reading geometry description geometry.in.
------------------------------------------------------------
 * Warning! You did not set the 'relativistic' flag in input file 'control.in'.
 * Since you are not attempting to treat any elements beyond Ca(Z=20), FHI-aims
 * will default to 'relativistic none'.
 * You must ensure that this is really what you want!!
 * For example, DO NOT compute total-energy differences between results from
 * different settings of the 'relativistic' flag.
  Input structure read successfully.
  The structure contains       32 atoms,  and a total of        116.000 electrons.

  Input geometry:
  | No unit cell requested.
  | Atomic structure:
  |       Atom                x [A]            y [A]            z [A]
  |    1: Species C              0.090604        -0.696808         0.103974
  |    2: Species C             -0.040760        -0.818232         1.615244
  |    3: Species O              0.862626        -1.282616         2.307218
  |    4: Species H              1.040088        -1.153405        -0.187664
  |    5: Species H              0.096864         0.358350        -0.206869
  |    6: Species H             -0.728020        -1.198040        -0.430516
  |    7: Species N             -1.207412        -0.373724         2.177596
  |    8: Species C             -2.357336         0.214883         1.524537
  |    9: Species C             -3.012220         1.174439         2.545904
  |   10: Species O             -2.850370         1.022271         3.750343
  |   11: Species H             -1.248507        -0.371059         3.197300
  |   12: Species H             -2.023583         0.804161         0.655795
  |   13: Species C             -3.386699        -0.839346         1.067561
  |   14: Species H             -4.239510        -0.374545         0.554251
  |   15: Species H             -3.763455        -1.393539         1.937020
  |   16: Species H             -2.919259        -1.556841         0.381613
  |   17: Species N             -3.835591         2.109353         1.974125
  |   18: Species C             -4.403695         3.262126         2.663305
  |   19: Species C             -3.310958         4.358900         2.820373
  |   20: Species O             -2.123813         4.109546         2.643586
  |   21: Species H             -3.700737         2.239355         0.977055
  |   22: Species H             -5.176293         3.655662         1.982247
  |   23: Species C             -5.085241         2.897333         3.991333
  |   24: Species H             -5.708090         3.727036         4.344855
  |   25: Species H             -4.349193         2.645202         4.759153
  |   26: Species H             -5.735426         2.026086         3.844063
  |   27: Species N             -3.727598         5.623601         3.137415
  |   28: Species C             -5.070137         6.139548         3.339201
  |   29: Species H             -2.951757         6.267375         3.262193
  |   30: Species H             -5.411377         6.046536         4.382118
  |   31: Species H             -5.792552         5.627291         2.692056
  |   32: Species H             -5.087404         7.201837         3.067232
  |

  | The smallest distance between any two atoms is         1.01451247 AA.
  |
  | The first atom of this pair is atom number                     17 .
  | The second atom of this pair is atom number                    21 .

  Number of empty states per atom not set in control.in - providing a guess from actual geometry.
  | Total number of empty states used during s.c.f. cycle:       71
  If you use a very high smearing, use empty_states (per atom!) in control.in to increase this value.

  Structure-dependent array size parameters: 
  | Maximum number of distinct radial functions  :       40
  | Maximum number of basis functions            :      840
  | Number of Kohn-Sham states (occupied + empty):      129
------------------------------------------------------------

------------------------------------------------------------
          Preparing all fixed parts of the calculation.
------------------------------------------------------------
  Determining machine precision:
    2.225073858507201E-308
  Setting up grids for atomic and cluster calculations.

  Creating wave function, potential, and density for free atoms.

  Species: H

  List of occupied orbitals and eigenvalues:
    n    l              occ      energy [Ha]    energy [eV]
    1    0           1.0000        -0.238382        -6.4867


  Species: C

  List of occupied orbitals and eigenvalues:
    n    l              occ      energy [Ha]    energy [eV]
    1    0           2.0000       -10.041232      -273.2358
    2    0           2.0000        -0.504327       -13.7234
    2    1           2.0000        -0.193750        -5.2722


  Species: N

  List of occupied orbitals and eigenvalues:
    n    l              occ      energy [Ha]    energy [eV]
    1    0           2.0000       -14.129007      -384.4699
    2    0           2.0000        -0.681802       -18.5528
    2    1           3.0000        -0.260543        -7.0897


  Species: O

  List of occupied orbitals and eigenvalues:
    n    l              occ      energy [Ha]    energy [eV]
    1    0           2.0000       -18.898576      -514.2564
    2    0           2.0000        -0.878795       -23.9132
    2    1           4.0000        -0.332075        -9.0362

  Creating fixed part of basis set: Ionic, confined, hydrogenic.
 
  H                    hydrogenic:
 
  List of hydrogenic basis orbitals: 
    n    l      effective z      eigenvalue [eV]  inner max. [A]     outer max. [A]     outer radius [A]   
    2    0         2.100000       -14.9965           0.193243           1.317208           5.373006
    2    1         3.500000       -41.6672           0.602369           0.602369           4.056063
    1    0         0.850000        -9.8292           0.624871           0.624871           5.373006
    2    1         3.700000       -46.5653           0.573622           0.573622           3.910002
    2    0         1.200000        -4.5995           0.334980           2.228188           5.505995
    3    2         7.000000       -74.0753           0.680699           0.680699           3.769201
 
 
  C                    hydrogenic:
 
  List of hydrogenic basis orbitals: 
    n    l      effective z      eigenvalue [eV]  inner max. [A]     outer max. [A]     outer radius [A]   
    2    1         1.700000        -9.8152           1.245706           1.245706           5.401630
    3    2         6.000000       -54.4226           0.792453           0.792453           4.178599
    2    0         4.900000       -81.6681           0.082559           0.562749           3.353238
    4    3         9.800000       -81.6681           0.863254           0.863254           4.028125
    3    1         5.200000       -40.8774           0.305389           1.215618           4.898362
    3    0         4.300000       -27.9508           0.091041           1.610311           5.401630
    5    4        14.400000      -112.8510           0.917666           0.917666           3.883070
    3    2         6.200000       -58.1113           0.763917           0.763917           4.077671
 
 
  N                    hydrogenic:
 
  List of hydrogenic basis orbitals: 
    n    l      effective z      eigenvalue [eV]  inner max. [A]     outer max. [A]     outer radius [A]   
    2    1         1.800000       -11.0118           1.177451           1.177451           5.427479
    3    2         6.800000       -69.9029           0.704619           0.704619           3.854246
    3    0         5.800000       -50.8549           0.067388           1.191934           4.629968
    4    3        10.800000       -99.1854           0.786571           0.786571           3.761152
    3    1         5.800000       -50.8549           0.274880           1.094176           4.518138
    1    0         0.800000        -8.7059           0.662839           0.662839           5.361532
    5    4        16.000000      -139.3222           0.825990           0.825990           3.625711
    3    2         4.900000       -36.2967           0.968267           0.968267           4.862000
 
 
  O                    hydrogenic:
 
  List of hydrogenic basis orbitals: 
    n    l      effective z      eigenvalue [eV]  inner max. [A]     outer max. [A]     outer radius [A]   
    2    1         1.800000       -11.0118           1.178562           1.178562           5.432602
    3    2         7.600000       -87.3182           0.624125           0.624125           3.541477
    3    0         6.400000       -61.9209           0.061167           1.081902           4.306578
    4    3        11.600000      -114.4238           0.731631           0.731631           3.585037
    3    1         6.200000       -58.1113           0.255680           1.030270           4.306578
    3    2         5.600000       -47.4081           0.847233           0.847233           4.413171
    5    4        17.600000      -168.5799           0.749740           0.749740           3.372465
    1    0         0.750000        -7.6499           0.705284           0.705284           5.366593
 

  Adding cutoff potential to free-atom effective potential.
  Creating atomic-like basis functions for current effective potential.

  Species H                   :

  List of atomic basis orbitals and eigenvalues:
    n    l      energy [Ha]    energy [eV]    outer radius [A]
    1    0        -0.238382        -6.4867       5.373006


  Species C                   :

  List of atomic basis orbitals and eigenvalues:
    n    l      energy [Ha]    energy [eV]    outer radius [A]
    1    0       -10.041232      -273.2358       1.934409
    2    0        -0.504327       -13.7234       5.271162
    2    1        -0.193750        -5.2722       5.401630


  Species N                   :

  List of atomic basis orbitals and eigenvalues:
    n    l      energy [Ha]    energy [eV]    outer radius [A]
    1    0       -14.129007      -384.4699       1.637919
    2    0        -0.681802       -18.5528       5.168461
    2    1        -0.260543        -7.0897       5.361532


  Species O                   :

  List of atomic basis orbitals and eigenvalues:
    n    l      energy [Ha]    energy [eV]    outer radius [A]
    1    0       -18.898576      -514.2564       1.415765
    2    0        -0.878795       -23.9132       5.048385
    2    1        -0.332075        -9.0362       5.301386

  Assembling full basis from fixed parts.
  | Species H :   atomic orbital   1 s accepted.
  | Species H :    hydro orbital   2 s accepted.
  | Species H :    hydro orbital   1 s accepted.
  | Species H :    hydro orbital   2 s accepted.
  | Species H :    hydro orbital   2 p accepted.
  | Species H :    hydro orbital   2 p accepted.
  | Species H :    hydro orbital   3 d accepted.
  | Species C :   atomic orbital   1 s accepted.
  | Species C :    hydro orbital   2 s accepted.
  | Species C :   atomic orbital   2 s accepted.
  | Species C :    hydro orbital   3 s accepted.
  | Species C :    hydro orbital   3 p accepted.
  | Species C :   atomic orbital   2 p accepted.
  | Species C :    hydro orbital   2 p accepted.
  | Species C :    hydro orbital   3 d accepted.
  | Species C :    hydro orbital   3 d accepted.
  | Species C :    hydro orbital   4 f accepted.
  | Species C :    hydro orbital   5 g accepted.
  | Species N :   atomic orbital   1 s accepted.
  | Species N :    hydro orbital   3 s accepted.
  | Species N :   atomic orbital   2 s accepted.
  | Species N :    hydro orbital   1 s accepted.
  | Species N :    hydro orbital   3 p accepted.
  | Species N :   atomic orbital   2 p accepted.
  | Species N :    hydro orbital   2 p accepted.
  | Species N :    hydro orbital   3 d accepted.
  | Species N :    hydro orbital   3 d accepted.
  | Species N :    hydro orbital   4 f accepted.
  | Species N :    hydro orbital   5 g accepted.
  | Species O :   atomic orbital   1 s accepted.
  | Species O :    hydro orbital   3 s accepted.
  | Species O :   atomic orbital   2 s accepted.
  | Species O :    hydro orbital   1 s accepted.
  | Species O :    hydro orbital   3 p accepted.
  | Species O :   atomic orbital   2 p accepted.
  | Species O :    hydro orbital   2 p accepted.
  | Species O :    hydro orbital   3 d accepted.
  | Species O :    hydro orbital   3 d accepted.
  | Species O :    hydro orbital   4 f accepted.
  | Species O :    hydro orbital   5 g accepted.
 
  Basis size parameters after reduction:
  | Total number of radial functions:       40
  | Total number of basis functions :      840
 
  Testing on-site integration grid accuracy.
  |  Species  Function  <phi|h_atom|phi> (log., in eV)  <phi|h_atom|phi> (rad., in eV)
           1        1                 -6.4869821809                 -6.4870742227
           1        2                 13.5044133542                 13.5041049177
           1        3                 32.7854418792                 32.7779770519
           1        4                 33.7995553101                 33.7152624900 ***
           1        5                 28.8558651799                 28.8558652046
           1        6                 59.6361831893                 59.6362535845
           1        7                 60.2733718049                 60.2733715484
           2        8               -273.2358277112               -273.2358261765
           2        9                -10.7624923123                -10.7625144012
           2       10                 17.4634079027                 17.4634252127
           2       11                 53.0363661832                 53.0366180446
           2       12                 15.0981351967                 15.0981317714
           2       13                  3.8522181899                  3.8522770949
           2       14                 12.1181835661                 12.1206868578
           2       15                 29.4320778347                 29.4320780959
           2       16                 54.8753777694                 54.8752901936
           2       17                 59.3533975461                 59.3533974833
           2       18                 93.4537491195                 93.4537492066
           3       19               -384.4698526889               -384.4698499465
           3       20                 12.5691022037                 12.5690910168
           3       21                -15.7489097511                -15.7489165588
           3       22                 27.0978334940                 27.0985589490
           3       23                 18.5949116966                 18.5949125562
           3       24                  1.2212828291                  1.2212855301
           3       25                 13.4428926797                 13.4434051125
           3       26                 35.9380614500                 35.9380613666
           3       27                 39.9231532098                 39.9231654735
           3       28                 72.9957335806                 72.9957336833
           3       29                116.4231321147                116.4231321431
           4       30               -514.2564144315               -514.2564099626
           4       31                 15.1726678541                 15.1726530877
           4       32                -21.5447785304                -21.5447874973
           4       33                 14.4944558459                 14.4944698284
           4       34                 20.8882174564                 20.8882178906
           4       35                 -2.4850315908                 -2.4850322289
           4       36                 13.8600193195                 13.8599826966
           4       37                 45.8243383616                 45.8243383675
           4       38                 52.1840606465                 52.1840622440
           4       39                 85.4074185510                 85.4074185819
           4       40                142.0983717302                142.0983717339
 * Note: Onsite integrals marked "***" above are less accurate than
 * onsite_accuracy_threshold =    0.03000 eV. Usually, this is harmless.
 * When in doubt, tighten the "radial" and/or "radial_multiplier" flags to check.

  Preparing densities etc. for the partition functions (integrals / Hartree potential).

  Preparations completed.
  max(cpu_time)          :      0.236 s.
  Wall clock time (cpu1) :      0.236 s.
------------------------------------------------------------

------------------------------------------------------------
          Begin self-consistency loop: Initialization.

          Date     :  20170309, Time     :  181141.457
------------------------------------------------------------

  Initializing index lists of integration centers etc. from given atomic structure:
  | Number of centers in hartree potential         :        32
  | Number of centers in hartree multipole         :        32
  | Number of centers in electron density summation:        32
  | Number of centers in basis integrals           :        32
  | Number of centers in integrals                 :        32
  | Number of centers in hamiltonian               :        32
  Using modified Scalapack Eigenvalue solver (ELPA)
  * Using 32 tasks for Scalapack Eigenvalue solver.
  Detailed listing of tasks and assigned k-points:
  (for non-periodic systems, the "k-point" denotes an internal label only)
   Task     0 k-point     1 on eos306
   Task     1 k-point     1 on eos306
   Task     2 k-point     1 on eos306
   Task     3 k-point     1 on eos306
   Task     4 k-point     1 on eos306
   Task     5 k-point     1 on eos306
   Task     6 k-point     1 on eos306
   Task     7 k-point     1 on eos306
   Task     8 k-point     1 on eos306
   Task     9 k-point     1 on eos306
   Task    10 k-point     1 on eos306
   Task    11 k-point     1 on eos306
   Task    12 k-point     1 on eos306
   Task    13 k-point     1 on eos306
   Task    14 k-point     1 on eos306
   Task    15 k-point     1 on eos306
   Task    16 k-point     1 on eos306
   Task    17 k-point     1 on eos306
   Task    18 k-point     1 on eos306
   Task    19 k-point     1 on eos306
   Task    20 k-point     1 on eos306
   Task    21 k-point     1 on eos306
   Task    22 k-point     1 on eos306
   Task    23 k-point     1 on eos306
   Task    24 k-point     1 on eos306
   Task    25 k-point     1 on eos306
   Task    26 k-point     1 on eos306
   Task    27 k-point     1 on eos306
   Task    28 k-point     1 on eos306
   Task    29 k-point     1 on eos306
   Task    30 k-point     1 on eos306
   Task    31 k-point     1 on eos306
  Tasks:    32 split into      8 X      4 BLACS grid
  Calculating blocksize based on n_basis =          840 max_nprow =            8 max_npcol =            4
  Scalapack blocksize set to:           16
  Required Scalapack workspace - INTEGER:            1 REAL:             1
  Partitioning the integration grid into batches with parallel hashing+maxmin method.
  | Number of batches:     5166
  | Maximal batch size:     200
  | Minimal batch size:       5
  | Average batch size:     102.154
  | Standard deviation of batch sizes:      28.701

  Integration load balanced across    32 MPI tasks.
  Work distribution over tasks is as follows:
  Task     0 has      16458 integration points.
  Task     1 has      16468 integration points.
  Task     2 has      16599 integration points.
  Task     3 has      16516 integration points.
  Task     4 has      16460 integration points.
  Task     5 has      16452 integration points.
  Task     6 has      16532 integration points.
  Task     7 has      16475 integration points.
  Task     8 has      16474 integration points.
  Task     9 has      16478 integration points.
  Task    10 has      16592 integration points.
  Task    11 has      16445 integration points.
  Task    12 has      16467 integration points.
  Task    13 has      16484 integration points.
  Task    14 has      16550 integration points.
  Task    15 has      16447 integration points.
  Task    16 has      16603 integration points.
  Task    17 has      16457 integration points.
  Task    18 has      16460 integration points.
  Task    19 has      16451 integration points.
  Task    20 has      16598 integration points.
  Task    21 has      16466 integration points.
  Task    22 has      16462 integration points.
  Task    23 has      16463 integration points.
  Task    24 has      16449 integration points.
  Task    25 has      16478 integration points.
  Task    26 has      16462 integration points.
  Task    27 has      16506 integration points.
  Task    28 has      16541 integration points.
  Task    29 has      16445 integration points.
  Task    30 has      16539 integration points.
  Task    31 has      16451 integration points.
  Initializing partition tables, free-atom densities, potentials, etc. across the integration grid (initialize_grid_storage).
  | initialize_grid_storage: Actual outermost partition radius vs. multipole_radius_free
  | (-- VB: in principle, multipole_radius_free should be larger, hence this output)
  | Species        1: Confinement radius =              6.000000000000000 AA, multipole_radius_free =              6.071692442739658 AA.
  | Species        1: outer_partition_radius set to              6.071692442739658 AA .
  | Species        2: Confinement radius =              6.000000000000000 AA, multipole_radius_free =              6.029870734432609 AA.
  | Species        2: outer_partition_radius set to              6.029870734432609 AA .
  | Species        3: Confinement radius =              6.000000000000000 AA, multipole_radius_free =              6.058726835495003 AA.
  | Species        3: outer_partition_radius set to              6.058726835495003 AA .
  | Species        4: Confinement radius =              6.000000000000000 AA, multipole_radius_free =              6.064445521808699 AA.
  | Species        4: outer_partition_radius set to              6.064445521808699 AA .
  | Original list of interatomic distances with          32 x         32 entries is created.
  | Net number of integration points:   527728
  | of which are non-zero points    :   416881
  Obtaining max. number of non-zero basis functions in each batch (get_n_compute_maxes).
  | Maximal number of non-zero basis functions:      690 in task     0
  | Maximal number of non-zero basis functions:      699 in task     1
  | Maximal number of non-zero basis functions:      713 in task     2
  | Maximal number of non-zero basis functions:      711 in task     3
  | Maximal number of non-zero basis functions:      702 in task     4
  | Maximal number of non-zero basis functions:      692 in task     5
  | Maximal number of non-zero basis functions:      702 in task     6
  | Maximal number of non-zero basis functions:      707 in task     7
  | Maximal number of non-zero basis functions:      700 in task     8
  | Maximal number of non-zero basis functions:      700 in task     9
  | Maximal number of non-zero basis functions:      715 in task    10
  | Maximal number of non-zero basis functions:      684 in task    11
  | Maximal number of non-zero basis functions:      686 in task    12
  | Maximal number of non-zero basis functions:      687 in task    13
  | Maximal number of non-zero basis functions:      712 in task    14
  | Maximal number of non-zero basis functions:      703 in task    15
  | Maximal number of non-zero basis functions:      675 in task    16
  | Maximal number of non-zero basis functions:      692 in task    17
  | Maximal number of non-zero basis functions:      691 in task    18
  | Maximal number of non-zero basis functions:      694 in task    19
  | Maximal number of non-zero basis functions:      685 in task    20
  | Maximal number of non-zero basis functions:      694 in task    21
  | Maximal number of non-zero basis functions:      687 in task    22
  | Maximal number of non-zero basis functions:      699 in task    23
  | Maximal number of non-zero basis functions:      704 in task    24
  | Maximal number of non-zero basis functions:      681 in task    25
  | Maximal number of non-zero basis functions:      703 in task    26
  | Maximal number of non-zero basis functions:      709 in task    27
  | Maximal number of non-zero basis functions:      695 in task    28
  | Maximal number of non-zero basis functions:      680 in task    29
  | Maximal number of non-zero basis functions:      701 in task    30
  | Maximal number of non-zero basis functions:      685 in task    31
  Selecting the method for density update.
  Loop over occupied states selected for charge density update.
  Integrating Hamiltonian matrix: batch-based integration.
  Time summed over all CPUs for integration: real work       19.265 s, elapsed       20.227 s
  Integrating overlap matrix.
  Time summed over all CPUs for integration: real work       11.343 s, elapsed       11.774 s
  Deallocating overlap matrix.

  Updating Kohn-Sham eigenvalues, eigenvectors, occupation numbers, and Fermi level.
  Solving generalized eigenproblem
  Solving real symmetric generalised eigenvalue problem by standard ScaLAPACK.
  Transforming overlap matrix with ScaLAPACK and checking for singularities.
  : Overlap matrix is nonsingular, using Cholesky decomposition
  | Lowest eigenvalue:  0.976254E-04
  Factoring overlap matrix with Cholesky decomposition
  Using Cholesky factor for transformation
  Using 1-stage real ELPA solver
  Determining occupation numbers for Kohn-Sham eigenstates.
  | Chemical potential (Fermi level) in eV                 : -.95129776E+01
  | Error in electron count due to remaining E_F inaccuracy: 0.00000000E+00
  | Maximum occupation number of highest empty state:  0.00E+00

  Writing Kohn-Sham eigenvalues.

  State    Occupation    Eigenvalue [Ha]    Eigenvalue [eV]
      1       2.00000         -18.976098         -516.36590
      2       2.00000         -18.974752         -516.32927
      3       2.00000         -18.973760         -516.30228
      4       2.00000         -14.254582         -387.88690
      5       2.00000         -14.254416         -387.88239
      6       2.00000         -14.254219         -387.87702
      7       2.00000         -10.171169         -276.77160
      8       2.00000         -10.170545         -276.75462
      9       2.00000         -10.169716         -276.73205
     10       2.00000         -10.166645         -276.64849
     11       2.00000         -10.148435         -276.15296
     12       2.00000         -10.146929         -276.11199
     13       2.00000         -10.135638         -275.80475
     14       2.00000         -10.134500         -275.77378
     15       2.00000         -10.133142         -275.73682
     16       2.00000          -1.137328          -30.94828
     17       2.00000          -1.131773          -30.79711
     18       2.00000          -1.129068          -30.72351
     19       2.00000          -1.016940          -27.67233
     20       2.00000          -1.013867          -27.58872
     21       2.00000          -1.009989          -27.48319
     22       2.00000          -0.888102          -24.16647
     23       2.00000          -0.866300          -23.57321
     24       2.00000          -0.846367          -23.03081
     25       2.00000          -0.816683          -22.22308
     26       2.00000          -0.782925          -21.30446
     27       2.00000          -0.759834          -20.67614
     28       2.00000          -0.705150          -19.18811
     29       2.00000          -0.684631          -18.62976
     30       2.00000          -0.665146          -18.09954
     31       2.00000          -0.641363          -17.45238
     32       2.00000          -0.621111          -16.90128
     33       2.00000          -0.609515          -16.58575
     34       2.00000          -0.606103          -16.49291
     35       2.00000          -0.588221          -16.00631
     36       2.00000          -0.580974          -15.80912
     37       2.00000          -0.573080          -15.59431
     38       2.00000          -0.563617          -15.33680
     39       2.00000          -0.560672          -15.25666
     40       2.00000          -0.553377          -15.05817
     41       2.00000          -0.547359          -14.89439
     42       2.00000          -0.538901          -14.66425
     43       2.00000          -0.533628          -14.52077
     44       2.00000          -0.527359          -14.35016
     45       2.00000          -0.524722          -14.27841
     46       2.00000          -0.517767          -14.08915
     47       2.00000          -0.508302          -13.83160
     48       2.00000          -0.504884          -13.73860
     49       2.00000          -0.495360          -13.47944
     50       2.00000          -0.486087          -13.22711
     51       2.00000          -0.481812          -13.11076
     52       2.00000          -0.477197          -12.98520
     53       2.00000          -0.408660          -11.12021
     54       2.00000          -0.404044          -10.99460
     55       2.00000          -0.399970          -10.88373
     56       2.00000          -0.390223          -10.61851
     57       2.00000          -0.382493          -10.40815
     58       2.00000          -0.380754          -10.36083
     59       0.00000          -0.168302           -4.57973
     60       0.00000          -0.156886           -4.26910
     61       0.00000          -0.150886           -4.10582
     62       0.00000          -0.083085           -2.26085
     63       0.00000          -0.068285           -1.85813
     64       0.00000          -0.062451           -1.69938
     65       0.00000          -0.051448           -1.39998
     66       0.00000          -0.045130           -1.22804
     67       0.00000          -0.044590           -1.21336
     68       0.00000          -0.038406           -1.04508
     69       0.00000          -0.032534           -0.88530
     70       0.00000          -0.027614           -0.75143
     71       0.00000          -0.017472           -0.47543
     72       0.00000          -0.013725           -0.37348
     73       0.00000          -0.013283           -0.36145
     74       0.00000          -0.009969           -0.27126
     75       0.00000          -0.004440           -0.12082
     76       0.00000          -0.002777           -0.07557
     77       0.00000          -0.000705           -0.01919
     78       0.00000           0.011905            0.32394
     79       0.00000           0.013875            0.37757
     80       0.00000           0.015872            0.43190
     81       0.00000           0.020143            0.54812
     82       0.00000           0.023119            0.62910
     83       0.00000           0.035771            0.97338
     84       0.00000           0.045844            1.24749
     85       0.00000           0.048507            1.31995
     86       0.00000           0.050773            1.38160
     87       0.00000           0.053003            1.44229
     88       0.00000           0.057402            1.56198
     89       0.00000           0.068118            1.85358
     90       0.00000           0.074431            2.02536
     91       0.00000           0.079510            2.16358
     92       0.00000           0.084641            2.30320
     93       0.00000           0.085171            2.31763
     94       0.00000           0.096335            2.62140
     95       0.00000           0.097184            2.64452
     96       0.00000           0.101185            2.75339
     97       0.00000           0.104751            2.85042
     98       0.00000           0.109747            2.98636
     99       0.00000           0.113752            3.09535
    100       0.00000           0.124796            3.39587
    101       0.00000           0.128107            3.48597
    102       0.00000           0.130486            3.55069
    103       0.00000           0.136670            3.71898
    104       0.00000           0.147285            4.00782
    105       0.00000           0.147930            4.02537
    106       0.00000           0.150698            4.10069
    107       0.00000           0.155362            4.22761
    108       0.00000           0.160189            4.35896
    109       0.00000           0.164521            4.47685
    110       0.00000           0.168128            4.57498
    111       0.00000           0.175366            4.77196
    112       0.00000           0.175756            4.78256
    113       0.00000           0.182651            4.97018
    114       0.00000           0.186336            5.07045
    115       0.00000           0.191041            5.19848
    116       0.00000           0.195081            5.30844
    117       0.00000           0.204273            5.55854
    118       0.00000           0.206997            5.63268
    119       0.00000           0.213941            5.82163
    120       0.00000           0.215775            5.87155
    121       0.00000           0.220747            6.00683
    122       0.00000           0.224840            6.11822
    123       0.00000           0.226877            6.17363
    124       0.00000           0.232328            6.32197
    125       0.00000           0.236893            6.44617
    126       0.00000           0.241739            6.57806
    127       0.00000           0.249399            6.78650
    128       0.00000           0.252731            6.87717
    129       0.00000           0.263719            7.17616

  Highest occupied state (VBM) at    -10.36083254 eV
  | Occupation number:      2.00000000

  Lowest unoccupied state (CBM) at    -4.57972989 eV
  | Occupation number:      0.00000000

  Overall HOMO-LUMO gap:      5.78110265 eV.
  Calculating total energy contributions from superposition of free atom densities.

  Total energy components:
  | Sum of eigenvalues            :        -437.85240846 Ha      -11914.57024083 eV
  | XC energy correction          :         -98.81194654 Ha       -2688.80987043 eV
  | XC potential correction       :         127.00986827 Ha        3456.11436092 eV
  | Free-atom electrostatic energy:        -333.63086782 Ha       -9078.55782525 eV
  | Hartree energy correction     :           0.00000000 Ha           0.00000000 eV
  | MBD@rsSCS energy              :           0.00000000 Ha           0.00000000 eV
  | Entropy correction            :          -0.00000000 Ha          -0.00000000 eV
  | ---------------------------
  | Total energy                  :        -743.28535454 Ha      -20225.82357558 eV
  | Total energy, T -> 0          :        -743.28535454 Ha      -20225.82357558 eV  <-- do not rely on this value for anything but (periodic) metals
  | Electronic free energy        :        -743.28535454 Ha      -20225.82357558 eV

  Derived energy quantities:
  | Kinetic energy                :         735.14495235 Ha       20004.31196166 eV
  | Electrostatic energy          :       -1379.61836035 Ha      -37541.32566682 eV
  | Energy correction for multipole
  | error in Hartree potential    :           0.00000000 Ha           0.00000000 eV
  | Sum of eigenvalues per atom                           :        -372.33032003 eV
  | Total energy (T->0) per atom                          :        -632.05698674 eV  <-- do not rely on this value for anything but (periodic) metals
  | Electronic free energy per atom                       :        -632.05698674 eV
  Initialize hartree_potential_storage
  Max. number of atoms included in rho_multipole:           32

  End scf initialization - timings             :  max(cpu_time)    wall_clock(cpu1)
  | Time for scf. initialization               :        1.752 s           1.748 s
  | Boundary condition initialization          :        0.004 s           0.000 s
  | Integration                                :        1.020 s           1.021 s
  | Solution of K.-S. eqns.                    :        0.076 s           0.075 s
  | Grid partitioning                          :        0.356 s           0.349 s
  | Preloading free-atom quantities on grid    :        0.028 s           0.028 s
  | Free-atom superposition energy             :        0.040 s           0.036 s
  | Total energy evaluation                    :        0.000 s           0.001 s
------------------------------------------------------------

------------------------------------------------------------
          Begin self-consistency iteration #    1

  Date     :  20170309, Time     :  181143.206
------------------------------------------------------------
  Evaluating new KS density.
  Integration grid: deviation in total charge (<rho> - N_e) =   1.421085E-14
  Pulay mixing of updated and previous charge densities.

  Evaluating partitioned Hartree potential by multipole expansion.
  | Analytical far-field extrapolation by fixed multipoles:
  | Hartree multipole sum: apparent total charge =   0.223454E-04
  Summing up the Hartree potential.
  Time summed over all CPUs for potential: real work        9.423 s, elapsed        9.599 s
  | RMS charge density error from multipole expansion :   0.107460E-01

  Integrating Hamiltonian matrix: batch-based integration.
  Time summed over all CPUs for integration: real work       18.953 s, elapsed       19.847 s

  Updating Kohn-Sham eigenvalues, eigenvectors, occupation numbers, and Fermi level.
  Solving generalized eigenproblem
  Solving real symmetric generalised eigenvalue problem by standard ScaLAPACK.
  Using Cholesky factor for transformation
  Using 2-stage real ELPA solver
  K-Point:    1, Trafo times: 1-stage=     0.021 s, 2-stage=     0.019 s ==> Using 2-stage solver
  Determining occupation numbers for Kohn-Sham eigenstates.
  | Chemical potential (Fermi level) in eV                 : -.47332449E+01
  | Error in electron count due to remaining E_F inaccuracy: 0.00000000E+00
  | Maximum occupation number of highest empty state:  0.00E+00

  Writing Kohn-Sham eigenvalues.

  State    Occupation    Eigenvalue [Ha]    Eigenvalue [eV]
      1       2.00000         -18.624140         -506.78863
      2       2.00000         -18.612630         -506.47544
      3       2.00000         -18.590013         -505.86000
      4       2.00000         -13.994415         -380.80739
      5       2.00000         -13.987760         -380.62631
      6       2.00000         -13.963751         -379.97300
      7       2.00000         -10.054630         -273.60042
      8       2.00000         -10.053878         -273.57994
      9       2.00000         -10.034468         -273.05176
     10       2.00000          -9.968977         -271.26966
     11       2.00000          -9.962379         -271.09013
     12       2.00000          -9.905064         -269.53051
     13       2.00000          -9.839474         -267.74571
     14       2.00000          -9.839024         -267.73346
     15       2.00000          -9.833094         -267.57211
     16       2.00000          -0.968762          -26.36136
     17       2.00000          -0.957256          -26.04826
     18       2.00000          -0.936057          -25.47141
     19       2.00000          -0.873056          -23.75706
     20       2.00000          -0.860215          -23.40765
     21       2.00000          -0.847585          -23.06397
     22       2.00000          -0.744334          -20.25436
     23       2.00000          -0.709744          -19.31312
     24       2.00000          -0.685967          -18.66612
     25       2.00000          -0.681172          -18.53563
     26       2.00000          -0.636060          -17.30806
     27       2.00000          -0.618958          -16.84269
     28       2.00000          -0.578681          -15.74671
     29       2.00000          -0.543827          -14.79829
     30       2.00000          -0.540238          -14.70061
     31       2.00000          -0.506034          -13.76988
     32       2.00000          -0.487660          -13.26990
     33       2.00000          -0.468605          -12.75138
     34       2.00000          -0.465087          -12.65566
     35       2.00000          -0.444058          -12.08343
     36       2.00000          -0.441641          -12.01766
     37       2.00000          -0.430323          -11.70968
     38       2.00000          -0.418468          -11.38710
     39       2.00000          -0.412180          -11.21599
     40       2.00000          -0.402755          -10.95953
     41       2.00000          -0.400865          -10.90808
     42       2.00000          -0.385185          -10.48141
     43       2.00000          -0.378927          -10.31114
     44       2.00000          -0.377503          -10.27237
     45       2.00000          -0.373525          -10.16413
     46       2.00000          -0.367888          -10.01075
     47       2.00000          -0.357656           -9.73231
     48       2.00000          -0.350222           -9.53002
     49       2.00000          -0.341677           -9.29751
     50       2.00000          -0.338984           -9.22423
     51       2.00000          -0.338797           -9.21913
     52       2.00000          -0.323290           -8.79718
     53       2.00000          -0.246140           -6.69781
     54       2.00000          -0.229894           -6.25573
     55       2.00000          -0.218382           -5.94248
     56       2.00000          -0.212547           -5.78370
     57       2.00000          -0.206426           -5.61715
     58       2.00000          -0.189571           -5.15850
     59       0.00000          -0.051759           -1.40845
     60       0.00000          -0.051188           -1.39289
     61       0.00000          -0.036397           -0.99041
     62       0.00000          -0.028993           -0.78895
     63       0.00000          -0.024500           -0.66667
     64       0.00000          -0.016983           -0.46214
     65       0.00000          -0.008343           -0.22704
     66       0.00000          -0.000660           -0.01797
     67       0.00000           0.005179            0.14092
     68       0.00000           0.012636            0.34384
     69       0.00000           0.023164            0.63033
     70       0.00000           0.027649            0.75236
     71       0.00000           0.037169            1.01143
     72       0.00000           0.040929            1.11373
     73       0.00000           0.048483            1.31929
     74       0.00000           0.052429            1.42668
     75       0.00000           0.055065            1.49840
     76       0.00000           0.059081            1.60768
     77       0.00000           0.062028            1.68786
     78       0.00000           0.065996            1.79585
     79       0.00000           0.070636            1.92210
     80       0.00000           0.079687            2.16840
     81       0.00000           0.086834            2.36287
     82       0.00000           0.091683            2.49481
     83       0.00000           0.095094            2.58765
     84       0.00000           0.102307            2.78390
     85       0.00000           0.109033            2.96695
     86       0.00000           0.117330            3.19271
     87       0.00000           0.120620            3.28224
     88       0.00000           0.129657            3.52815
     89       0.00000           0.132355            3.60157
     90       0.00000           0.139414            3.79364
     91       0.00000           0.150604            4.09815
     92       0.00000           0.152275            4.14361
     93       0.00000           0.153399            4.17420
     94       0.00000           0.156680            4.26347
     95       0.00000           0.163466            4.44813
     96       0.00000           0.169141            4.60255
     97       0.00000           0.179085            4.87315
     98       0.00000           0.179627            4.88789
     99       0.00000           0.184026            5.00762
    100       0.00000           0.189601            5.15932
    101       0.00000           0.193666            5.26992
    102       0.00000           0.197827            5.38316
    103       0.00000           0.200958            5.46835
    104       0.00000           0.203683            5.54248
    105       0.00000           0.206712            5.62491
    106       0.00000           0.212648            5.78645
    107       0.00000           0.219206            5.96491
    108       0.00000           0.221437            6.02562
    109       0.00000           0.226040            6.15086
    110       0.00000           0.228703            6.22332
    111       0.00000           0.238445            6.48841
    112       0.00000           0.239271            6.51090
    113       0.00000           0.244982            6.66630
    114       0.00000           0.255066            6.94069
    115       0.00000           0.257126            6.99676
    116       0.00000           0.259507            7.06155
    117       0.00000           0.264654            7.20161
    118       0.00000           0.267776            7.28656
    119       0.00000           0.278538            7.57941
    120       0.00000           0.285697            7.77421
    121       0.00000           0.288421            7.84833
    122       0.00000           0.289130            7.86763
    123       0.00000           0.293417            7.98428
    124       0.00000           0.300290            8.17131
    125       0.00000           0.303013            8.24540
    126       0.00000           0.308856            8.40441
    127       0.00000           0.316069            8.60067
    128       0.00000           0.324431            8.82822
    129       0.00000           0.336025            9.14370

  Highest occupied state (VBM) at     -5.15849610 eV
  | Occupation number:      2.00000000

  Lowest unoccupied state (CBM) at    -1.40844617 eV
  | Occupation number:      0.00000000

  Overall HOMO-LUMO gap:      3.75004993 eV.

  Total energy components:
  | Sum of eigenvalues            :        -417.11980110 Ha      -11350.40729039 eV
  | XC energy correction          :        -100.75151210 Ha       -2741.58813462 eV
  | XC potential correction       :         129.52571590 Ha        3524.57405807 eV
  | Free-atom electrostatic energy:        -333.63086782 Ha       -9078.55782525 eV
  | Hartree energy correction     :         -20.73498679 Ha        -564.22769802 eV
  | MBD@rsSCS energy              :           0.00000000 Ha           0.00000000 eV
  | Entropy correction            :          -0.00000000 Ha          -0.00000000 eV
  | ---------------------------
  | Total energy                  :        -742.71145190 Ha      -20210.20689021 eV
  | Total energy, T -> 0          :        -742.71145190 Ha      -20210.20689021 eV  <-- do not rely on this value for anything but (periodic) metals
  | Electronic free energy        :        -742.71145190 Ha      -20210.20689021 eV

  Derived energy quantities:
  | Kinetic energy                :         744.04830664 Ha       20246.58455846 eV
  | Electrostatic energy          :       -1386.00824644 Ha      -37715.20331405 eV
  | Energy correction for multipole
  | error in Hartree potential    :          -0.04153184 Ha          -1.13013878 eV
  | Sum of eigenvalues per atom                           :        -354.70022782 eV
  | Total energy (T->0) per atom                          :        -631.56896532 eV  <-- do not rely on this value for anything but (periodic) metals
  | Electronic free energy per atom                       :        -631.56896532 eV

  Self-consistency convergence accuracy:
  | Change of charge density      :  0.9039E+00
  | Change of sum of eigenvalues  :  0.5642E+03 eV
  | Change of total energy        :  0.1562E+02 eV

  End self-consistency iteration #     1       :  max(cpu_time)    wall_clock(cpu1)
  | Time for this iteration                    :        1.424 s           1.423 s
[...]
   Multipole                     : -0.527906E+00  0.559650E-01  0.749809E-01
   Pulay + GGA                   : -0.126702E+02  0.316681E+01  0.193562E+01
   MBD@rsSCS                     : -0.151885E-01 -0.163763E-01  0.648085E-03
   ----------------------------------------------------------------
   Total forces(  20)            : -0.917928E-02 -0.171813E-01 -0.403397E-02
  atom #   21
   Hellmann-Feynman              :  0.184072E-01  0.999327E-02  0.571135E-01
   Ionic forces                  :  0.000000E+00  0.000000E+00  0.000000E+00
   Multipole                     : -0.166249E-01  0.289448E-02  0.548345E-02
   Pulay + GGA                   :  0.604371E-03 -0.649026E-02 -0.661128E-01
   MBD@rsSCS                     :  0.250643E-02 -0.326724E-02  0.279398E-02
   ----------------------------------------------------------------
   Total forces(  21)            :  0.489312E-02  0.313025E-02 -0.721859E-03
  atom #   22
   Hellmann-Feynman              :  0.369257E-01 -0.464376E-01  0.338627E-01
   Ionic forces                  :  0.000000E+00  0.000000E+00  0.000000E+00
   Multipole                     : -0.136054E-02  0.202745E-01  0.187527E-01
   Pulay + GGA                   : -0.392652E-01  0.369573E-01 -0.430678E-01
   MBD@rsSCS                     :  0.812230E-03  0.527520E-02  0.584830E-02
   ----------------------------------------------------------------
   Total forces(  22)            : -0.288787E-02  0.160694E-01  0.153959E-01
  atom #   23
   Hellmann-Feynman              : -0.401475E+00 -0.533646E+00  0.146252E+01
   Ionic forces                  :  0.000000E+00  0.000000E+00  0.000000E+00
   Multipole                     :  0.132573E+00  0.984502E-01 -0.340258E+00
   Pulay + GGA                   :  0.283847E+00  0.435903E+00 -0.113157E+01
   MBD@rsSCS                     :  0.969511E-02  0.916513E-02 -0.702618E-02
   ----------------------------------------------------------------
   Total forces(  23)            :  0.246400E-01  0.987172E-02 -0.163312E-01
  atom #   24
   Hellmann-Feynman              :  0.264701E-01 -0.137960E-01 -0.408613E-01
   Ionic forces                  :  0.000000E+00  0.000000E+00  0.000000E+00
   Multipole                     :  0.821191E-02 -0.207023E-01  0.258099E-01
   Pulay + GGA                   : -0.303070E-01  0.539946E-01  0.604715E-02
   MBD@rsSCS                     :  0.799141E-02  0.101265E-01 -0.103952E-01
   ----------------------------------------------------------------
   Total forces(  24)            :  0.123664E-01  0.296229E-01 -0.193994E-01
  atom #   25
   Hellmann-Feynman              :  0.154061E-01 -0.168059E-01 -0.519350E-01
   Ionic forces                  :  0.000000E+00  0.000000E+00  0.000000E+00
   Multipole                     : -0.313127E-01  0.115247E-04 -0.827914E-02
   Pulay + GGA                   :  0.205171E-01  0.716715E-02  0.534423E-01
   MBD@rsSCS                     :  0.826457E-02  0.142972E-02 -0.107682E-01
   ----------------------------------------------------------------
   Total forces(  25)            :  0.128752E-01 -0.819754E-02 -0.175401E-01
  atom #   26
   Hellmann-Feynman              :  0.518222E-01  0.241416E-01 -0.269405E-01
   Ionic forces                  :  0.000000E+00  0.000000E+00  0.000000E+00
   Multipole                     : -0.727732E-03  0.167179E-01  0.315818E-01
   Pulay + GGA                   : -0.531038E-01 -0.392418E-01 -0.842298E-02
   MBD@rsSCS                     :  0.903003E-02 -0.128626E-02 -0.846069E-02
   ----------------------------------------------------------------
   Total forces(  26)            :  0.702066E-02  0.331461E-03 -0.122424E-01
  atom #   27
   Hellmann-Feynman              :  0.141455E+01 -0.521465E+00 -0.657071E+00
   Ionic forces                  :  0.000000E+00  0.000000E+00  0.000000E+00
   Multipole                     :  0.118922E+00 -0.804509E-01 -0.200499E-01
   Pulay + GGA                   : -0.154242E+01  0.599058E+00  0.675362E+00
   MBD@rsSCS                     : -0.502570E-02 -0.214629E-01 -0.251653E-03
   ----------------------------------------------------------------
   Total forces(  27)            : -0.139772E-01 -0.243206E-01 -0.201021E-02
  atom #   28
   Hellmann-Feynman              : -0.196025E+01  0.978997E+00  0.310138E+00
   Ionic forces                  :  0.000000E+00  0.000000E+00  0.000000E+00
   Multipole                     :  0.193452E+00 -0.449875E-01 -0.224290E-01
   Pulay + GGA                   :  0.176695E+01 -0.955687E+00 -0.289695E+00
   MBD@rsSCS                     :  0.740297E-03 -0.143827E-01 -0.174316E-02
   ----------------------------------------------------------------
   Total forces(  28)            :  0.892769E-03 -0.360608E-01 -0.372962E-02
  atom #   29
   Hellmann-Feynman              : -0.370436E-02 -0.658554E-01 -0.159701E-01
   Ionic forces                  :  0.000000E+00  0.000000E+00  0.000000E+00
   Multipole                     : -0.387502E-01  0.214435E-01  0.845153E-02
   Pulay + GGA                   :  0.407132E-01  0.536944E-01  0.998545E-02
   MBD@rsSCS                     : -0.661399E-02 -0.385627E-02 -0.421096E-04
   ----------------------------------------------------------------
   Total forces(  29)            : -0.835531E-02  0.542620E-02  0.242479E-02
  atom #   30
   Hellmann-Feynman              :  0.430315E-01  0.350062E-02 -0.227873E-01
   Ionic forces                  :  0.000000E+00  0.000000E+00  0.000000E+00
   Multipole                     : -0.147956E-02  0.263968E-02 -0.295017E-01
   Pulay + GGA                   : -0.444518E-01 -0.563161E-04  0.549546E-01
   MBD@rsSCS                     :  0.454368E-02 -0.114058E-01 -0.222605E-02
   ----------------------------------------------------------------
   Total forces(  30)            :  0.164386E-02 -0.532186E-02  0.439601E-03
  atom #   31
   Hellmann-Feynman              :  0.558899E-01  0.113442E-01  0.141974E-01
   Ionic forces                  :  0.000000E+00  0.000000E+00  0.000000E+00
   Multipole                     : -0.589170E-02  0.138539E-01  0.287350E-01
   Pulay + GGA                   : -0.437928E-01 -0.353635E-01 -0.395099E-01
   MBD@rsSCS                     :  0.681106E-02 -0.136912E-01  0.186844E-02
   ----------------------------------------------------------------
   Total forces(  31)            :  0.130164E-01 -0.238565E-01  0.529095E-02
  atom #   32
   Hellmann-Feynman              :  0.341558E-01 -0.451298E-01 -0.530680E-03
   Ionic forces                  :  0.000000E+00  0.000000E+00  0.000000E+00
   Multipole                     : -0.280038E-01 -0.122382E-01  0.170373E-01
   Pulay + GGA                   : -0.521832E-02  0.629942E-01 -0.143825E-01
   MBD@rsSCS                     :  0.437026E-02 -0.528868E-02 -0.234023E-03
   ----------------------------------------------------------------
   Total forces(  32)            :  0.530391E-02  0.337607E-03  0.189009E-02

  Removing unitary transformations (pure translations, rotations) from forces on atoms.
  Atomic forces before filtering:
  | Net force on center of mass :  -0.757763E-03  0.503295E-04 -0.920478E-03 eV/A
  | Net torque on center of mass:   0.147545E-02 -0.392351E-02  0.193232E-02 eV
  Atomic forces after filtering:
  | Net force on center of mass :  -0.195132E-16  0.326671E-17  0.766589E-17 eV/A
  | Net torque on center of mass:   0.379847E-16  0.457291E-16 -0.413037E-16 eV

  Energy and forces in a compact form:
  | Total energy uncorrected      :         -0.202087519795611E+05 eV
  | Total energy corrected        :         -0.202087519795611E+05 eV  <-- do not rely on this value for anything but (periodic) metals
  | Electronic free energy        :         -0.202087519795611E+05 eV
  Total atomic forces (unitary forces cleaned) [eV/Ang]:
  |   1         -0.122154040990764E-01          0.469114135893407E-02          0.417202782609438E-02
  |   2         -0.152019751629167E-01          0.216704975355442E-02          0.413853774396834E-02
  |   3          0.241422007719115E-03          0.229143683175716E-02         -0.628414277425421E-02
  |   4          0.834155230850609E-03         -0.809652666246267E-03          0.445439623629331E-02
  |   5         -0.150036591194176E-01         -0.304889064145059E-04          0.132780531275561E-01
  |   6         -0.221049798663210E-01          0.119358331470985E-01          0.210131320796849E-01
  |   7         -0.410373524933324E-02         -0.152163004068708E-01         -0.229369774197639E-01
  |   8          0.157019436092303E-01         -0.136028522693686E-01         -0.192478239630680E-01
  |   9         -0.260915585961207E-01          0.313077652576200E-01          0.238970282192466E-01
  |  10         -0.137922370992183E-01          0.166749158577289E-01         -0.115171111018067E-01
  |  11         -0.498096549263502E-02          0.155536745563120E-02         -0.366203716893078E-02
  |  12          0.841630569788741E-02         -0.160323960135341E-01         -0.128310337114021E-01
  |  13          0.142961569685295E-01          0.217352984678310E-01          0.145922565340765E-01
  |  14          0.776952644277709E-02          0.191547155676302E-01          0.745094235168049E-02
  |  15          0.810936685884737E-02          0.415511417095855E-02          0.498397229097993E-02
  |  16          0.215355270173404E-01          0.723019337274759E-02          0.682058157928000E-03
  |  17          0.108520557577998E-01         -0.275570959310952E-01          0.706256628169315E-02
  |  18         -0.435914640182451E-02          0.178302425409616E-01          0.144394970635804E-01
  |  19         -0.187582343936414E-01         -0.174684105628946E-01          0.645028190058616E-02
  |  20         -0.915183758094162E-02         -0.171704230866119E-01         -0.407688218195355E-02
  |  21          0.487390625509046E-02          0.310217967039807E-02         -0.676889978499149E-03
  |  22         -0.288033792690620E-02          0.160530925234566E-01          0.154635014202814E-01
  |  23          0.247183190659911E-01          0.989368564097827E-02         -0.162523556786357E-01
  |  24          0.124525482877228E-01          0.296484687313993E-01         -0.193153312237944E-01
  |  25          0.129803599642342E-01         -0.815756732763145E-02         -0.174810551944815E-01
  |  26          0.709826768364769E-02          0.347519050316287E-03         -0.121253925665958E-01
  |  27         -0.139406102015915E-01         -0.243081256846191E-01         -0.202802653454135E-02
  |  28          0.933655349593600E-03         -0.360510795402523E-01         -0.371228739843070E-02
  |  29         -0.831761734742846E-02          0.544474339090306E-02          0.236893746456624E-02
  |  30          0.172004099962382E-02         -0.529411642973674E-02          0.470084317300947E-03
  |  31          0.130381576224165E-01         -0.238624282783875E-01          0.534206357017438E-02
  |  32          0.533058371807073E-02          0.342174313758431E-03          0.188801031046663E-02

  ------------------------------------ 
  Start decomposition of the XC Energy 
  ------------------------------------ 
  Hartree-Fock part   :          0.000000000 Ha              0.000000000 eV
  ------------------------------------ 
  X Energy            :        -96.981296492 Ha          -2638.995348148 eV
  C Energy GGA        :         -3.867083248 Ha           -105.228689142 eV
  Total XC Energy     :       -100.848379739 Ha          -2744.224037290 eV
  LDA X and C from self-consistent density 
  X Energy LDA        :        -87.995148550 Ha          -2394.469821320 eV
  C Energy LDA        :         -7.531337996 Ha           -204.938134019 eV
  ------------------------------------ 
  End decomposition of the XC Energy 
  ------------------------------------ 
   
  ESP charge fitting starts.
  | Calculation :  00000001  of  00000001
  | Full density
  Computing multipole expansion for total density.
  Generating points for esp charges.
  Partitioning the integration grid into batches with parallel hashing+maxmin method.
  | Number of batches:     3918
  | Maximal batch size:     200
  | Minimal batch size:      54
  | Average batch size:     124.413
  | Standard deviation of batch sizes:      14.850

  Integration load balanced across    32 MPI tasks.
  Work distribution over tasks is as follows:
  Initializing partition tables, free-atom densities, potentials, etc. across the integration grid (initialize_grid_storage).
  | Original list of interatomic distances with          32 x         32 entries is created.
  | Net number of integration points:   487450
  | of which are non-zero points    :   487450
  Summing up potential from multipole expanded  density.
  Summing up the Hartree potential.
  Time summed over all CPUs for potential: real work        6.376 s, elapsed        6.611 s
  Fitting esp charges to potential.
  |
  | ESP charges fitted to the electrostatic potential :
  |
  | Atom         1: C, ESP charge:      0.59437657
  |
  | Atom         2: C, ESP charge:     -0.71008458
  |
  | Atom         3: O, ESP charge:      0.57320159
  |
  | Atom         4: H, ESP charge:     -0.16962500
  |
  | Atom         5: H, ESP charge:     -0.15751276
  |
  | Atom         6: H, ESP charge:     -0.16209081
  |
  | Atom         7: N, ESP charge:      0.42942167
  |
  | Atom         8: C, ESP charge:      0.04426337
  |
  | Atom         9: C, ESP charge:     -0.97989555
  |
  | Atom        10: O, ESP charge:      0.55894772
  |
  | Atom        11: H, ESP charge:     -0.23893146
  |
  | Atom        12: H, ESP charge:     -0.06278729
  |
  | Atom        13: C, ESP charge:      0.45076403
  |
  | Atom        14: H, ESP charge:     -0.11648163
  |
  | Atom        15: H, ESP charge:     -0.13866949
  |
  | Atom        16: H, ESP charge:     -0.14535703
  |
  | Atom        17: N, ESP charge:      1.08689586
  |
  | Atom        18: C, ESP charge:     -0.82138177
  |
  | Atom        19: C, ESP charge:     -0.17143226
  |
  | Atom        20: O, ESP charge:      0.49804688
  |
  | Atom        21: H, ESP charge:     -0.41943430
  |
  | Atom        22: H, ESP charge:      0.05262777
  |
  | Atom        23: C, ESP charge:      0.30956735
  |
  | Atom        24: H, ESP charge:     -0.03274768
  |
  | Atom        25: H, ESP charge:     -0.12273748
  |
  | Atom        26: H, ESP charge:     -0.06517057
  |
  | Atom        27: N, ESP charge:      0.30762729
  |
  | Atom        28: C, ESP charge:      0.29643248
  |
  | Atom        29: H, ESP charge:     -0.32575346
  |
  | Atom        30: H, ESP charge:     -0.12507587
  |
  | Atom        31: H, ESP charge:     -0.09952639
  |
  | Atom        32: H, ESP charge:     -0.13747719

  RRMS:       0.00142917

  Done.

------------------------------------------------------------------------------
  Final output of selected total energy values:

  The following output summarizes some interesting total energy values
  at the end of a run (AFTER all relaxation, molecular dynamics, etc.).

  | Total energy of the DFT / Hartree-Fock s.c.f. calculation      :         -20208.751979561 eV
  | Final zero-broadening corrected energy (caution - metals only) :         -20208.751979561 eV
  | For reference only, the value of 1 Hartree used in FHI-aims is :             27.211384500 eV

  Before relying on these values, please be sure to understand exactly which
  total energy value is referred to by a given number. Different objects may
  all carry the same name 'total energy'. Definitions:

  Total energy of the DFT / Hartree-Fock s.c.f. calculation:
  | Note that this energy does not include ANY quantities calculated after the
  | s.c.f. cycle, in particular not ANY RPA, MP2, etc. many-body perturbation terms.

  Final zero-broadening corrected energy:
  | For metallic systems only, a broadening of the occupation numbers at the Fermi
  | level can be extrapolated back to zero broadening by an electron-gas inspired
  | formula. For all systems that are not real metals, this value can be
  | meaningless and should be avoided.

------------------------------------------------------------------------------
  Methods described in the following list of references were used in this FHI-aims run.
  If you publish the results, please make sure to cite these reference if they apply.
  FHI-aims is an academic code, and for our developers (often, Ph.D. students
  and postdocs), scientific credit in the community is essential.
  Thank you for helping us!

  For any use of FHI-aims, please cite:

    Volker Blum, Ralf Gehrke, Felix Hanke, Paula Havu, Ville Havu,
    Xinguo Ren, Karsten Reuter, and Matthias Scheffler
    'Ab initio molecular simulations with numeric atom-centered orbitals'
    Computer Physics Communications 180, 2175-2196 (2009)
    http://dx.doi.org/10.1016/j.cpc.2009.06.022


  The scalable eigensolver library ELPA was used in your run.
  ELPA is essential especially for large systems on hundreds or thousands of CPUs.
  For ELPA, please cite:

    Andreas Marek, Volker Blum, Rainer Johanni, Ville Havu, Bruno Lang,
    Thomas Auckenthaler, Alexander Heinecke, Hans-Joachim Bungartz, and Hermann Lederer,
    'The ELPA Library - Scalable Parallel Eigenvalue Solutions
    for Electronic Structure Theory and Computational Science'
    The Journal of Physics: Condensed Matter 26, 213201 (2014).
    http://dx.doi.org/10.1088/0953-8984/26/21/213201


  For ELPA's efficient two-stage tridiagonalization used in your run, please cite:

    T. Auckenthaler, V. Blum, H.-J. Bungartz, T. Huckle, R. Johanni, L. Kraemer,
    B. Lang, H. Lederer, and P. R. Willems,
    'Parallel solution of partial symmetric eigenvalue problems'
    'from  electronic structure calculations'
    Parallel Computing 37, 783-794 (2011).
    http://dx.doi.org/10.1016/j.parco.2011.05.002


  For the real-space grid partitioning and parallelization used in this calculation, please cite:

    Ville Havu, Volker Blum, Paula Havu, and Matthias Scheffler,
    'Efficient O(N) integration for all-electron electronic structure calculation'
    'using numerically tabulated basis functions'
    Journal of Computational Physics 228, 8367-8379 (2009).
    http://dx.doi.org/10.1016/j.jcp.2009.08.008

  Of course, there are many other important community references, e.g., those cited in the
  above references. Our list is limited to references that describe implementations in the
  FHI-aims code. The reason is purely practical (length of this list) - please credit others as well.

------------------------------------------------------------
          Leaving FHI-aims.
          Date     :  20170309, Time     :  181212.110

          Computational steps:
          | Number of self-consistency cycles          :           14

          Detailed time accounting                     :  max(cpu_time)    wall_clock(cpu1)
          | Total time                                 :       31.526 s          31.673 s
          | Preparation time                           :        0.236 s           0.236 s
          | Grid partitioning                          :        0.356 s           0.349 s
          | Preloading free-atom quantities on grid    :        0.028 s           0.028 s
          | Free-atom superposition energy             :        0.040 s           0.036 s
          | Total time for integrations                :        9.873 s           9.851 s
          | Total time for solution of K.-S. equations :        0.528 s           0.495 s
          | Total time for density & force components  :        9.017 s           8.985 s
          | Total time for mixing                      :        0.124 s           0.108 s
          | Total time for Hartree multipole update    :        0.072 s           0.059 s
          | Total time for Hartree multipole sum       :        6.432 s           6.397 s
          | Total time for total energy evaluation     :        0.020 s           0.017 s

          Have a nice day.
------------------------------------------------------------
