  MPI-parallelism will be employed.
------------------------------------------------------------
          Invoking FHI-aims ...
          Version 150427
          Git rev.: 9dd23e0 BL: Update Version stamp
          Compiled on 2015/11/03 at 22:05:20 on host eos03.

          When using FHI-aims, please cite the following reference:

          Volker Blum, Ralf Gehrke, Felix Hanke, Paula Havu,
          Ville Havu, Xinguo Ren, Karsten Reuter, and Matthias Scheffler,
          'Ab Initio Molecular Simulations with Numeric Atom-Centered Orbitals: FHI-aims',
          Computer Physics Communications 180, 2175-2196 (2009)

          For any questions about FHI-aims, please visit the aimsclub website
          with its forums and wiki. Contributions to both the forums and the
          wiki are warmly encouraged - they are for you, and everyone is welcome there.

------------------------------------------------------------

  Date     :  20170309, Time     :  184940.335
  Time zero on CPU 1             :   0.312019000000000E+00  s.
  Internal wall clock time zero  :           258317380.335  s.

  Using       32 parallel tasks.
  Task        0 on host eos399 reporting.
  Task        1 on host eos399 reporting.
  Task        2 on host eos399 reporting.
  Task        3 on host eos399 reporting.
  Task        4 on host eos399 reporting.
  Task        5 on host eos399 reporting.
  Task        6 on host eos399 reporting.
  Task        7 on host eos399 reporting.
  Task        8 on host eos399 reporting.
  Task        9 on host eos399 reporting.
  Task       10 on host eos399 reporting.
  Task       11 on host eos399 reporting.
  Task       12 on host eos399 reporting.
  Task       13 on host eos399 reporting.
  Task       14 on host eos399 reporting.
  Task       15 on host eos399 reporting.
  Task       16 on host eos399 reporting.
  Task       17 on host eos399 reporting.
  Task       18 on host eos399 reporting.
  Task       19 on host eos399 reporting.
  Task       20 on host eos399 reporting.
  Task       21 on host eos399 reporting.
  Task       22 on host eos399 reporting.
  Task       23 on host eos399 reporting.
  Task       24 on host eos399 reporting.
  Task       25 on host eos399 reporting.
  Task       26 on host eos399 reporting.
  Task       27 on host eos399 reporting.
  Task       28 on host eos399 reporting.
  Task       29 on host eos399 reporting.
  Task       30 on host eos399 reporting.
  Task       31 on host eos399 reporting.

  Performing system and environment tests:
  | Environment variable OMP_NUM_THREADS correctly set to 1.
  | Stacksize not measured: no C compiler
  | Checking for scalapack...
  | Testing pdtran()...
  | All pdtran() tests passed.

  Obtaining array dimensions for all initial allocations:
  
  -----------------------------------------------------------------------
  Parsing control.in (first pass over file, find array dimensions only).
  The contents of control.in will be repeated verbatim below
  unless switched off by setting 'verbatim_writeout .false.' .
  in the first line of control.in .
  -----------------------------------------------------------------------
  
  #########################################################################################
  #
  # Input for System
  #
  #########################################################################################
  #
  #
  #  Physical model
  #
    xc                 pbe
    many_body_dispersion
    spin               none
    charge             0.
  #
  #  SCF convergence
  #
    occupation_type    gaussian 0.05
    mixer              pulay
      n_max_pulay        10
      charge_mix_param   0.5
    sc_accuracy_rho    1E-4
    sc_accuracy_eev    1E-2
    sc_accuracy_etot   1E-5
    sc_accuracy_forces 1E-4
    sc_iter_limit      1000
  #
  #  ESP charge
  #
    output esp
    esp equal_grid_n 80 80 80
  #
  #
  ################################################################################
  #
  #  FHI-aims code project
  # Volker Blum, Fritz Haber Institute Berlin, 2009
  #
  #  Suggested "tight" defaults for H atom (to be pasted into control.in file)
  #
  ################################################################################
    species        H
  #     global species definitions
      nucleus             1
      mass                1.00794
  #
      l_hartree           6
  #
      cut_pot             4.0  2.0  1.0
      basis_dep_cutoff    1e-4
  #
      radial_base         24 7.0
      radial_multiplier   2
      angular_grids       specified
        division   0.1930   50
        division   0.3175  110
        division   0.4293  194
        division   0.5066  302
        division   0.5626  434
  #      division   0.5922  590
  #      division   0.6227  974
  #      division   0.6868 1202
  #      outer_grid  770
        outer_grid  434
  ################################################################################
  #
  #  Definition of "minimal" basis
  #
  ################################################################################
  #     valence basis states
      valence      1  s   1.
  #     ion occupancy
      ion_occ      1  s   0.5
  ################################################################################
  #
  #  Suggested additional basis functions. For production calculations,
  #  uncomment them one after another (the most important basis functions are
  #  listed first).
  #
  #  Basis constructed for dimers: 0.5 A, 0.7 A, 1.0 A, 1.5 A, 2.5 A
  #
  ################################################################################
  #  "First tier" - improvements: -1014.90 meV to -62.69 meV
       hydro 2 s 2.1
       hydro 2 p 3.5
  #  "Second tier" - improvements: -12.89 meV to -1.83 meV
       hydro 1 s 0.85
       hydro 2 p 3.7
       hydro 2 s 1.2
       hydro 3 d 7
  #  "Third tier" - improvements: -0.25 meV to -0.12 meV
  #     hydro 4 f 11.2
  #     hydro 3 p 4.8
  #     hydro 4 d 9
  #     hydro 3 s 3.2
  ################################################################################
  #
  # For methods that use the localized form of the "resolution of identity" for
  # the two-electron Coulomb operator (RI_method LVL), particularly Hartree-Fock and
  # hybrid density functional calculations, the highest accuracy can be obtained by
  # uncommenting the line beginning with "for_aux"  below, thus adding an extra g radial
  # function to the construction of the product basis set for the expansion.
  # See Ref. New J. Phys. 17, 093020 (2015) for more information, particularly Figs. 1 and 6.
  #
  ################################################################################
  #
  # for_aux hydro 5 g 6.0
  ################################################################################
  #
  #  FHI-aims code project
  # Volker Blum, Fritz Haber Institute Berlin, 2009
  #
  #  Suggested "tight" defaults for C atom (to be pasted into control.in file)
  #
  ################################################################################
    species        C
  #     global species definitions
      nucleus             6
      mass                12.0107
  #
      l_hartree           6
  #
      cut_pot             4.0  2.0  1.0
      basis_dep_cutoff    1e-4
  #
      radial_base         34 7.0
      radial_multiplier   2
      angular_grids specified
        division   0.2187   50
        division   0.4416  110
        division   0.6335  194
        division   0.7727  302
        division   0.8772  434
  #      division   0.9334  590
  #      division   0.9924  770
  #      division   1.0230  974
  #      division   1.5020 1202
  #     outer_grid  974
        outer_grid  434
  ################################################################################
  #
  #  Definition of "minimal" basis
  #
  ################################################################################
  #     valence basis states
      valence      2  s   2.
      valence      2  p   2.
  #     ion occupancy
      ion_occ      2  s   1.
      ion_occ      2  p   1.
  ################################################################################
  #
  #  Suggested additional basis functions. For production calculations,
  #  uncomment them one after another (the most important basis functions are
  #  listed first).
  #
  #  Constructed for dimers: 1.0 A, 1.25 A, 1.5 A, 2.0 A, 3.0 A
  #
  ################################################################################
  #  "First tier" - improvements: -1214.57 meV to -155.61 meV
       hydro 2 p 1.7
       hydro 3 d 6
       hydro 2 s 4.9
  #  "Second tier" - improvements: -67.75 meV to -5.23 meV
       hydro 4 f 9.8
       hydro 3 p 5.2
       hydro 3 s 4.3
       hydro 5 g 14.4
       hydro 3 d 6.2
  #  "Third tier" - improvements: -2.43 meV to -0.60 meV
  #     hydro 2 p 5.6
  #     hydro 2 s 1.4
  #     hydro 3 d 4.9
  #     hydro 4 f 11.2
  #  "Fourth tier" - improvements: -0.39 meV to -0.18 meV
  #     hydro 2 p 2.1
  #     hydro 5 g 16.4
  #     hydro 4 d 13.2
  #     hydro 3 s 13.6
  #     hydro 4 f 17.6
  #  Further basis functions - improvements: -0.08 meV and below
  #     hydro 3 s 2
  #     hydro 3 p 6
  #     hydro 4 d 20
  ################################################################################
  #
  # For methods that use the localized form of the "resolution of identity" for
  # the two-electron Coulomb operator (RI_method LVL), particularly Hartree-Fock and
  # hybrid density functional calculations, the highest accuracy can be obtained by
  # uncommenting the line beginning with "for_aux"  below, thus adding an extra g radial
  # function to the construction of the product basis set for the expansion.
  # See Ref. New J. Phys. 17, 093020 (2015) for more information, particularly Figs. 1 and 6.
  #
  ################################################################################
  #
  # for_aux hydro 5 g 6.0
  ################################################################################
  #
  #  FHI-aims code project
  # Volker Blum, Fritz Haber Institute Berlin, 2009
  #
  #  Suggested "tight" defaults for N atom (to be pasted into control.in file)
  #
  ################################################################################
    species        N
  #     global species definitions
      nucleus             7
      mass                14.0067
  #
      l_hartree           6
  #
      cut_pot             4.0  2.0  1.0
      basis_dep_cutoff    1e-4
  #
      radial_base         35 7.0
      radial_multiplier   2
      angular_grids       specified
        division   0.1841   50
        division   0.3514  110
        division   0.5126  194
        division   0.6292  302
        division   0.6939  434
  #      division   0.7396  590
  #      division   0.7632  770
  #      division   0.8122  974
  #      division   1.1604 1202
  #      outer_grid  974
        outer_grid  434
  ################################################################################
  #
  #  Definition of "minimal" basis
  #
  ################################################################################
  #     valence basis states
      valence      2  s   2.
      valence      2  p   3.
  #     ion occupancy
      ion_occ      2  s   1.
      ion_occ      2  p   2.
  ################################################################################
  #
  #  Suggested additional basis functions. For production calculations,
  #  uncomment them one after another (the most important basis functions are
  #  listed first).
  #
  #  Constructed for dimers: 1.0 A, 1.1 A, 1.5 A, 2.0 A, 3.0 A
  #
  ################################################################################
  #  "First tier" - improvements: -1193.42 meV to -220.60 meV
       hydro 2 p 1.8
       hydro 3 d 6.8
       hydro 3 s 5.8
  #  "Second tier" - improvements: -80.21 meV to -6.86 meV
       hydro 4 f 10.8
       hydro 3 p 5.8
       hydro 1 s 0.8
       hydro 5 g 16
       hydro 3 d 4.9
  #  "Third tier" - improvements: -4.29 meV to -0.53 meV
  #     hydro 3 s 16
  #     ionic 2 p auto
  #     hydro 3 d 6.6
  #     hydro 4 f 11.6
  #  "Fourth tier" - improvements: -0.75 meV to -0.25 meV
  #     hydro 2 p 4.5
  #     hydro 2 s 2.4
  #     hydro 5 g 14.4
  #     hydro 4 d 14.4
  #     hydro 4 f 16.8
  # Further basis functions - -0.21 meV and below
  #     hydro 3 p 14.8
  #     hydro 3 s 4.4
  #     hydro 3 d 19.6
  #     hydro 5 g 12.8
  ################################################################################
  #
  # For methods that use the localized form of the "resolution of identity" for
  # the two-electron Coulomb operator (RI_method LVL), particularly Hartree-Fock and
  # hybrid density functional calculations, the highest accuracy can be obtained by
  # uncommenting the line beginning with "for_aux"  below, thus adding an extra g radial
  # function to the construction of the product basis set for the expansion.
  # See Ref. New J. Phys. 17, 093020 (2015) for more information, particularly Figs. 1 and 6.
  #
  ################################################################################
  #
  # for_aux hydro 5 g 6.0
  ################################################################################
  #
  #  FHI-aims code project
  # Volker Blum, Fritz Haber Institute Berlin, 2009
  #
  #  Suggested "tight" defaults for O atom (to be pasted into control.in file)
  #
  ################################################################################
    species        O
  #     global species definitions
      nucleus             8
      mass                15.9994
  #
      l_hartree           6
  #
      cut_pot             4.0  2.0  1.0
      basis_dep_cutoff    1e-4
  #
      radial_base         36 7.0
      radial_multiplier   2
       angular_grids specified
        division   0.1817   50
        division   0.3417  110
        division   0.4949  194
        division   0.6251  302
        division   0.8014  434
  #      division   0.8507  590
  #      division   0.8762  770
  #      division   0.9023  974
  #      division   1.2339 1202
  #      outer_grid 974
        outer_grid  434
  ################################################################################
  #
  #  Definition of "minimal" basis
  #
  ################################################################################
  #     valence basis states
      valence      2  s   2.
      valence      2  p   4.
  #     ion occupancy
      ion_occ      2  s   1.
      ion_occ      2  p   3.
  ################################################################################
  #
  #  Suggested additional basis functions. For production calculations,
  #  uncomment them one after another (the most important basis functions are
  #  listed first).
  #
  #  Constructed for dimers: 1.0 A, 1.208 A, 1.5 A, 2.0 A, 3.0 A
  #
  ################################################################################
  #  "First tier" - improvements: -699.05 meV to -159.38 meV
       hydro 2 p 1.8
       hydro 3 d 7.6
       hydro 3 s 6.4
  #  "Second tier" - improvements: -49.91 meV to -5.39 meV
       hydro 4 f 11.6
       hydro 3 p 6.2
       hydro 3 d 5.6
       hydro 5 g 17.6
       hydro 1 s 0.75
  #  "Third tier" - improvements: -2.83 meV to -0.50 meV
  #     ionic 2 p auto
  #     hydro 4 f 10.8
  #     hydro 4 d 4.7
  #     hydro 2 s 6.8
  #  "Fourth tier" - improvements: -0.40 meV to -0.12 meV
  #     hydro 3 p 5
  #     hydro 3 s 3.3
  #     hydro 5 g 15.6
  #     hydro 4 f 17.6
  #     hydro 4 d 14
  # Further basis functions - -0.08 meV and below
  #     hydro 3 s 2.1
  #     hydro 4 d 11.6
  #     hydro 3 p 16
  #     hydro 2 s 17.2
  ################################################################################
  #
  # For methods that use the localized form of the "resolution of identity" for
  # the two-electron Coulomb operator (RI_method LVL), particularly Hartree-Fock and
  # hybrid density functional calculations, the highest accuracy can be obtained by
  # uncommenting the line beginning with "for_aux"  below, thus adding an extra g radial
  # function to the construction of the product basis set for the expansion.
  # See Ref. New J. Phys. 17, 093020 (2015) for more information, particularly Figs. 1 and 6.
  #
  ################################################################################
  #
  # for_aux hydro 5 g 6.0
  
  -----------------------------------------------------------------------
  Completed first pass over input file control.in .
  -----------------------------------------------------------------------
  
  
  -----------------------------------------------------------------------
  Parsing geometry.in (first pass over file, find array dimensions only).
  The contents of geometry.in will be repeated verbatim below
  unless switched off by setting 'verbatim_writeout .false.' .
  in the first line of geometry.in .
  -----------------------------------------------------------------------
  
  #
  # This is the geometry file that corresponds to the current relaxation step.
  # If you do not want this file to be written, set the "write_restart_geometry" flag to .false.
  #
  atom       0.14591634     -0.52680390      0.31584269 C
  atom      -0.28352322      0.26150711      1.53985740 C
  atom      -0.30190660      1.49218968      1.54332904 O
  atom       1.15252096     -0.20159593      0.02531316 H
  atom      -0.53065878     -0.28105139     -0.51253734 H
  atom       0.15009209     -1.61386944      0.46295865 H
  atom      -0.63054186     -0.49173110      2.62701940 N
  atom      -1.16586892      0.05320525      3.88172787 C
  atom      -2.58126671      0.64393634      3.62092223 C
  atom      -3.49921242     -0.16182841      3.44618817 O
  atom      -0.73520824     -1.48871586      2.48700654 H
  atom      -1.42673143     -0.83524985      4.47211311 H
  atom      -0.12134788      0.83735324      4.67867345 C
  atom      -0.56298025      1.24619503      5.59676654 H
  atom       0.32928214      1.65853904      4.11571415 H
  atom       0.68255075      0.15003769      4.97335820 H
  atom      -2.84597576      1.98344549      3.60424183 N
  atom      -1.98008559      3.15874274      3.59827334 C
  atom      -1.59697069      3.74350092      4.97409349 C
  atom      -0.50374902      4.29277616      5.10261502 O
  atom      -3.82938615      2.14446943      3.39563843 H
  atom      -1.03087036      2.88030063      3.12883733 H
  atom      -2.61505184      4.25350403      2.73258652 C
  atom      -1.97690392      5.14460166      2.73498940 H
  atom      -3.60961829      4.54426625      3.10367044 H
  atom      -2.71410203      3.89730364      1.69952250 H
  atom      -2.46391827      3.66641723      6.03173010 N
  atom      -3.85456899      3.23777440      6.09022897 C
  atom      -2.08308301      4.11684298      6.85824922 H
  atom      -4.46450287      3.69681488      5.29936790 H
  atom      -4.26874901      3.56855007      7.04944886 H
  atom      -3.96360712      2.14707000      6.02806833 H
  
  -----------------------------------------------------------------------
  Completed first pass over input file geometry.in .
  -----------------------------------------------------------------------
  

  Basic array size parameters:
  | Number of species                 :        4
  | Number of atoms                   :       32
  | Max. basis fn. angular momentum   :        4
  | Max. atomic/ionic basis occupied n:        2
  | Max. number of basis fn. types    :        2
  | Max. radial fns per species/type  :        8
  | Max. logarithmic grid size        :     1301
  | Max. radial integration grid size :       73
  | Max. angular integration grid size:      434
  | Max. angular grid division number :        8
  | Radial grid for Hartree potential :     1301
  | Number of spin channels           :        1

------------------------------------------------------------
          Reading file control.in.
------------------------------------------------------------
  XC: Using PBE gradient-corrected functionals.
  Self-consistent screening and van der Waals energy (TS, TS+SCS,MBD) module
  Spin treatment: No spin polarisation.
  Charge =   0.000000E+00: Neutral system requested explicitly.
  Occupation type: Gaussian broadening, width =   0.500000E-01 eV.
  Using pulay charge density mixing.
  Pulay mixing - number of memorized iterations:   10
  Charge density mixing - mixing parameter:     0.5000
  Convergence accuracy of self-consistent charge density:  0.1000E-03
  Convergence accuracy of sum of eigenvalues:  0.1000E-01
  Convergence accuracy of total energy:  0.1000E-04
  Convergence accuracy of forces:  0.1000E-03
  Maximum number of s.-c. iterations  :  1000
  Fitting ESP-charges to Potential. 
  | Esp charge output options: 
  | ESP Grid method: 3, cubic grid
  | Number of points in x, ,y, z:  0080 0080 0080
  |
 
  Reading configuration options for species H                   .
  | Found nuclear charge :   1.0000
  | Found atomic mass :    1.00794000000000      amu
  | Found l_max for Hartree potential  :   6
  | Found cutoff potl. onset [A], width [A], scale factor :    4.00000    2.00000    1.00000
  | Threshold for basis-dependent cutoff potential is   0.100000E-03
  | Found data for basic radial integration grid :    24 points, outermost radius =    7.000 A
  | Found multiplier for basic radial grid :   2
  | Found angular grid specification: user-specified.
  | Specified grid contains     6 separate shells.
  | Check grid settings after all constraints further below.
  | Found free-atom valence shell :  1 s   1.000
  | No ionic wave fns used. Skipping ion_occ.
  | Found hydrogenic basis function :  2 s   2.100
  | Found hydrogenic basis function :  2 p   3.500
  | Found hydrogenic basis function :  1 s   0.850
  | Found hydrogenic basis function :  2 p   3.700
  | Found hydrogenic basis function :  2 s   1.200
  | Found hydrogenic basis function :  3 d   7.000
  Species H                   : Missing cutoff potential type.
  Defaulting to exp(1/x)/(1-x)^2 type cutoff potential.
  Species H : No 'logarithmic' tag. Using default grid for free atom:
  | Default logarithmic grid data [bohr] : 0.1000E-03 0.1000E+03 0.1012E+01
  Species H : On-site basis accuracy parameter (for Gram-Schmidt orthonormalisation) not specified.
  Using default value basis_acc =  0.1000000E-03.
  Species H                   : Using default innermost maximum threshold i_radial=  2 for radial functions.
  Species H                   : Default cutoff onset for free atom density etc. : 0.40000000E+01 AA.
  Species H                   : Basic radial grid will be enhanced according to radial_multiplier =   2, to contain    49 grid points.
 
  Reading configuration options for species C                   .
  | Found nuclear charge :   6.0000
  | Found atomic mass :    12.0107000000000      amu
  | Found l_max for Hartree potential  :   6
  | Found cutoff potl. onset [A], width [A], scale factor :    4.00000    2.00000    1.00000
  | Threshold for basis-dependent cutoff potential is   0.100000E-03
  | Found data for basic radial integration grid :    34 points, outermost radius =    7.000 A
  | Found multiplier for basic radial grid :   2
  | Found angular grid specification: user-specified.
  | Specified grid contains     6 separate shells.
  | Check grid settings after all constraints further below.
  | Found free-atom valence shell :  2 s   2.000
  | Found free-atom valence shell :  2 p   2.000
  | No ionic wave fns used. Skipping ion_occ.
  | No ionic wave fns used. Skipping ion_occ.
  | Found hydrogenic basis function :  2 p   1.700
  | Found hydrogenic basis function :  3 d   6.000
  | Found hydrogenic basis function :  2 s   4.900
  | Found hydrogenic basis function :  4 f   9.800
  | Found hydrogenic basis function :  3 p   5.200
  | Found hydrogenic basis function :  3 s   4.300
  | Found hydrogenic basis function :  5 g  14.400
  | Found hydrogenic basis function :  3 d   6.200
  Species C                   : Missing cutoff potential type.
  Defaulting to exp(1/x)/(1-x)^2 type cutoff potential.
  Species C : No 'logarithmic' tag. Using default grid for free atom:
  | Default logarithmic grid data [bohr] : 0.1000E-03 0.1000E+03 0.1012E+01
  Species C : On-site basis accuracy parameter (for Gram-Schmidt orthonormalisation) not specified.
  Using default value basis_acc =  0.1000000E-03.
  Species C                   : Using default innermost maximum threshold i_radial=  2 for radial functions.
  Species C                   : Default cutoff onset for free atom density etc. : 0.40000000E+01 AA.
  Species C                   : Basic radial grid will be enhanced according to radial_multiplier =   2, to contain    69 grid points.
 
  Reading configuration options for species N                   .
  | Found nuclear charge :   7.0000
  | Found atomic mass :    14.0067000000000      amu
  | Found l_max for Hartree potential  :   6
  | Found cutoff potl. onset [A], width [A], scale factor :    4.00000    2.00000    1.00000
  | Threshold for basis-dependent cutoff potential is   0.100000E-03
  | Found data for basic radial integration grid :    35 points, outermost radius =    7.000 A
  | Found multiplier for basic radial grid :   2
  | Found angular grid specification: user-specified.
  | Specified grid contains     6 separate shells.
  | Check grid settings after all constraints further below.
  | Found free-atom valence shell :  2 s   2.000
  | Found free-atom valence shell :  2 p   3.000
  | No ionic wave fns used. Skipping ion_occ.
  | No ionic wave fns used. Skipping ion_occ.
  | Found hydrogenic basis function :  2 p   1.800
  | Found hydrogenic basis function :  3 d   6.800
  | Found hydrogenic basis function :  3 s   5.800
  | Found hydrogenic basis function :  4 f  10.800
  | Found hydrogenic basis function :  3 p   5.800
  | Found hydrogenic basis function :  1 s   0.800
  | Found hydrogenic basis function :  5 g  16.000
  | Found hydrogenic basis function :  3 d   4.900
  Species N                   : Missing cutoff potential type.
  Defaulting to exp(1/x)/(1-x)^2 type cutoff potential.
  Species N : No 'logarithmic' tag. Using default grid for free atom:
  | Default logarithmic grid data [bohr] : 0.1000E-03 0.1000E+03 0.1012E+01
  Species N : On-site basis accuracy parameter (for Gram-Schmidt orthonormalisation) not specified.
  Using default value basis_acc =  0.1000000E-03.
  Species N                   : Using default innermost maximum threshold i_radial=  2 for radial functions.
  Species N                   : Default cutoff onset for free atom density etc. : 0.40000000E+01 AA.
  Species N                   : Basic radial grid will be enhanced according to radial_multiplier =   2, to contain    71 grid points.
 
  Reading configuration options for species O                   .
  | Found nuclear charge :   8.0000
  | Found atomic mass :    15.9994000000000      amu
  | Found l_max for Hartree potential  :   6
  | Found cutoff potl. onset [A], width [A], scale factor :    4.00000    2.00000    1.00000
  | Threshold for basis-dependent cutoff potential is   0.100000E-03
  | Found data for basic radial integration grid :    36 points, outermost radius =    7.000 A
  | Found multiplier for basic radial grid :   2
  | Found angular grid specification: user-specified.
  | Specified grid contains     6 separate shells.
  | Check grid settings after all constraints further below.
  | Found free-atom valence shell :  2 s   2.000
  | Found free-atom valence shell :  2 p   4.000
  | No ionic wave fns used. Skipping ion_occ.
  | No ionic wave fns used. Skipping ion_occ.
  | Found hydrogenic basis function :  2 p   1.800
  | Found hydrogenic basis function :  3 d   7.600
  | Found hydrogenic basis function :  3 s   6.400
  | Found hydrogenic basis function :  4 f  11.600
  | Found hydrogenic basis function :  3 p   6.200
  | Found hydrogenic basis function :  3 d   5.600
  | Found hydrogenic basis function :  5 g  17.600
  | Found hydrogenic basis function :  1 s   0.750
  Species O                   : Missing cutoff potential type.
  Defaulting to exp(1/x)/(1-x)^2 type cutoff potential.
  Species O : No 'logarithmic' tag. Using default grid for free atom:
  | Default logarithmic grid data [bohr] : 0.1000E-03 0.1000E+03 0.1012E+01
  Species O : On-site basis accuracy parameter (for Gram-Schmidt orthonormalisation) not specified.
  Using default value basis_acc =  0.1000000E-03.
  Species O                   : Using default innermost maximum threshold i_radial=  2 for radial functions.
  Species O                   : Default cutoff onset for free atom density etc. : 0.40000000E+01 AA.
  Species O                   : Basic radial grid will be enhanced according to radial_multiplier =   2, to contain    73 grid points.
 
  Finished reading input file 'control.in'. Consistency checks are next.
 
  Target number of points in a grid batch is not set. Defaulting to  100
  Method for grid partitioning is not set. Defaulting to parallel hash+maxmin partitioning.
  Batch size limit is not set. Defaulting to    200
  By default, will store active basis functions for each batch.
  If in need of memory, prune_basis_once .false. can be used to disable this option.
  communication_type for Hartree potential was not specified.
  Defaulting to calc_hartree .
  Pulay mixer: Number of initial linear mixing iterations not set.
  Defaulting to    0 iterations.
  Work space size for distributed Hartree potential not set.
  Defaulting to   0.200000E+03 MB.
  Algorithm-dependent basis array size parameters:
  | n_max_pulay                         :       10
  Geometry relaxation not requested: no relaxation will be performed.
  Handling of forces: Unphysical translation and rotation will be removed from forces.
  No accuracy limit for integral partition fn. given. Defaulting to  0.1000E-14.
  No threshold value for u(r) in integrations given. Defaulting to  0.1000E-05.
  No accuracy for occupation numbers given. Defaulting to  0.1000E-07.
  No threshold value for occupation numbers given. Defaulting to  0.0000E+00.
  No accuracy for fermi level given. Defaulting to  0.1000E-19.
  Maximum # of iterations to find E_F not set. Defaulting to  200.
  Preferred method for the eigenvalue solver ('KS_method') not specified in 'control.in'.
  Calling blacs routine to test compilation state
  Since scalapack support is enabled, defaulting to 'elpa'.
  Preferred method for the MBD eigenvalue solver ('mbd_eigensolver') not specified in 'control.in'.
  Calling blacs routine to test compilation state
  Since scalapack support is enabled, defaulting to 'scaLAPACK'.
  Will not use alltoall communication since running on < 1024 CPUs.
  Threshold for basis singularities not set.
  Default threshold for basis singularities:  0.1000E-04
  partition_type (choice of integration weights) for integrals was not specified.
  | Using a version of the partition function of Stratmann and coworkers ('stratmann_smoother').
  | At each grid point, the set of atoms used to build the partition table is smoothly restricted to
  | only those atoms whose free-atom density would be non-zero at that grid point.
  Partitioning for Hartree potential was not defined. Using partition_type for integrals.
  | Adjusted default value of keyword multip_moments_threshold to:       0.10000000E-11
  | This value may affect high angular momentum components of the Hartree potential in periodic systems.
  No q(lm)/r^(l+1) cutoff set for long-range Hartree potential.
  | Using default value of  0.100000E-09 .
  | Verify using the multipole_threshold keyword.
  Defaulting to new monopole extrapolation.
  Density update method: automatic selection selected.
------------------------------------------------------------


------------------------------------------------------------
          Reading geometry description geometry.in.
------------------------------------------------------------
 * Warning! You did not set the 'relativistic' flag in input file 'control.in'.
 * Since you are not attempting to treat any elements beyond Ca(Z=20), FHI-aims
 * will default to 'relativistic none'.
 * You must ensure that this is really what you want!!
 * For example, DO NOT compute total-energy differences between results from
 * different settings of the 'relativistic' flag.
  Input structure read successfully.
  The structure contains       32 atoms,  and a total of        116.000 electrons.

  Input geometry:
  | No unit cell requested.
  | Atomic structure:
  |       Atom                x [A]            y [A]            z [A]
  |    1: Species C              0.145916        -0.526804         0.315843
  |    2: Species C             -0.283523         0.261507         1.539857
  |    3: Species O             -0.301907         1.492190         1.543329
  |    4: Species H              1.152521        -0.201596         0.025313
  |    5: Species H             -0.530659        -0.281051        -0.512537
  |    6: Species H              0.150092        -1.613869         0.462959
  |    7: Species N             -0.630542        -0.491731         2.627019
  |    8: Species C             -1.165869         0.053205         3.881728
  |    9: Species C             -2.581267         0.643936         3.620922
  |   10: Species O             -3.499212        -0.161828         3.446188
  |   11: Species H             -0.735208        -1.488716         2.487007
  |   12: Species H             -1.426731        -0.835250         4.472113
  |   13: Species C             -0.121348         0.837353         4.678673
  |   14: Species H             -0.562980         1.246195         5.596767
  |   15: Species H              0.329282         1.658539         4.115714
  |   16: Species H              0.682551         0.150038         4.973358
  |   17: Species N             -2.845976         1.983445         3.604242
  |   18: Species C             -1.980086         3.158743         3.598273
  |   19: Species C             -1.596971         3.743501         4.974093
  |   20: Species O             -0.503749         4.292776         5.102615
  |   21: Species H             -3.829386         2.144469         3.395638
  |   22: Species H             -1.030870         2.880301         3.128837
  |   23: Species C             -2.615052         4.253504         2.732587
  |   24: Species H             -1.976904         5.144602         2.734989
  |   25: Species H             -3.609618         4.544266         3.103670
  |   26: Species H             -2.714102         3.897304         1.699523
  |   27: Species N             -2.463918         3.666417         6.031730
  |   28: Species C             -3.854569         3.237774         6.090229
  |   29: Species H             -2.083083         4.116843         6.858249
  |   30: Species H             -4.464503         3.696815         5.299368
  |   31: Species H             -4.268749         3.568550         7.049449
  |   32: Species H             -3.963607         2.147070         6.028068
  |

  | The smallest distance between any two atoms is         1.01219428 AA.
  |
  | The first atom of this pair is atom number                      7 .
  | The second atom of this pair is atom number                    11 .

  Number of empty states per atom not set in control.in - providing a guess from actual geometry.
  | Total number of empty states used during s.c.f. cycle:       71
  If you use a very high smearing, use empty_states (per atom!) in control.in to increase this value.

  Structure-dependent array size parameters: 
  | Maximum number of distinct radial functions  :       40
  | Maximum number of basis functions            :      840
  | Number of Kohn-Sham states (occupied + empty):      129
------------------------------------------------------------

------------------------------------------------------------
          Preparing all fixed parts of the calculation.
------------------------------------------------------------
  Determining machine precision:
    2.225073858507201E-308
  Setting up grids for atomic and cluster calculations.

  Creating wave function, potential, and density for free atoms.

  Species: H

  List of occupied orbitals and eigenvalues:
    n    l              occ      energy [Ha]    energy [eV]
    1    0           1.0000        -0.238382        -6.4867


  Species: C

  List of occupied orbitals and eigenvalues:
    n    l              occ      energy [Ha]    energy [eV]
    1    0           2.0000       -10.041232      -273.2358
    2    0           2.0000        -0.504327       -13.7234
    2    1           2.0000        -0.193750        -5.2722


  Species: N

  List of occupied orbitals and eigenvalues:
    n    l              occ      energy [Ha]    energy [eV]
    1    0           2.0000       -14.129007      -384.4699
    2    0           2.0000        -0.681802       -18.5528
    2    1           3.0000        -0.260543        -7.0897


  Species: O

  List of occupied orbitals and eigenvalues:
    n    l              occ      energy [Ha]    energy [eV]
    1    0           2.0000       -18.898576      -514.2564
    2    0           2.0000        -0.878795       -23.9132
    2    1           4.0000        -0.332075        -9.0362

  Creating fixed part of basis set: Ionic, confined, hydrogenic.
 
  H                    hydrogenic:
 
  List of hydrogenic basis orbitals: 
    n    l      effective z      eigenvalue [eV]  inner max. [A]     outer max. [A]     outer radius [A]   
    2    0         2.100000       -14.9965           0.193243           1.317208           5.373006
    2    1         3.500000       -41.6672           0.602369           0.602369           4.056063
    1    0         0.850000        -9.8292           0.624871           0.624871           5.373006
    2    1         3.700000       -46.5653           0.573622           0.573622           3.910002
    2    0         1.200000        -4.5995           0.334980           2.228188           5.505995
    3    2         7.000000       -74.0753           0.680699           0.680699           3.769201
 
 
  C                    hydrogenic:
 
  List of hydrogenic basis orbitals: 
    n    l      effective z      eigenvalue [eV]  inner max. [A]     outer max. [A]     outer radius [A]   
    2    1         1.700000        -9.8152           1.245706           1.245706           5.401630
    3    2         6.000000       -54.4226           0.792453           0.792453           4.178599
    2    0         4.900000       -81.6681           0.082559           0.562749           3.353238
    4    3         9.800000       -81.6681           0.863254           0.863254           4.028125
    3    1         5.200000       -40.8774           0.305389           1.215618           4.898362
    3    0         4.300000       -27.9508           0.091041           1.610311           5.401630
    5    4        14.400000      -112.8510           0.917666           0.917666           3.883070
    3    2         6.200000       -58.1113           0.763917           0.763917           4.077671
 
 
  N                    hydrogenic:
 
  List of hydrogenic basis orbitals: 
    n    l      effective z      eigenvalue [eV]  inner max. [A]     outer max. [A]     outer radius [A]   
    2    1         1.800000       -11.0118           1.177451           1.177451           5.427479
    3    2         6.800000       -69.9029           0.704619           0.704619           3.854246
    3    0         5.800000       -50.8549           0.067388           1.191934           4.629968
    4    3        10.800000       -99.1854           0.786571           0.786571           3.761152
    3    1         5.800000       -50.8549           0.274880           1.094176           4.518138
    1    0         0.800000        -8.7059           0.662839           0.662839           5.361532
    5    4        16.000000      -139.3222           0.825990           0.825990           3.625711
    3    2         4.900000       -36.2967           0.968267           0.968267           4.862000
 
 
  O                    hydrogenic:
 
  List of hydrogenic basis orbitals: 
    n    l      effective z      eigenvalue [eV]  inner max. [A]     outer max. [A]     outer radius [A]   
    2    1         1.800000       -11.0118           1.178562           1.178562           5.432602
    3    2         7.600000       -87.3182           0.624125           0.624125           3.541477
    3    0         6.400000       -61.9209           0.061167           1.081902           4.306578
    4    3        11.600000      -114.4238           0.731631           0.731631           3.585037
    3    1         6.200000       -58.1113           0.255680           1.030270           4.306578
    3    2         5.600000       -47.4081           0.847233           0.847233           4.413171
    5    4        17.600000      -168.5799           0.749740           0.749740           3.372465
    1    0         0.750000        -7.6499           0.705284           0.705284           5.366593
 

  Adding cutoff potential to free-atom effective potential.
  Creating atomic-like basis functions for current effective potential.

  Species H                   :

  List of atomic basis orbitals and eigenvalues:
    n    l      energy [Ha]    energy [eV]    outer radius [A]
    1    0        -0.238382        -6.4867       5.373006


  Species C                   :

  List of atomic basis orbitals and eigenvalues:
    n    l      energy [Ha]    energy [eV]    outer radius [A]
    1    0       -10.041232      -273.2358       1.934409
    2    0        -0.504327       -13.7234       5.271162
    2    1        -0.193750        -5.2722       5.401630


  Species N                   :

  List of atomic basis orbitals and eigenvalues:
    n    l      energy [Ha]    energy [eV]    outer radius [A]
    1    0       -14.129007      -384.4699       1.637919
    2    0        -0.681802       -18.5528       5.168461
    2    1        -0.260543        -7.0897       5.361532


  Species O                   :

  List of atomic basis orbitals and eigenvalues:
    n    l      energy [Ha]    energy [eV]    outer radius [A]
    1    0       -18.898576      -514.2564       1.415765
    2    0        -0.878795       -23.9132       5.048385
    2    1        -0.332075        -9.0362       5.301386

  Assembling full basis from fixed parts.
  | Species H :   atomic orbital   1 s accepted.
  | Species H :    hydro orbital   2 s accepted.
  | Species H :    hydro orbital   1 s accepted.
  | Species H :    hydro orbital   2 s accepted.
  | Species H :    hydro orbital   2 p accepted.
  | Species H :    hydro orbital   2 p accepted.
  | Species H :    hydro orbital   3 d accepted.
  | Species C :   atomic orbital   1 s accepted.
  | Species C :    hydro orbital   2 s accepted.
  | Species C :   atomic orbital   2 s accepted.
  | Species C :    hydro orbital   3 s accepted.
  | Species C :    hydro orbital   3 p accepted.
  | Species C :   atomic orbital   2 p accepted.
  | Species C :    hydro orbital   2 p accepted.
  | Species C :    hydro orbital   3 d accepted.
  | Species C :    hydro orbital   3 d accepted.
  | Species C :    hydro orbital   4 f accepted.
  | Species C :    hydro orbital   5 g accepted.
  | Species N :   atomic orbital   1 s accepted.
  | Species N :    hydro orbital   3 s accepted.
  | Species N :   atomic orbital   2 s accepted.
  | Species N :    hydro orbital   1 s accepted.
  | Species N :    hydro orbital   3 p accepted.
  | Species N :   atomic orbital   2 p accepted.
  | Species N :    hydro orbital   2 p accepted.
  | Species N :    hydro orbital   3 d accepted.
  | Species N :    hydro orbital   3 d accepted.
  | Species N :    hydro orbital   4 f accepted.
  | Species N :    hydro orbital   5 g accepted.
  | Species O :   atomic orbital   1 s accepted.
  | Species O :    hydro orbital   3 s accepted.
  | Species O :   atomic orbital   2 s accepted.
  | Species O :    hydro orbital   1 s accepted.
  | Species O :    hydro orbital   3 p accepted.
  | Species O :   atomic orbital   2 p accepted.
  | Species O :    hydro orbital   2 p accepted.
  | Species O :    hydro orbital   3 d accepted.
  | Species O :    hydro orbital   3 d accepted.
  | Species O :    hydro orbital   4 f accepted.
  | Species O :    hydro orbital   5 g accepted.
 
  Basis size parameters after reduction:
  | Total number of radial functions:       40
  | Total number of basis functions :      840
 
  Testing on-site integration grid accuracy.
  |  Species  Function  <phi|h_atom|phi> (log., in eV)  <phi|h_atom|phi> (rad., in eV)
           1        1                 -6.4869821809                 -6.4870742227
           1        2                 13.5044133542                 13.5041049177
           1        3                 32.7854418792                 32.7779770519
           1        4                 33.7995553101                 33.7152624900 ***
           1        5                 28.8558651799                 28.8558652046
           1        6                 59.6361831893                 59.6362535845
           1        7                 60.2733718049                 60.2733715484
           2        8               -273.2358277112               -273.2358261765
           2        9                -10.7624923123                -10.7625144012
           2       10                 17.4634079027                 17.4634252127
           2       11                 53.0363661832                 53.0366180446
           2       12                 15.0981351967                 15.0981317714
           2       13                  3.8522181899                  3.8522770949
           2       14                 12.1181835661                 12.1206868578
           2       15                 29.4320778347                 29.4320780959
           2       16                 54.8753777694                 54.8752901936
           2       17                 59.3533975461                 59.3533974833
           2       18                 93.4537491195                 93.4537492066
           3       19               -384.4698526889               -384.4698499465
           3       20                 12.5691022037                 12.5690910168
           3       21                -15.7489097511                -15.7489165588
           3       22                 27.0978334940                 27.0985589490
           3       23                 18.5949116966                 18.5949125562
           3       24                  1.2212828291                  1.2212855301
           3       25                 13.4428926797                 13.4434051125
           3       26                 35.9380614500                 35.9380613666
           3       27                 39.9231532098                 39.9231654735
           3       28                 72.9957335806                 72.9957336833
           3       29                116.4231321147                116.4231321431
           4       30               -514.2564144315               -514.2564099626
           4       31                 15.1726678541                 15.1726530877
           4       32                -21.5447785304                -21.5447874973
           4       33                 14.4944558459                 14.4944698284
           4       34                 20.8882174564                 20.8882178906
           4       35                 -2.4850315908                 -2.4850322289
           4       36                 13.8600193195                 13.8599826966
           4       37                 45.8243383616                 45.8243383675
           4       38                 52.1840606465                 52.1840622440
           4       39                 85.4074185510                 85.4074185819
           4       40                142.0983717302                142.0983717339
 * Note: Onsite integrals marked "***" above are less accurate than
 * onsite_accuracy_threshold =    0.03000 eV. Usually, this is harmless.
 * When in doubt, tighten the "radial" and/or "radial_multiplier" flags to check.

  Preparing densities etc. for the partition functions (integrals / Hartree potential).

  Preparations completed.
  max(cpu_time)          :      0.232 s.
  Wall clock time (cpu1) :      0.236 s.
------------------------------------------------------------

------------------------------------------------------------
          Begin self-consistency loop: Initialization.

          Date     :  20170309, Time     :  184941.365
------------------------------------------------------------

  Initializing index lists of integration centers etc. from given atomic structure:
  | Number of centers in hartree potential         :        32
  | Number of centers in hartree multipole         :        32
  | Number of centers in electron density summation:        32
  | Number of centers in basis integrals           :        32
  | Number of centers in integrals                 :        32
  | Number of centers in hamiltonian               :        32
  Using modified Scalapack Eigenvalue solver (ELPA)
  * Using 32 tasks for Scalapack Eigenvalue solver.
  Detailed listing of tasks and assigned k-points:
  (for non-periodic systems, the "k-point" denotes an internal label only)
   Task     0 k-point     1 on eos399
   Task     1 k-point     1 on eos399
   Task     2 k-point     1 on eos399
   Task     3 k-point     1 on eos399
   Task     4 k-point     1 on eos399
   Task     5 k-point     1 on eos399
   Task     6 k-point     1 on eos399
   Task     7 k-point     1 on eos399
   Task     8 k-point     1 on eos399
   Task     9 k-point     1 on eos399
   Task    10 k-point     1 on eos399
   Task    11 k-point     1 on eos399
   Task    12 k-point     1 on eos399
   Task    13 k-point     1 on eos399
   Task    14 k-point     1 on eos399
   Task    15 k-point     1 on eos399
   Task    16 k-point     1 on eos399
   Task    17 k-point     1 on eos399
   Task    18 k-point     1 on eos399
   Task    19 k-point     1 on eos399
   Task    20 k-point     1 on eos399
   Task    21 k-point     1 on eos399
   Task    22 k-point     1 on eos399
   Task    23 k-point     1 on eos399
   Task    24 k-point     1 on eos399
   Task    25 k-point     1 on eos399
   Task    26 k-point     1 on eos399
   Task    27 k-point     1 on eos399
   Task    28 k-point     1 on eos399
   Task    29 k-point     1 on eos399
   Task    30 k-point     1 on eos399
   Task    31 k-point     1 on eos399
  Tasks:    32 split into      8 X      4 BLACS grid
  Calculating blocksize based on n_basis =          840 max_nprow =            8 max_npcol =            4
  Scalapack blocksize set to:           16
  Required Scalapack workspace - INTEGER:            1 REAL:             1
  Partitioning the integration grid into batches with parallel hashing+maxmin method.
  | Number of batches:     5267
  | Maximal batch size:     193
  | Minimal batch size:      33
  | Average batch size:     100.195
  | Standard deviation of batch sizes:      24.056

  Integration load balanced across    32 MPI tasks.
  Work distribution over tasks is as follows:
  Task     0 has      16401 integration points.
  Task     1 has      16550 integration points.
  Task     2 has      16500 integration points.
  Task     3 has      16472 integration points.
  Task     4 has      16542 integration points.
  Task     5 has      16554 integration points.
  Task     6 has      16547 integration points.
  Task     7 has      16450 integration points.
  Task     8 has      16413 integration points.
  Task     9 has      16449 integration points.
  Task    10 has      16509 integration points.
  Task    11 has      16521 integration points.
  Task    12 has      16473 integration points.
  Task    13 has      16421 integration points.
  Task    14 has      16435 integration points.
  Task    15 has      16545 integration points.
  Task    16 has      16492 integration points.
  Task    17 has      16522 integration points.
  Task    18 has      16549 integration points.
  Task    19 has      16517 integration points.
  Task    20 has      16517 integration points.
  Task    21 has      16550 integration points.
  Task    22 has      16545 integration points.
  Task    23 has      16520 integration points.
  Task    24 has      16442 integration points.
  Task    25 has      16442 integration points.
  Task    26 has      16400 integration points.
  Task    27 has      16524 integration points.
  Task    28 has      16520 integration points.
  Task    29 has      16517 integration points.
  Task    30 has      16412 integration points.
  Task    31 has      16477 integration points.
  Initializing partition tables, free-atom densities, potentials, etc. across the integration grid (initialize_grid_storage).
  | initialize_grid_storage: Actual outermost partition radius vs. multipole_radius_free
  | (-- VB: in principle, multipole_radius_free should be larger, hence this output)
  | Species        1: Confinement radius =              6.000000000000000 AA, multipole_radius_free =              6.071692442739658 AA.
  | Species        1: outer_partition_radius set to              6.071692442739658 AA .
  | Species        2: Confinement radius =              6.000000000000000 AA, multipole_radius_free =              6.029870734432609 AA.
  | Species        2: outer_partition_radius set to              6.029870734432609 AA .
  | Species        3: Confinement radius =              6.000000000000000 AA, multipole_radius_free =              6.058726835495003 AA.
  | Species        3: outer_partition_radius set to              6.058726835495003 AA .
  | Species        4: Confinement radius =              6.000000000000000 AA, multipole_radius_free =              6.064445521808699 AA.
  | Species        4: outer_partition_radius set to              6.064445521808699 AA .
  | Original list of interatomic distances with          32 x         32 entries is created.
  | Net number of integration points:   527728
  | of which are non-zero points    :   413187
  Obtaining max. number of non-zero basis functions in each batch (get_n_compute_maxes).
  | Maximal number of non-zero basis functions:      785 in task     0
  | Maximal number of non-zero basis functions:      808 in task     1
  | Maximal number of non-zero basis functions:      780 in task     2
  | Maximal number of non-zero basis functions:      773 in task     3
  | Maximal number of non-zero basis functions:      771 in task     4
  | Maximal number of non-zero basis functions:      782 in task     5
  | Maximal number of non-zero basis functions:      776 in task     6
  | Maximal number of non-zero basis functions:      762 in task     7
  | Maximal number of non-zero basis functions:      770 in task     8
  | Maximal number of non-zero basis functions:      766 in task     9
  | Maximal number of non-zero basis functions:      776 in task    10
  | Maximal number of non-zero basis functions:      771 in task    11
  | Maximal number of non-zero basis functions:      780 in task    12
  | Maximal number of non-zero basis functions:      770 in task    13
  | Maximal number of non-zero basis functions:      777 in task    14
  | Maximal number of non-zero basis functions:      781 in task    15
  | Maximal number of non-zero basis functions:      779 in task    16
  | Maximal number of non-zero basis functions:      787 in task    17
  | Maximal number of non-zero basis functions:      758 in task    18
  | Maximal number of non-zero basis functions:      784 in task    19
  | Maximal number of non-zero basis functions:      786 in task    20
  | Maximal number of non-zero basis functions:      777 in task    21
  | Maximal number of non-zero basis functions:      786 in task    22
  | Maximal number of non-zero basis functions:      784 in task    23
  | Maximal number of non-zero basis functions:      769 in task    24
  | Maximal number of non-zero basis functions:      791 in task    25
  | Maximal number of non-zero basis functions:      767 in task    26
  | Maximal number of non-zero basis functions:      778 in task    27
  | Maximal number of non-zero basis functions:      771 in task    28
  | Maximal number of non-zero basis functions:      787 in task    29
  | Maximal number of non-zero basis functions:      768 in task    30
  | Maximal number of non-zero basis functions:      784 in task    31
  Selecting the method for density update.
  Loop over occupied states selected for charge density update.
  Integrating Hamiltonian matrix: batch-based integration.
  Time summed over all CPUs for integration: real work       23.001 s, elapsed       24.265 s
  Integrating overlap matrix.
  Time summed over all CPUs for integration: real work       14.149 s, elapsed       14.701 s
  Deallocating overlap matrix.

  Updating Kohn-Sham eigenvalues, eigenvectors, occupation numbers, and Fermi level.
  Solving generalized eigenproblem
  Solving real symmetric generalised eigenvalue problem by standard ScaLAPACK.
  Transforming overlap matrix with ScaLAPACK and checking for singularities.
  : Overlap matrix is nonsingular, using Cholesky decomposition
  | Lowest eigenvalue:  0.937918E-04
  Factoring overlap matrix with Cholesky decomposition
  Using Cholesky factor for transformation
  Using 1-stage real ELPA solver
  Determining occupation numbers for Kohn-Sham eigenstates.
  | Chemical potential (Fermi level) in eV                 : -.96335386E+01
  | Error in electron count due to remaining E_F inaccuracy: 0.00000000E+00
  | Maximum occupation number of highest empty state:  0.00E+00

  Writing Kohn-Sham eigenvalues.

  State    Occupation    Eigenvalue [Ha]    Eigenvalue [eV]
      1       2.00000         -18.974269         -516.31612
      2       2.00000         -18.973895         -516.30594
      3       2.00000         -18.972938         -516.27991
      4       2.00000         -14.254025         -387.87177
      5       2.00000         -14.253874         -387.86765
      6       2.00000         -14.253686         -387.86252
      7       2.00000         -10.171423         -276.77850
      8       2.00000         -10.170857         -276.76309
      9       2.00000         -10.170826         -276.76225
     10       2.00000         -10.166353         -276.64054
     11       2.00000         -10.148986         -276.16795
     12       2.00000         -10.146962         -276.11288
     13       2.00000         -10.136145         -275.81853
     14       2.00000         -10.133773         -275.75399
     15       2.00000         -10.132468         -275.71848
     16       2.00000          -1.133230          -30.83675
     17       2.00000          -1.131335          -30.78519
     18       2.00000          -1.127823          -30.68963
     19       2.00000          -1.016467          -27.65947
     20       2.00000          -1.012343          -27.54724
     21       2.00000          -1.002867          -27.28940
     22       2.00000          -0.885888          -24.10625
     23       2.00000          -0.878824          -23.91403
     24       2.00000          -0.841261          -22.89187
     25       2.00000          -0.816501          -22.21812
     26       2.00000          -0.773027          -21.03512
     27       2.00000          -0.765808          -20.83870
     28       2.00000          -0.708091          -19.26814
     29       2.00000          -0.688543          -18.73621
     30       2.00000          -0.670102          -18.23441
     31       2.00000          -0.639815          -17.41025
     32       2.00000          -0.627890          -17.08576
     33       2.00000          -0.614501          -16.72141
     34       2.00000          -0.598458          -16.28487
     35       2.00000          -0.591334          -16.09102
     36       2.00000          -0.581161          -15.81419
     37       2.00000          -0.566074          -15.40366
     38       2.00000          -0.559301          -15.21935
     39       2.00000          -0.556717          -15.14903
     40       2.00000          -0.554756          -15.09568
     41       2.00000          -0.548012          -14.91217
     42       2.00000          -0.537354          -14.62214
     43       2.00000          -0.535581          -14.57391
     44       2.00000          -0.530746          -14.44232
     45       2.00000          -0.523126          -14.23498
     46       2.00000          -0.516285          -14.04883
     47       2.00000          -0.514449          -13.99888
     48       2.00000          -0.502000          -13.66012
     49       2.00000          -0.495354          -13.47926
     50       2.00000          -0.482052          -13.11731
     51       2.00000          -0.478993          -13.03405
     52       2.00000          -0.466575          -12.69615
     53       2.00000          -0.415675          -11.31108
     54       2.00000          -0.409239          -11.13596
     55       2.00000          -0.402673          -10.95729
     56       2.00000          -0.384072          -10.45112
     57       2.00000          -0.383118          -10.42516
     58       2.00000          -0.376207          -10.23711
     59       0.00000          -0.168244           -4.57816
     60       0.00000          -0.164665           -4.48076
     61       0.00000          -0.153992           -4.19033
     62       0.00000          -0.082377           -2.24160
     63       0.00000          -0.069503           -1.89129
     64       0.00000          -0.059278           -1.61304
     65       0.00000          -0.050308           -1.36894
     66       0.00000          -0.048749           -1.32652
     67       0.00000          -0.039594           -1.07740
     68       0.00000          -0.036065           -0.98138
     69       0.00000          -0.029289           -0.79700
     70       0.00000          -0.026980           -0.73417
     71       0.00000          -0.021628           -0.58853
     72       0.00000          -0.017700           -0.48165
     73       0.00000          -0.014975           -0.40749
     74       0.00000          -0.006513           -0.17724
     75       0.00000          -0.000989           -0.02692
     76       0.00000           0.001864            0.05072
     77       0.00000           0.002633            0.07165
     78       0.00000           0.004455            0.12122
     79       0.00000           0.008508            0.23152
     80       0.00000           0.010995            0.29918
     81       0.00000           0.023279            0.63346
     82       0.00000           0.032738            0.89085
     83       0.00000           0.039918            1.08623
     84       0.00000           0.043034            1.17101
     85       0.00000           0.047479            1.29198
     86       0.00000           0.053428            1.45386
     87       0.00000           0.054347            1.47885
     88       0.00000           0.062031            1.68795
     89       0.00000           0.065171            1.77338
     90       0.00000           0.071046            1.93325
     91       0.00000           0.076981            2.09476
     92       0.00000           0.079669            2.16789
     93       0.00000           0.083658            2.27645
     94       0.00000           0.090584            2.46491
     95       0.00000           0.091701            2.49532
     96       0.00000           0.098696            2.68565
     97       0.00000           0.106870            2.90809
     98       0.00000           0.107977            2.93821
     99       0.00000           0.118404            3.22193
    100       0.00000           0.122250            3.32659
    101       0.00000           0.125551            3.41641
    102       0.00000           0.136203            3.70627
    103       0.00000           0.140970            3.83600
    104       0.00000           0.143328            3.90016
    105       0.00000           0.148592            4.04340
    106       0.00000           0.154130            4.19409
    107       0.00000           0.157693            4.29104
    108       0.00000           0.165459            4.50238
    109       0.00000           0.170452            4.63823
    110       0.00000           0.174418            4.74617
    111       0.00000           0.175745            4.78227
    112       0.00000           0.181262            4.93240
    113       0.00000           0.184010            5.00716
    114       0.00000           0.190421            5.18161
    115       0.00000           0.193765            5.27261
    116       0.00000           0.205778            5.59949
    117       0.00000           0.207060            5.63439
    118       0.00000           0.209251            5.69401
    119       0.00000           0.211183            5.74659
    120       0.00000           0.219661            5.97728
    121       0.00000           0.221915            6.03861
    122       0.00000           0.228868            6.22781
    123       0.00000           0.234551            6.38245
    124       0.00000           0.239581            6.51933
    125       0.00000           0.243598            6.62864
    126       0.00000           0.247138            6.72497
    127       0.00000           0.256996            6.99322
    128       0.00000           0.264506            7.19758
    129       0.00000           0.266704            7.25738

  Highest occupied state (VBM) at    -10.23711109 eV
  | Occupation number:      2.00000000

  Lowest unoccupied state (CBM) at    -4.57815986 eV
  | Occupation number:      0.00000000

  Overall HOMO-LUMO gap:      5.65895123 eV.
  Calculating total energy contributions from superposition of free atom densities.

  Total energy components:
  | Sum of eigenvalues            :        -437.80820748 Ha      -11913.36747086 eV
  | XC energy correction          :         -98.81129379 Ha       -2688.79210834 eV
  | XC potential correction       :         127.00969286 Ha        3456.10958753 eV
  | Free-atom electrostatic energy:        -333.66517422 Ha       -9079.49134993 eV
  | Hartree energy correction     :           0.00000000 Ha           0.00000000 eV
  | MBD@rsSCS energy              :           0.00000000 Ha           0.00000000 eV
  | Entropy correction            :          -0.00000000 Ha          -0.00000000 eV
  | ---------------------------
  | Total energy                  :        -743.27498263 Ha      -20225.54134161 eV
  | Total energy, T -> 0          :        -743.27498263 Ha      -20225.54134161 eV  <-- do not rely on this value for anything but (periodic) metals
  | Electronic free energy        :        -743.27498263 Ha      -20225.54134161 eV

  Derived energy quantities:
  | Kinetic energy                :         735.14156225 Ha       20004.21971221 eV
  | Electrostatic energy          :       -1379.60525108 Ha      -37540.96894547 eV
  | Energy correction for multipole
  | error in Hartree potential    :           0.00000000 Ha           0.00000000 eV
  | Sum of eigenvalues per atom                           :        -372.29273346 eV
  | Total energy (T->0) per atom                          :        -632.04816693 eV  <-- do not rely on this value for anything but (periodic) metals
  | Electronic free energy per atom                       :        -632.04816693 eV
  Initialize hartree_potential_storage
  Max. number of atoms included in rho_multipole:           32

  End scf initialization - timings             :  max(cpu_time)    wall_clock(cpu1)
  | Time for scf. initialization               :        2.004 s           2.001 s
  | Boundary condition initialization          :        0.004 s           0.000 s
  | Integration                                :        1.240 s           1.238 s
  | Solution of K.-S. eqns.                    :        0.076 s           0.077 s
  | Grid partitioning                          :        0.332 s           0.331 s
  | Preloading free-atom quantities on grid    :        0.028 s           0.027 s
  | Free-atom superposition energy             :        0.044 s           0.041 s
  | Total energy evaluation                    :        0.004 s           0.000 s
------------------------------------------------------------

------------------------------------------------------------
          Begin self-consistency iteration #    1

  Date     :  20170309, Time     :  184943.367
------------------------------------------------------------
  Evaluating new KS density.
  Integration grid: deviation in total charge (<rho> - N_e) =   0.000000E+00
  Pulay mixing of updated and previous charge densities.

  Evaluating partitioned Hartree potential by multipole expansion.
  | Analytical far-field extrapolation by fixed multipoles:
  | Hartree multipole sum: apparent total charge =  -0.940446E-04
  Summing up the Hartree potential.
  Time summed over all CPUs for potential: real work        9.589 s, elapsed        9.862 s
  | RMS charge density error from multipole expansion :   0.105262E-01

  Integrating Hamiltonian matrix: batch-based integration.
  Time summed over all CPUs for integration: real work       22.783 s, elapsed       24.113 s

  Updating Kohn-Sham eigenvalues, eigenvectors, occupation numbers, and Fermi level.
  Solving generalized eigenproblem
  Solving real symmetric generalised eigenvalue problem by standard ScaLAPACK.
  Using Cholesky factor for transformation
  Using 2-stage real ELPA solver
  K-Point:    1, Trafo times: 1-stage=     0.021 s, 2-stage=     0.019 s ==> Using 2-stage solver
  Determining occupation numbers for Kohn-Sham eigenstates.
  | Chemical potential (Fermi level) in eV                 : -.37224434E+01
  | Error in electron count due to remaining E_F inaccuracy: 0.00000000E+00
  | Maximum occupation number of highest empty state:  0.00E+00

  Writing Kohn-Sham eigenvalues.

  State    Occupation    Eigenvalue [Ha]    Eigenvalue [eV]
      1       2.00000         -18.613859         -506.50888
      2       2.00000         -18.610838         -506.42666
      3       2.00000         -18.605861         -506.29123
      4       2.00000         -13.989681         -380.67859
      5       2.00000         -13.988519         -380.64696
      6       2.00000         -13.983740         -380.51692
      7       2.00000         -10.057933         -273.69028
      8       2.00000         -10.046867         -273.38915
      9       2.00000         -10.045195         -273.34367
     10       2.00000          -9.960766         -271.04623
     11       2.00000          -9.950197         -270.75864
     12       2.00000          -9.896090         -269.28632
     13       2.00000          -9.846253         -267.93017
     14       2.00000          -9.833863         -267.59304
     15       2.00000          -9.827469         -267.41904
     16       2.00000          -0.964776          -26.25288
     17       2.00000          -0.952860          -25.92863
     18       2.00000          -0.949620          -25.84046
     19       2.00000          -0.863396          -23.49420
     20       2.00000          -0.860267          -23.40906
     21       2.00000          -0.849336          -23.11161
     22       2.00000          -0.734435          -19.98499
     23       2.00000          -0.720170          -19.59683
     24       2.00000          -0.682878          -18.58205
     25       2.00000          -0.673582          -18.32910
     26       2.00000          -0.623096          -16.95529
     27       2.00000          -0.617982          -16.81615
     28       2.00000          -0.579328          -15.76431
     29       2.00000          -0.556908          -15.15424
     30       2.00000          -0.537671          -14.63078
     31       2.00000          -0.504592          -13.73066
     32       2.00000          -0.485786          -13.21892
     33       2.00000          -0.464859          -12.64944
     34       2.00000          -0.450181          -12.25006
     35       2.00000          -0.439926          -11.97100
     36       2.00000          -0.435282          -11.84462
     37       2.00000          -0.434321          -11.81849
     38       2.00000          -0.419998          -11.42872
     39       2.00000          -0.401328          -10.92068
     40       2.00000          -0.398322          -10.83889
     41       2.00000          -0.394518          -10.73538
     42       2.00000          -0.387264          -10.53799
     43       2.00000          -0.379582          -10.32896
     44       2.00000          -0.376974          -10.25798
     45       2.00000          -0.366678           -9.97783
     46       2.00000          -0.364605           -9.92140
     47       2.00000          -0.354293           -9.64080
     48       2.00000          -0.351428           -9.56284
     49       2.00000          -0.346348           -9.42460
     50       2.00000          -0.332998           -9.06133
     51       2.00000          -0.331295           -9.01500
     52       2.00000          -0.322573           -8.77767
     53       2.00000          -0.243352           -6.62195
     54       2.00000          -0.232292           -6.32099
     55       2.00000          -0.224953           -6.12127
     56       2.00000          -0.210958           -5.74046
     57       2.00000          -0.205677           -5.59677
     58       2.00000          -0.198277           -5.39539
     59       0.00000          -0.054083           -1.47169
     60       0.00000          -0.042813           -1.16499
     61       0.00000          -0.039073           -1.06324
     62       0.00000          -0.032451           -0.88304
     63       0.00000          -0.026307           -0.71584
     64       0.00000          -0.014706           -0.40017
     65       0.00000          -0.005537           -0.15067
     66       0.00000           0.006273            0.17069
     67       0.00000           0.009569            0.26039
     68       0.00000           0.020987            0.57108
     69       0.00000           0.024341            0.66235
     70       0.00000           0.030933            0.84172
     71       0.00000           0.038796            1.05569
     72       0.00000           0.043344            1.17945
     73       0.00000           0.048544            1.32095
     74       0.00000           0.051282            1.39544
     75       0.00000           0.058218            1.58419
     76       0.00000           0.067094            1.82572
     77       0.00000           0.073335            1.99555
     78       0.00000           0.074778            2.03481
     79       0.00000           0.082448            2.24353
     80       0.00000           0.090327            2.45793
     81       0.00000           0.093620            2.54754
     82       0.00000           0.097408            2.65061
     83       0.00000           0.107500            2.92523
     84       0.00000           0.110971            3.01967
     85       0.00000           0.112999            3.07485
     86       0.00000           0.119931            3.26348
     87       0.00000           0.126592            3.44473
     88       0.00000           0.127769            3.47678
     89       0.00000           0.137233            3.73431
     90       0.00000           0.143906            3.91587
     91       0.00000           0.147956            4.02608
     92       0.00000           0.149092            4.05701
     93       0.00000           0.154906            4.21520
     94       0.00000           0.160407            4.36489
     95       0.00000           0.162253            4.41512
     96       0.00000           0.172432            4.69212
     97       0.00000           0.179991            4.89781
     98       0.00000           0.184152            5.01104
     99       0.00000           0.185261            5.04121
    100       0.00000           0.191886            5.22149
    101       0.00000           0.196553            5.34847
    102       0.00000           0.201568            5.48495
    103       0.00000           0.202387            5.50723
    104       0.00000           0.205936            5.60380
    105       0.00000           0.216962            5.90382
    106       0.00000           0.220155            5.99074
    107       0.00000           0.223762            6.08887
    108       0.00000           0.229806            6.25335
    109       0.00000           0.231775            6.30691
    110       0.00000           0.234632            6.38467
    111       0.00000           0.239466            6.51620
    112       0.00000           0.241736            6.57796
    113       0.00000           0.246525            6.70827
    114       0.00000           0.256478            6.97913
    115       0.00000           0.259690            7.06651
    116       0.00000           0.268107            7.29556
    117       0.00000           0.271619            7.39112
    118       0.00000           0.274582            7.47176
    119       0.00000           0.281030            7.64722
    120       0.00000           0.289519            7.87822
    121       0.00000           0.291277            7.92606
    122       0.00000           0.294892            8.02443
    123       0.00000           0.306112            8.32972
    124       0.00000           0.313016            8.51759
    125       0.00000           0.320924            8.73278
    126       0.00000           0.325156            8.84795
    127       0.00000           0.332338            9.04339
    128       0.00000           0.335485            9.12901
    129       0.00000           0.346399            9.42601

  Highest occupied state (VBM) at     -5.39539184 eV
  | Occupation number:      2.00000000

  Lowest unoccupied state (CBM) at    -1.47168648 eV
  | Occupation number:      0.00000000

  Overall HOMO-LUMO gap:      3.92370535 eV.

  Total energy components:
  | Sum of eigenvalues            :        -416.96419095 Ha      -11346.17292265 eV
  | XC energy correction          :        -100.74508344 Ha       -2741.41320191 eV
  | XC potential correction       :         129.51736406 Ha        3524.34679287 eV
  | Free-atom electrostatic energy:        -333.66517422 Ha       -9079.49134993 eV
  | Hartree energy correction     :         -20.84697729 Ha        -567.27511460 eV
  | MBD@rsSCS energy              :           0.00000000 Ha           0.00000000 eV
  | Entropy correction            :           0.00000000 Ha           0.00000000 eV
  | ---------------------------
  | Total energy                  :        -742.70406183 Ha      -20210.00579622 eV
  | Total energy, T -> 0          :        -742.70406183 Ha      -20210.00579622 eV  <-- do not rely on this value for anything but (periodic) metals
  | Electronic free energy        :        -742.70406183 Ha      -20210.00579622 eV

  Derived energy quantities:
  | Kinetic energy                :         744.01645750 Ha       20245.71789946 eV
  | Electrostatic energy          :       -1385.97543590 Ha      -37714.31049377 eV
  | Energy correction for multipole
  | error in Hartree potential    :          -0.04244692 Ha          -1.15503951 eV
  | Sum of eigenvalues per atom                           :        -354.56790383 eV
  | Total energy (T->0) per atom                          :        -631.56268113 eV  <-- do not rely on this value for anything but (periodic) metals
  | Electronic free energy per atom                       :        -631.56268113 eV

  Self-consistency convergence accuracy:
  | Change of charge density      :  0.9041E+00
  | Change of sum of eigenvalues  :  0.5672E+03 eV
  | Change of total energy        :  0.1554E+02 eV

  End self-consistency iteration #     1       :  max(cpu_time)    wall_clock(cpu1)
  | Time for this iteration                    :        1.624 s           1.625 s
[...]
   Multipole                     : -0.487336E+00 -0.220304E+00 -0.413345E-01
   Pulay + GGA                   : -0.116798E+02 -0.562785E+01 -0.756048E+00
   MBD@rsSCS                     : -0.102983E-01 -0.178841E-01 -0.120527E-01
   ----------------------------------------------------------------
   Total forces(  20)            : -0.247763E-03 -0.313801E-02 -0.182152E-01
  atom #   21
   Hellmann-Feynman              :  0.440545E-01 -0.595459E-01  0.607532E-02
   Ionic forces                  :  0.000000E+00  0.000000E+00  0.000000E+00
   Multipole                     :  0.317781E-02  0.487613E-01  0.746606E-02
   Pulay + GGA                   : -0.570340E-01  0.252801E-01 -0.667607E-02
   MBD@rsSCS                     :  0.497377E-02  0.985542E-02  0.769806E-02
   ----------------------------------------------------------------
   Total forces(  21)            : -0.482798E-02  0.243510E-01  0.145634E-01
  atom #   22
   Hellmann-Feynman              : -0.464350E-01  0.184641E-01 -0.408210E-02
   Ionic forces                  :  0.000000E+00  0.000000E+00  0.000000E+00
   Multipole                     : -0.738452E-03  0.102423E-03  0.632826E-02
   Pulay + GGA                   :  0.489983E-01 -0.233796E-01 -0.615725E-02
   MBD@rsSCS                     :  0.198947E-03 -0.122092E-01  0.223505E-02
   ----------------------------------------------------------------
   Total forces(  22)            :  0.202378E-02 -0.170223E-01 -0.167604E-02
  atom #   23
   Hellmann-Feynman              : -0.216428E+00  0.766213E+00 -0.817400E+00
   Ionic forces                  :  0.000000E+00  0.000000E+00  0.000000E+00
   Multipole                     :  0.179785E+00 -0.204490E+00  0.145893E+00
   Pulay + GGA                   :  0.383570E-01 -0.542990E+00  0.666586E+00
   MBD@rsSCS                     :  0.216220E-02 -0.144291E-01  0.135743E-01
   ----------------------------------------------------------------
   Total forces(  23)            :  0.387617E-02  0.430350E-02  0.865330E-02
  atom #   24
   Hellmann-Feynman              :  0.197699E-01 -0.570051E-01  0.272123E-01
   Ionic forces                  :  0.000000E+00  0.000000E+00  0.000000E+00
   Multipole                     : -0.345699E-01  0.216284E-03 -0.166170E-01
   Pulay + GGA                   :  0.207555E-01  0.579111E-01 -0.744380E-02
   MBD@rsSCS                     :  0.386499E-02 -0.666582E-02  0.777556E-02
   ----------------------------------------------------------------
   Total forces(  24)            :  0.982052E-02 -0.554350E-02  0.109271E-01
  atom #   25
   Hellmann-Feynman              :  0.406252E-01  0.131873E-02 -0.810168E-02
   Ionic forces                  :  0.000000E+00  0.000000E+00  0.000000E+00
   Multipole                     :  0.189044E-01 -0.225997E-02 -0.168959E-01
   Pulay + GGA                   : -0.606970E-01 -0.576508E-02  0.263228E-01
   MBD@rsSCS                     :  0.106416E-04 -0.106354E-01  0.138164E-01
   ----------------------------------------------------------------
   Total forces(  25)            : -0.115679E-02 -0.173417E-01  0.151416E-01
  atom #   26
   Hellmann-Feynman              :  0.391986E-01 -0.236470E-01  0.447580E-01
   Ionic forces                  :  0.000000E+00  0.000000E+00  0.000000E+00
   Multipole                     : -0.179148E-01  0.318025E-01  0.138493E-01
   Pulay + GGA                   : -0.262213E-01 -0.835820E-02 -0.579670E-01
   MBD@rsSCS                     :  0.373496E-02 -0.122017E-01  0.533997E-02
   ----------------------------------------------------------------
   Total forces(  26)            : -0.120259E-02 -0.124044E-01  0.598034E-02
  atom #   27
   Hellmann-Feynman              :  0.180773E+01 -0.582832E+00  0.147625E+00
   Ionic forces                  :  0.000000E+00  0.000000E+00  0.000000E+00
   Multipole                     :  0.122212E+00  0.104526E+00 -0.505195E-01
   Pulay + GGA                   : -0.193567E+01  0.489242E+00 -0.891678E-01
   MBD@rsSCS                     :  0.500661E-02 -0.136090E-01 -0.269925E-01
   ----------------------------------------------------------------
   Total forces(  27)            : -0.714547E-03 -0.267318E-02 -0.190544E-01
  atom #   28
   Hellmann-Feynman              : -0.210243E+01 -0.748369E+00  0.382593E+00
   Ionic forces                  :  0.000000E+00  0.000000E+00  0.000000E+00
   Multipole                     :  0.134928E+00  0.605438E-01 -0.112265E-01
   Pulay + GGA                   :  0.196478E+01  0.686675E+00 -0.372850E+00
   MBD@rsSCS                     :  0.152406E-01 -0.494997E-02 -0.175690E-01
   ----------------------------------------------------------------
   Total forces(  28)            :  0.125167E-01 -0.610050E-02 -0.190520E-01
  atom #   29
   Hellmann-Feynman              :  0.258777E-01 -0.528377E-02 -0.618970E-01
   Ionic forces                  :  0.000000E+00  0.000000E+00  0.000000E+00
   Multipole                     : -0.398857E-01 -0.126745E-01  0.132658E-01
   Pulay + GGA                   :  0.126831E-01  0.227398E-01  0.607914E-01
   MBD@rsSCS                     : -0.282116E-02 -0.434021E-02 -0.534896E-02
   ----------------------------------------------------------------
   Total forces(  29)            : -0.414597E-02  0.441422E-03  0.681122E-02
  atom #   30
   Hellmann-Feynman              :  0.479775E-01  0.791600E-02  0.320148E-01
   Ionic forces                  :  0.000000E+00  0.000000E+00  0.000000E+00
   Multipole                     :  0.318848E-02 -0.291177E-01  0.119696E-01
   Pulay + GGA                   : -0.442186E-01  0.183571E-01 -0.537223E-01
   MBD@rsSCS                     :  0.108299E-01 -0.154522E-02 -0.155920E-01
   ----------------------------------------------------------------
   Total forces(  30)            :  0.177774E-01 -0.438985E-02 -0.253298E-01
  atom #   31
   Hellmann-Feynman              :  0.465206E-01  0.715367E-02 -0.300272E-01
   Ionic forces                  :  0.000000E+00  0.000000E+00  0.000000E+00
   Multipole                     : -0.278642E-01 -0.269988E-01 -0.219759E-01
   Pulay + GGA                   : -0.214405E-01  0.220300E-01  0.583246E-01
   MBD@rsSCS                     :  0.555006E-02  0.163049E-03 -0.383919E-02
   ----------------------------------------------------------------
   Total forces(  31)            :  0.276591E-02  0.234786E-02  0.248232E-02
  atom #   32
   Hellmann-Feynman              :  0.294230E-01  0.321958E-01 -0.304868E-02
   Ionic forces                  :  0.000000E+00  0.000000E+00  0.000000E+00
   Multipole                     : -0.848011E-02  0.260008E-01 -0.771374E-02
   Pulay + GGA                   : -0.244909E-01 -0.567252E-01  0.783263E-02
   MBD@rsSCS                     :  0.104556E-01 -0.530325E-02 -0.141818E-01
   ----------------------------------------------------------------
   Total forces(  32)            :  0.690750E-02 -0.383174E-02 -0.171116E-01

  Removing unitary transformations (pure translations, rotations) from forces on atoms.
  Atomic forces before filtering:
  | Net force on center of mass :  -0.668321E-03 -0.345715E-03  0.118247E-03 eV/A
  | Net torque on center of mass:  -0.185239E-02  0.360332E-03  0.283739E-03 eV
  Atomic forces after filtering:
  | Net force on center of mass :   0.278760E-17 -0.181194E-16  0.000000E+00 eV/A
  | Net torque on center of mass:   0.280275E-16 -0.354032E-16 -0.542111E-16 eV

  Energy and forces in a compact form:
  | Total energy uncorrected      :         -0.202086928569196E+05 eV
  | Total energy corrected        :         -0.202086928569196E+05 eV  <-- do not rely on this value for anything but (periodic) metals
  | Electronic free energy        :         -0.202086928569196E+05 eV
  Total atomic forces (unitary forces cleaned) [eV/Ang]:
  |   1          0.282607170406499E-02         -0.948961788509515E-02         -0.508296897081536E-02
  |   2         -0.736667456099513E-02          0.121697283831041E-01          0.405604211186477E-01
  |   3         -0.909008575915041E-02         -0.132103648008725E-01          0.272723275133908E-01
  |   4         -0.764404563036354E-02          0.515020960593080E-02          0.406344102200699E-02
  |   5          0.281338924375893E-02          0.548625480877937E-02          0.717880336701919E-02
  |   6         -0.333893684639925E-02          0.741494489821990E-02          0.927386464251522E-02
  |   7          0.512240526632506E-02          0.717954799825152E-02         -0.630350963893341E-02
  |   8         -0.178939956779825E-02          0.310673380140715E-01         -0.541338428877296E-02
  |   9          0.388113888906075E-01          0.150321398491312E-01         -0.120517769956373E-01
  |  10          0.232219884516874E-02         -0.130153662728993E-01         -0.350150442548695E-02
  |  11         -0.307131678141754E-02         -0.137343973805682E-02         -0.854031830145704E-03
  |  12          0.508118436500679E-02         -0.191988167783299E-02          0.621328444103177E-02
  |  13         -0.296090136612709E-01          0.290532492350985E-01         -0.443411851022550E-01
  |  14         -0.166748461033611E-01          0.834872382428234E-02         -0.577285307798754E-02
  |  15         -0.250907024274127E-01          0.884754340019592E-02         -0.223352816301943E-01
  |  16         -0.393102450482225E-02         -0.904039200237463E-02         -0.478443007341181E-02
  |  17          0.115854354252425E-01          0.245058526047562E-01          0.331861567737723E-01
  |  18          0.125893097818330E-01         -0.372543783469498E-01          0.212559257659711E-01
  |  19         -0.172660506421841E-01         -0.280519307727538E-01         -0.278185060978341E-02
  |  20         -0.222335845088963E-03         -0.314869480917468E-02         -0.181869228790559E-01
  |  21         -0.480398315677419E-02          0.243756249200384E-01          0.145500366865726E-01
  |  22          0.205344950223087E-02         -0.170104393972139E-01         -0.166502309778672E-02
  |  23          0.391579469264270E-02          0.432803372829886E-02          0.866834804255983E-02
  |  24          0.986503158198014E-02         -0.552250084721893E-02          0.109548666096490E-01
  |  25         -0.111782161876682E-02         -0.173154216283242E-01          0.151535182476326E-01
  |  26         -0.115863442272520E-02         -0.123689986690954E-01          0.599124479593738E-02
  |  27         -0.698217584159969E-03         -0.268233150798253E-02         -0.190442578980886E-01
  |  28          0.125302898510223E-01         -0.610258522184320E-02         -0.190545685808890E-01
  |  29         -0.413218874810384E-02          0.421948686592615E-03          0.682814959006249E-02
  |  30          0.177983167254412E-01         -0.438070442910296E-02         -0.253315830035754E-01
  |  31          0.277551230162250E-02          0.233851013346549E-02          0.248048811736995E-02
  |  32          0.691549968384692E-02         -0.383260208342597E-02         -0.171257446313195E-01

  ------------------------------------ 
  Start decomposition of the XC Energy 
  ------------------------------------ 
  Hartree-Fock part   :          0.000000000 Ha              0.000000000 eV
  ------------------------------------ 
  X Energy            :        -96.981140500 Ha          -2638.991103400 eV
  C Energy GGA        :         -3.867957783 Ha           -105.252486475 eV
  Total XC Energy     :       -100.849098284 Ha          -2744.243589874 eV
  LDA X and C from self-consistent density 
  X Energy LDA        :        -87.996815414 Ha          -2394.515179012 eV
  C Energy LDA        :         -7.531829067 Ha           -204.951496742 eV
  ------------------------------------ 
  End decomposition of the XC Energy 
  ------------------------------------ 
   
  ESP charge fitting starts.
  | Calculation :  00000001  of  00000001
  | Full density
  Computing multipole expansion for total density.
  Generating points for esp charges.
  Partitioning the integration grid into batches with parallel hashing+maxmin method.
  | Number of batches:     3869
  | Maximal batch size:     200
  | Minimal batch size:      53
  | Average batch size:     125.969
  | Standard deviation of batch sizes:      17.113

  Integration load balanced across    32 MPI tasks.
  Work distribution over tasks is as follows:
  Initializing partition tables, free-atom densities, potentials, etc. across the integration grid (initialize_grid_storage).
  | Original list of interatomic distances with          32 x         32 entries is created.
  | Net number of integration points:   487375
  | of which are non-zero points    :   487375
  Summing up potential from multipole expanded  density.
  Summing up the Hartree potential.
  Time summed over all CPUs for potential: real work        6.401 s, elapsed        6.586 s
  Fitting esp charges to potential.
  |
  | ESP charges fitted to the electrostatic potential :
  |
  | Atom         1: C, ESP charge:      0.66582313
  |
  | Atom         2: C, ESP charge:     -0.87388644
  |
  | Atom         3: O, ESP charge:      0.62255895
  |
  | Atom         4: H, ESP charge:     -0.18738570
  |
  | Atom         5: H, ESP charge:     -0.18837311
  |
  | Atom         6: H, ESP charge:     -0.15881596
  |
  | Atom         7: N, ESP charge:      0.80886755
  |
  | Atom         8: C, ESP charge:     -0.37244737
  |
  | Atom         9: C, ESP charge:     -0.22220852
  |
  | Atom        10: O, ESP charge:      0.50573312
  |
  | Atom        11: H, ESP charge:     -0.38190045
  |
  | Atom        12: H, ESP charge:     -0.05435782
  |
  | Atom        13: C, ESP charge:      0.31806990
  |
  | Atom        14: H, ESP charge:     -0.04377394
  |
  | Atom        15: H, ESP charge:     -0.13867133
  |
  | Atom        16: H, ESP charge:     -0.09492129
  |
  | Atom        17: N, ESP charge:      0.19146499
  |
  | Atom        18: C, ESP charge:     -0.57401436
  |
  | Atom        19: C, ESP charge:     -0.12643505
  |
  | Atom        20: O, ESP charge:      0.48961376
  |
  | Atom        21: H, ESP charge:     -0.19492096
  |
  | Atom        22: H, ESP charge:     -0.01112310
  |
  | Atom        23: C, ESP charge:      0.53979065
  |
  | Atom        24: H, ESP charge:     -0.16849269
  |
  | Atom        25: H, ESP charge:     -0.12198931
  |
  | Atom        26: H, ESP charge:     -0.11989188
  |
  | Atom        27: N, ESP charge:      0.20213911
  |
  | Atom        28: C, ESP charge:      0.33267287
  |
  | Atom        29: H, ESP charge:     -0.28045216
  |
  | Atom        30: H, ESP charge:     -0.10697060
  |
  | Atom        31: H, ESP charge:     -0.14528336
  |
  | Atom        32: H, ESP charge:     -0.11041864

  RRMS:       0.00634925

  Done.

------------------------------------------------------------------------------
  Final output of selected total energy values:

  The following output summarizes some interesting total energy values
  at the end of a run (AFTER all relaxation, molecular dynamics, etc.).

  | Total energy of the DFT / Hartree-Fock s.c.f. calculation      :         -20208.692856920 eV
  | Final zero-broadening corrected energy (caution - metals only) :         -20208.692856920 eV
  | For reference only, the value of 1 Hartree used in FHI-aims is :             27.211384500 eV

  Before relying on these values, please be sure to understand exactly which
  total energy value is referred to by a given number. Different objects may
  all carry the same name 'total energy'. Definitions:

  Total energy of the DFT / Hartree-Fock s.c.f. calculation:
  | Note that this energy does not include ANY quantities calculated after the
  | s.c.f. cycle, in particular not ANY RPA, MP2, etc. many-body perturbation terms.

  Final zero-broadening corrected energy:
  | For metallic systems only, a broadening of the occupation numbers at the Fermi
  | level can be extrapolated back to zero broadening by an electron-gas inspired
  | formula. For all systems that are not real metals, this value can be
  | meaningless and should be avoided.

------------------------------------------------------------------------------
  Methods described in the following list of references were used in this FHI-aims run.
  If you publish the results, please make sure to cite these reference if they apply.
  FHI-aims is an academic code, and for our developers (often, Ph.D. students
  and postdocs), scientific credit in the community is essential.
  Thank you for helping us!

  For any use of FHI-aims, please cite:

    Volker Blum, Ralf Gehrke, Felix Hanke, Paula Havu, Ville Havu,
    Xinguo Ren, Karsten Reuter, and Matthias Scheffler
    'Ab initio molecular simulations with numeric atom-centered orbitals'
    Computer Physics Communications 180, 2175-2196 (2009)
    http://dx.doi.org/10.1016/j.cpc.2009.06.022


  The scalable eigensolver library ELPA was used in your run.
  ELPA is essential especially for large systems on hundreds or thousands of CPUs.
  For ELPA, please cite:

    Andreas Marek, Volker Blum, Rainer Johanni, Ville Havu, Bruno Lang,
    Thomas Auckenthaler, Alexander Heinecke, Hans-Joachim Bungartz, and Hermann Lederer,
    'The ELPA Library - Scalable Parallel Eigenvalue Solutions
    for Electronic Structure Theory and Computational Science'
    The Journal of Physics: Condensed Matter 26, 213201 (2014).
    http://dx.doi.org/10.1088/0953-8984/26/21/213201


  For ELPA's efficient two-stage tridiagonalization used in your run, please cite:

    T. Auckenthaler, V. Blum, H.-J. Bungartz, T. Huckle, R. Johanni, L. Kraemer,
    B. Lang, H. Lederer, and P. R. Willems,
    'Parallel solution of partial symmetric eigenvalue problems'
    'from  electronic structure calculations'
    Parallel Computing 37, 783-794 (2011).
    http://dx.doi.org/10.1016/j.parco.2011.05.002


  For the real-space grid partitioning and parallelization used in this calculation, please cite:

    Ville Havu, Volker Blum, Paula Havu, and Matthias Scheffler,
    'Efficient O(N) integration for all-electron electronic structure calculation'
    'using numerically tabulated basis functions'
    Journal of Computational Physics 228, 8367-8379 (2009).
    http://dx.doi.org/10.1016/j.jcp.2009.08.008

  Of course, there are many other important community references, e.g., those cited in the
  above references. Our list is limited to references that describe implementations in the
  FHI-aims code. The reason is purely practical (length of this list) - please credit others as well.

------------------------------------------------------------
          Leaving FHI-aims.
          Date     :  20170309, Time     :  185015.096

          Computational steps:
          | Number of self-consistency cycles          :           14

          Detailed time accounting                     :  max(cpu_time)    wall_clock(cpu1)
          | Total time                                 :       34.594 s          34.761 s
          | Preparation time                           :        0.232 s           0.236 s
          | Grid partitioning                          :        0.332 s           0.331 s
          | Preloading free-atom quantities on grid    :        0.028 s           0.027 s
          | Free-atom superposition energy             :        0.044 s           0.041 s
          | Total time for integrations                :       11.949 s          11.933 s
          | Total time for solution of K.-S. equations :        0.532 s           0.499 s
          | Total time for density & force components  :       10.097 s          10.074 s
          | Total time for mixing                      :        0.124 s           0.107 s
          | Total time for Hartree multipole update    :        0.064 s           0.056 s
          | Total time for Hartree multipole sum       :        6.364 s           6.333 s
          | Total time for total energy evaluation     :        0.028 s           0.014 s

          Have a nice day.
------------------------------------------------------------
