  MPI-parallelism will be employed.
------------------------------------------------------------
          Invoking FHI-aims ...
          Version 150427
          Git rev.: 9dd23e0 BL: Update Version stamp
          Compiled on 2015/11/03 at 22:05:20 on host eos03.

          When using FHI-aims, please cite the following reference:

          Volker Blum, Ralf Gehrke, Felix Hanke, Paula Havu,
          Ville Havu, Xinguo Ren, Karsten Reuter, and Matthias Scheffler,
          'Ab Initio Molecular Simulations with Numeric Atom-Centered Orbitals: FHI-aims',
          Computer Physics Communications 180, 2175-2196 (2009)

          For any questions about FHI-aims, please visit the aimsclub website
          with its forums and wiki. Contributions to both the forums and the
          wiki are warmly encouraged - they are for you, and everyone is welcome there.

------------------------------------------------------------

  Date     :  20170309, Time     :  185855.474
  Time zero on CPU 1             :   0.288017000000000E+00  s.
  Internal wall clock time zero  :           258317935.474  s.

  Using       32 parallel tasks.
  Task        0 on host eos221 reporting.
  Task        1 on host eos221 reporting.
  Task        2 on host eos221 reporting.
  Task        3 on host eos221 reporting.
  Task        4 on host eos221 reporting.
  Task        5 on host eos221 reporting.
  Task        6 on host eos221 reporting.
  Task        7 on host eos221 reporting.
  Task        8 on host eos221 reporting.
  Task        9 on host eos221 reporting.
  Task       10 on host eos221 reporting.
  Task       11 on host eos221 reporting.
  Task       12 on host eos221 reporting.
  Task       13 on host eos221 reporting.
  Task       14 on host eos221 reporting.
  Task       15 on host eos221 reporting.
  Task       16 on host eos221 reporting.
  Task       17 on host eos221 reporting.
  Task       18 on host eos221 reporting.
  Task       19 on host eos221 reporting.
  Task       20 on host eos221 reporting.
  Task       21 on host eos221 reporting.
  Task       22 on host eos221 reporting.
  Task       23 on host eos221 reporting.
  Task       24 on host eos221 reporting.
  Task       25 on host eos221 reporting.
  Task       26 on host eos221 reporting.
  Task       27 on host eos221 reporting.
  Task       28 on host eos221 reporting.
  Task       29 on host eos221 reporting.
  Task       30 on host eos221 reporting.
  Task       31 on host eos221 reporting.

  Performing system and environment tests:
  | Environment variable OMP_NUM_THREADS correctly set to 1.
  | Stacksize not measured: no C compiler
  | Checking for scalapack...
  | Testing pdtran()...
  | All pdtran() tests passed.

  Obtaining array dimensions for all initial allocations:
  
  -----------------------------------------------------------------------
  Parsing control.in (first pass over file, find array dimensions only).
  The contents of control.in will be repeated verbatim below
  unless switched off by setting 'verbatim_writeout .false.' .
  in the first line of control.in .
  -----------------------------------------------------------------------
  
  #########################################################################################
  #
  # Input for System
  #
  #########################################################################################
  #
  #
  #  Physical model
  #
    xc                 pbe
    many_body_dispersion
    spin               none
    charge             0.
  #
  #  SCF convergence
  #
    occupation_type    gaussian 0.05
    mixer              pulay
      n_max_pulay        10
      charge_mix_param   0.5
    sc_accuracy_rho    1E-4
    sc_accuracy_eev    1E-2
    sc_accuracy_etot   1E-5
    sc_accuracy_forces 1E-4
    sc_iter_limit      1000
  #
  #  ESP charge
  #
    output esp
    esp equal_grid_n 80 80 80
  #
  #
  ################################################################################
  #
  #  FHI-aims code project
  # Volker Blum, Fritz Haber Institute Berlin, 2009
  #
  #  Suggested "tight" defaults for H atom (to be pasted into control.in file)
  #
  ################################################################################
    species        H
  #     global species definitions
      nucleus             1
      mass                1.00794
  #
      l_hartree           6
  #
      cut_pot             4.0  2.0  1.0
      basis_dep_cutoff    1e-4
  #
      radial_base         24 7.0
      radial_multiplier   2
      angular_grids       specified
        division   0.1930   50
        division   0.3175  110
        division   0.4293  194
        division   0.5066  302
        division   0.5626  434
  #      division   0.5922  590
  #      division   0.6227  974
  #      division   0.6868 1202
  #      outer_grid  770
        outer_grid  434
  ################################################################################
  #
  #  Definition of "minimal" basis
  #
  ################################################################################
  #     valence basis states
      valence      1  s   1.
  #     ion occupancy
      ion_occ      1  s   0.5
  ################################################################################
  #
  #  Suggested additional basis functions. For production calculations,
  #  uncomment them one after another (the most important basis functions are
  #  listed first).
  #
  #  Basis constructed for dimers: 0.5 A, 0.7 A, 1.0 A, 1.5 A, 2.5 A
  #
  ################################################################################
  #  "First tier" - improvements: -1014.90 meV to -62.69 meV
       hydro 2 s 2.1
       hydro 2 p 3.5
  #  "Second tier" - improvements: -12.89 meV to -1.83 meV
       hydro 1 s 0.85
       hydro 2 p 3.7
       hydro 2 s 1.2
       hydro 3 d 7
  #  "Third tier" - improvements: -0.25 meV to -0.12 meV
  #     hydro 4 f 11.2
  #     hydro 3 p 4.8
  #     hydro 4 d 9
  #     hydro 3 s 3.2
  ################################################################################
  #
  # For methods that use the localized form of the "resolution of identity" for
  # the two-electron Coulomb operator (RI_method LVL), particularly Hartree-Fock and
  # hybrid density functional calculations, the highest accuracy can be obtained by
  # uncommenting the line beginning with "for_aux"  below, thus adding an extra g radial
  # function to the construction of the product basis set for the expansion.
  # See Ref. New J. Phys. 17, 093020 (2015) for more information, particularly Figs. 1 and 6.
  #
  ################################################################################
  #
  # for_aux hydro 5 g 6.0
  ################################################################################
  #
  #  FHI-aims code project
  # Volker Blum, Fritz Haber Institute Berlin, 2009
  #
  #  Suggested "tight" defaults for C atom (to be pasted into control.in file)
  #
  ################################################################################
    species        C
  #     global species definitions
      nucleus             6
      mass                12.0107
  #
      l_hartree           6
  #
      cut_pot             4.0  2.0  1.0
      basis_dep_cutoff    1e-4
  #
      radial_base         34 7.0
      radial_multiplier   2
      angular_grids specified
        division   0.2187   50
        division   0.4416  110
        division   0.6335  194
        division   0.7727  302
        division   0.8772  434
  #      division   0.9334  590
  #      division   0.9924  770
  #      division   1.0230  974
  #      division   1.5020 1202
  #     outer_grid  974
        outer_grid  434
  ################################################################################
  #
  #  Definition of "minimal" basis
  #
  ################################################################################
  #     valence basis states
      valence      2  s   2.
      valence      2  p   2.
  #     ion occupancy
      ion_occ      2  s   1.
      ion_occ      2  p   1.
  ################################################################################
  #
  #  Suggested additional basis functions. For production calculations,
  #  uncomment them one after another (the most important basis functions are
  #  listed first).
  #
  #  Constructed for dimers: 1.0 A, 1.25 A, 1.5 A, 2.0 A, 3.0 A
  #
  ################################################################################
  #  "First tier" - improvements: -1214.57 meV to -155.61 meV
       hydro 2 p 1.7
       hydro 3 d 6
       hydro 2 s 4.9
  #  "Second tier" - improvements: -67.75 meV to -5.23 meV
       hydro 4 f 9.8
       hydro 3 p 5.2
       hydro 3 s 4.3
       hydro 5 g 14.4
       hydro 3 d 6.2
  #  "Third tier" - improvements: -2.43 meV to -0.60 meV
  #     hydro 2 p 5.6
  #     hydro 2 s 1.4
  #     hydro 3 d 4.9
  #     hydro 4 f 11.2
  #  "Fourth tier" - improvements: -0.39 meV to -0.18 meV
  #     hydro 2 p 2.1
  #     hydro 5 g 16.4
  #     hydro 4 d 13.2
  #     hydro 3 s 13.6
  #     hydro 4 f 17.6
  #  Further basis functions - improvements: -0.08 meV and below
  #     hydro 3 s 2
  #     hydro 3 p 6
  #     hydro 4 d 20
  ################################################################################
  #
  # For methods that use the localized form of the "resolution of identity" for
  # the two-electron Coulomb operator (RI_method LVL), particularly Hartree-Fock and
  # hybrid density functional calculations, the highest accuracy can be obtained by
  # uncommenting the line beginning with "for_aux"  below, thus adding an extra g radial
  # function to the construction of the product basis set for the expansion.
  # See Ref. New J. Phys. 17, 093020 (2015) for more information, particularly Figs. 1 and 6.
  #
  ################################################################################
  #
  # for_aux hydro 5 g 6.0
  ################################################################################
  #
  #  FHI-aims code project
  # Volker Blum, Fritz Haber Institute Berlin, 2009
  #
  #  Suggested "tight" defaults for N atom (to be pasted into control.in file)
  #
  ################################################################################
    species        N
  #     global species definitions
      nucleus             7
      mass                14.0067
  #
      l_hartree           6
  #
      cut_pot             4.0  2.0  1.0
      basis_dep_cutoff    1e-4
  #
      radial_base         35 7.0
      radial_multiplier   2
      angular_grids       specified
        division   0.1841   50
        division   0.3514  110
        division   0.5126  194
        division   0.6292  302
        division   0.6939  434
  #      division   0.7396  590
  #      division   0.7632  770
  #      division   0.8122  974
  #      division   1.1604 1202
  #      outer_grid  974
        outer_grid  434
  ################################################################################
  #
  #  Definition of "minimal" basis
  #
  ################################################################################
  #     valence basis states
      valence      2  s   2.
      valence      2  p   3.
  #     ion occupancy
      ion_occ      2  s   1.
      ion_occ      2  p   2.
  ################################################################################
  #
  #  Suggested additional basis functions. For production calculations,
  #  uncomment them one after another (the most important basis functions are
  #  listed first).
  #
  #  Constructed for dimers: 1.0 A, 1.1 A, 1.5 A, 2.0 A, 3.0 A
  #
  ################################################################################
  #  "First tier" - improvements: -1193.42 meV to -220.60 meV
       hydro 2 p 1.8
       hydro 3 d 6.8
       hydro 3 s 5.8
  #  "Second tier" - improvements: -80.21 meV to -6.86 meV
       hydro 4 f 10.8
       hydro 3 p 5.8
       hydro 1 s 0.8
       hydro 5 g 16
       hydro 3 d 4.9
  #  "Third tier" - improvements: -4.29 meV to -0.53 meV
  #     hydro 3 s 16
  #     ionic 2 p auto
  #     hydro 3 d 6.6
  #     hydro 4 f 11.6
  #  "Fourth tier" - improvements: -0.75 meV to -0.25 meV
  #     hydro 2 p 4.5
  #     hydro 2 s 2.4
  #     hydro 5 g 14.4
  #     hydro 4 d 14.4
  #     hydro 4 f 16.8
  # Further basis functions - -0.21 meV and below
  #     hydro 3 p 14.8
  #     hydro 3 s 4.4
  #     hydro 3 d 19.6
  #     hydro 5 g 12.8
  ################################################################################
  #
  # For methods that use the localized form of the "resolution of identity" for
  # the two-electron Coulomb operator (RI_method LVL), particularly Hartree-Fock and
  # hybrid density functional calculations, the highest accuracy can be obtained by
  # uncommenting the line beginning with "for_aux"  below, thus adding an extra g radial
  # function to the construction of the product basis set for the expansion.
  # See Ref. New J. Phys. 17, 093020 (2015) for more information, particularly Figs. 1 and 6.
  #
  ################################################################################
  #
  # for_aux hydro 5 g 6.0
  ################################################################################
  #
  #  FHI-aims code project
  # Volker Blum, Fritz Haber Institute Berlin, 2009
  #
  #  Suggested "tight" defaults for O atom (to be pasted into control.in file)
  #
  ################################################################################
    species        O
  #     global species definitions
      nucleus             8
      mass                15.9994
  #
      l_hartree           6
  #
      cut_pot             4.0  2.0  1.0
      basis_dep_cutoff    1e-4
  #
      radial_base         36 7.0
      radial_multiplier   2
       angular_grids specified
        division   0.1817   50
        division   0.3417  110
        division   0.4949  194
        division   0.6251  302
        division   0.8014  434
  #      division   0.8507  590
  #      division   0.8762  770
  #      division   0.9023  974
  #      division   1.2339 1202
  #      outer_grid 974
        outer_grid  434
  ################################################################################
  #
  #  Definition of "minimal" basis
  #
  ################################################################################
  #     valence basis states
      valence      2  s   2.
      valence      2  p   4.
  #     ion occupancy
      ion_occ      2  s   1.
      ion_occ      2  p   3.
  ################################################################################
  #
  #  Suggested additional basis functions. For production calculations,
  #  uncomment them one after another (the most important basis functions are
  #  listed first).
  #
  #  Constructed for dimers: 1.0 A, 1.208 A, 1.5 A, 2.0 A, 3.0 A
  #
  ################################################################################
  #  "First tier" - improvements: -699.05 meV to -159.38 meV
       hydro 2 p 1.8
       hydro 3 d 7.6
       hydro 3 s 6.4
  #  "Second tier" - improvements: -49.91 meV to -5.39 meV
       hydro 4 f 11.6
       hydro 3 p 6.2
       hydro 3 d 5.6
       hydro 5 g 17.6
       hydro 1 s 0.75
  #  "Third tier" - improvements: -2.83 meV to -0.50 meV
  #     ionic 2 p auto
  #     hydro 4 f 10.8
  #     hydro 4 d 4.7
  #     hydro 2 s 6.8
  #  "Fourth tier" - improvements: -0.40 meV to -0.12 meV
  #     hydro 3 p 5
  #     hydro 3 s 3.3
  #     hydro 5 g 15.6
  #     hydro 4 f 17.6
  #     hydro 4 d 14
  # Further basis functions - -0.08 meV and below
  #     hydro 3 s 2.1
  #     hydro 4 d 11.6
  #     hydro 3 p 16
  #     hydro 2 s 17.2
  ################################################################################
  #
  # For methods that use the localized form of the "resolution of identity" for
  # the two-electron Coulomb operator (RI_method LVL), particularly Hartree-Fock and
  # hybrid density functional calculations, the highest accuracy can be obtained by
  # uncommenting the line beginning with "for_aux"  below, thus adding an extra g radial
  # function to the construction of the product basis set for the expansion.
  # See Ref. New J. Phys. 17, 093020 (2015) for more information, particularly Figs. 1 and 6.
  #
  ################################################################################
  #
  # for_aux hydro 5 g 6.0
  
  -----------------------------------------------------------------------
  Completed first pass over input file control.in .
  -----------------------------------------------------------------------
  
  
  -----------------------------------------------------------------------
  Parsing geometry.in (first pass over file, find array dimensions only).
  The contents of geometry.in will be repeated verbatim below
  unless switched off by setting 'verbatim_writeout .false.' .
  in the first line of geometry.in .
  -----------------------------------------------------------------------
  
  #
  # This is the geometry file that corresponds to the current relaxation step.
  # If you do not want this file to be written, set the "write_restart_geometry" flag to .false.
  #
  atom      -0.68361410     -0.47980182     -0.04972254 C
  atom      -0.44867380     -0.21769441      1.42531780 C
  atom       0.60413452     -0.52913491      1.97437869 O
  atom       0.29192280     -0.54296854     -0.54002263 H
  atom      -1.29641116      0.27773492     -0.55261992 H
  atom      -1.19173623     -1.44790212     -0.15966814 H
  atom      -1.46182852      0.35760980      2.15964092 N
  atom      -2.78434739      0.81027453      1.74862910 C
  atom      -3.55796643     -0.31139663      0.99858337 C
  atom      -3.57696748     -1.45851128      1.42647212 O
  atom      -1.24470807      0.39475679      3.15022163 H
  atom      -3.35466917      0.90762866      2.68607013 H
  atom      -2.75266200      2.19832086      1.08861857 C
  atom      -2.22716059      2.18908742      0.12360756 H
  atom      -2.21430668      2.89668853      1.74086462 H
  atom      -3.76420911      2.60416042      0.94143332 H
  atom      -4.25259316      0.08020324     -0.10829307 N
  atom      -4.98855941     -0.84602785     -0.97403352 C
  atom      -5.88824589     -1.84222523     -0.19507051 C
  atom      -5.87654981     -3.03769401     -0.46109764 O
  atom      -4.12376737      1.02555781     -0.44688592 H
  atom      -5.67578170     -0.21315005     -1.56147835 H
  atom      -4.06327778     -1.59648837     -1.93137878 C
  atom      -3.40283850     -2.26903055     -1.37310334 H
  atom      -3.45547290     -0.88165424     -2.50171110 H
  atom      -4.64714165     -2.20665292     -2.62903946 H
  atom      -6.77381124     -1.33159189      0.71650085 N
  atom      -6.96691010      0.03171137      1.17027577 C
  atom      -7.28508508     -2.06319756      1.20013114 H
  atom      -7.97686242      0.12047351      1.58871102 H
  atom      -6.89613139      0.74233518      0.33743271 H
  atom      -6.24525816      0.33391230      1.94647759 H
  
  -----------------------------------------------------------------------
  Completed first pass over input file geometry.in .
  -----------------------------------------------------------------------
  

  Basic array size parameters:
  | Number of species                 :        4
  | Number of atoms                   :       32
  | Max. basis fn. angular momentum   :        4
  | Max. atomic/ionic basis occupied n:        2
  | Max. number of basis fn. types    :        2
  | Max. radial fns per species/type  :        8
  | Max. logarithmic grid size        :     1301
  | Max. radial integration grid size :       73
  | Max. angular integration grid size:      434
  | Max. angular grid division number :        8
  | Radial grid for Hartree potential :     1301
  | Number of spin channels           :        1

------------------------------------------------------------
          Reading file control.in.
------------------------------------------------------------
  XC: Using PBE gradient-corrected functionals.
  Self-consistent screening and van der Waals energy (TS, TS+SCS,MBD) module
  Spin treatment: No spin polarisation.
  Charge =   0.000000E+00: Neutral system requested explicitly.
  Occupation type: Gaussian broadening, width =   0.500000E-01 eV.
  Using pulay charge density mixing.
  Pulay mixing - number of memorized iterations:   10
  Charge density mixing - mixing parameter:     0.5000
  Convergence accuracy of self-consistent charge density:  0.1000E-03
  Convergence accuracy of sum of eigenvalues:  0.1000E-01
  Convergence accuracy of total energy:  0.1000E-04
  Convergence accuracy of forces:  0.1000E-03
  Maximum number of s.-c. iterations  :  1000
  Fitting ESP-charges to Potential. 
  | Esp charge output options: 
  | ESP Grid method: 3, cubic grid
  | Number of points in x, ,y, z:  0080 0080 0080
  |
 
  Reading configuration options for species H                   .
  | Found nuclear charge :   1.0000
  | Found atomic mass :    1.00794000000000      amu
  | Found l_max for Hartree potential  :   6
  | Found cutoff potl. onset [A], width [A], scale factor :    4.00000    2.00000    1.00000
  | Threshold for basis-dependent cutoff potential is   0.100000E-03
  | Found data for basic radial integration grid :    24 points, outermost radius =    7.000 A
  | Found multiplier for basic radial grid :   2
  | Found angular grid specification: user-specified.
  | Specified grid contains     6 separate shells.
  | Check grid settings after all constraints further below.
  | Found free-atom valence shell :  1 s   1.000
  | No ionic wave fns used. Skipping ion_occ.
  | Found hydrogenic basis function :  2 s   2.100
  | Found hydrogenic basis function :  2 p   3.500
  | Found hydrogenic basis function :  1 s   0.850
  | Found hydrogenic basis function :  2 p   3.700
  | Found hydrogenic basis function :  2 s   1.200
  | Found hydrogenic basis function :  3 d   7.000
  Species H                   : Missing cutoff potential type.
  Defaulting to exp(1/x)/(1-x)^2 type cutoff potential.
  Species H : No 'logarithmic' tag. Using default grid for free atom:
  | Default logarithmic grid data [bohr] : 0.1000E-03 0.1000E+03 0.1012E+01
  Species H : On-site basis accuracy parameter (for Gram-Schmidt orthonormalisation) not specified.
  Using default value basis_acc =  0.1000000E-03.
  Species H                   : Using default innermost maximum threshold i_radial=  2 for radial functions.
  Species H                   : Default cutoff onset for free atom density etc. : 0.40000000E+01 AA.
  Species H                   : Basic radial grid will be enhanced according to radial_multiplier =   2, to contain    49 grid points.
 
  Reading configuration options for species C                   .
  | Found nuclear charge :   6.0000
  | Found atomic mass :    12.0107000000000      amu
  | Found l_max for Hartree potential  :   6
  | Found cutoff potl. onset [A], width [A], scale factor :    4.00000    2.00000    1.00000
  | Threshold for basis-dependent cutoff potential is   0.100000E-03
  | Found data for basic radial integration grid :    34 points, outermost radius =    7.000 A
  | Found multiplier for basic radial grid :   2
  | Found angular grid specification: user-specified.
  | Specified grid contains     6 separate shells.
  | Check grid settings after all constraints further below.
  | Found free-atom valence shell :  2 s   2.000
  | Found free-atom valence shell :  2 p   2.000
  | No ionic wave fns used. Skipping ion_occ.
  | No ionic wave fns used. Skipping ion_occ.
  | Found hydrogenic basis function :  2 p   1.700
  | Found hydrogenic basis function :  3 d   6.000
  | Found hydrogenic basis function :  2 s   4.900
  | Found hydrogenic basis function :  4 f   9.800
  | Found hydrogenic basis function :  3 p   5.200
  | Found hydrogenic basis function :  3 s   4.300
  | Found hydrogenic basis function :  5 g  14.400
  | Found hydrogenic basis function :  3 d   6.200
  Species C                   : Missing cutoff potential type.
  Defaulting to exp(1/x)/(1-x)^2 type cutoff potential.
  Species C : No 'logarithmic' tag. Using default grid for free atom:
  | Default logarithmic grid data [bohr] : 0.1000E-03 0.1000E+03 0.1012E+01
  Species C : On-site basis accuracy parameter (for Gram-Schmidt orthonormalisation) not specified.
  Using default value basis_acc =  0.1000000E-03.
  Species C                   : Using default innermost maximum threshold i_radial=  2 for radial functions.
  Species C                   : Default cutoff onset for free atom density etc. : 0.40000000E+01 AA.
  Species C                   : Basic radial grid will be enhanced according to radial_multiplier =   2, to contain    69 grid points.
 
  Reading configuration options for species N                   .
  | Found nuclear charge :   7.0000
  | Found atomic mass :    14.0067000000000      amu
  | Found l_max for Hartree potential  :   6
  | Found cutoff potl. onset [A], width [A], scale factor :    4.00000    2.00000    1.00000
  | Threshold for basis-dependent cutoff potential is   0.100000E-03
  | Found data for basic radial integration grid :    35 points, outermost radius =    7.000 A
  | Found multiplier for basic radial grid :   2
  | Found angular grid specification: user-specified.
  | Specified grid contains     6 separate shells.
  | Check grid settings after all constraints further below.
  | Found free-atom valence shell :  2 s   2.000
  | Found free-atom valence shell :  2 p   3.000
  | No ionic wave fns used. Skipping ion_occ.
  | No ionic wave fns used. Skipping ion_occ.
  | Found hydrogenic basis function :  2 p   1.800
  | Found hydrogenic basis function :  3 d   6.800
  | Found hydrogenic basis function :  3 s   5.800
  | Found hydrogenic basis function :  4 f  10.800
  | Found hydrogenic basis function :  3 p   5.800
  | Found hydrogenic basis function :  1 s   0.800
  | Found hydrogenic basis function :  5 g  16.000
  | Found hydrogenic basis function :  3 d   4.900
  Species N                   : Missing cutoff potential type.
  Defaulting to exp(1/x)/(1-x)^2 type cutoff potential.
  Species N : No 'logarithmic' tag. Using default grid for free atom:
  | Default logarithmic grid data [bohr] : 0.1000E-03 0.1000E+03 0.1012E+01
  Species N : On-site basis accuracy parameter (for Gram-Schmidt orthonormalisation) not specified.
  Using default value basis_acc =  0.1000000E-03.
  Species N                   : Using default innermost maximum threshold i_radial=  2 for radial functions.
  Species N                   : Default cutoff onset for free atom density etc. : 0.40000000E+01 AA.
  Species N                   : Basic radial grid will be enhanced according to radial_multiplier =   2, to contain    71 grid points.
 
  Reading configuration options for species O                   .
  | Found nuclear charge :   8.0000
  | Found atomic mass :    15.9994000000000      amu
  | Found l_max for Hartree potential  :   6
  | Found cutoff potl. onset [A], width [A], scale factor :    4.00000    2.00000    1.00000
  | Threshold for basis-dependent cutoff potential is   0.100000E-03
  | Found data for basic radial integration grid :    36 points, outermost radius =    7.000 A
  | Found multiplier for basic radial grid :   2
  | Found angular grid specification: user-specified.
  | Specified grid contains     6 separate shells.
  | Check grid settings after all constraints further below.
  | Found free-atom valence shell :  2 s   2.000
  | Found free-atom valence shell :  2 p   4.000
  | No ionic wave fns used. Skipping ion_occ.
  | No ionic wave fns used. Skipping ion_occ.
  | Found hydrogenic basis function :  2 p   1.800
  | Found hydrogenic basis function :  3 d   7.600
  | Found hydrogenic basis function :  3 s   6.400
  | Found hydrogenic basis function :  4 f  11.600
  | Found hydrogenic basis function :  3 p   6.200
  | Found hydrogenic basis function :  3 d   5.600
  | Found hydrogenic basis function :  5 g  17.600
  | Found hydrogenic basis function :  1 s   0.750
  Species O                   : Missing cutoff potential type.
  Defaulting to exp(1/x)/(1-x)^2 type cutoff potential.
  Species O : No 'logarithmic' tag. Using default grid for free atom:
  | Default logarithmic grid data [bohr] : 0.1000E-03 0.1000E+03 0.1012E+01
  Species O : On-site basis accuracy parameter (for Gram-Schmidt orthonormalisation) not specified.
  Using default value basis_acc =  0.1000000E-03.
  Species O                   : Using default innermost maximum threshold i_radial=  2 for radial functions.
  Species O                   : Default cutoff onset for free atom density etc. : 0.40000000E+01 AA.
  Species O                   : Basic radial grid will be enhanced according to radial_multiplier =   2, to contain    73 grid points.
 
  Finished reading input file 'control.in'. Consistency checks are next.
 
  Target number of points in a grid batch is not set. Defaulting to  100
  Method for grid partitioning is not set. Defaulting to parallel hash+maxmin partitioning.
  Batch size limit is not set. Defaulting to    200
  By default, will store active basis functions for each batch.
  If in need of memory, prune_basis_once .false. can be used to disable this option.
  communication_type for Hartree potential was not specified.
  Defaulting to calc_hartree .
  Pulay mixer: Number of initial linear mixing iterations not set.
  Defaulting to    0 iterations.
  Work space size for distributed Hartree potential not set.
  Defaulting to   0.200000E+03 MB.
  Algorithm-dependent basis array size parameters:
  | n_max_pulay                         :       10
  Geometry relaxation not requested: no relaxation will be performed.
  Handling of forces: Unphysical translation and rotation will be removed from forces.
  No accuracy limit for integral partition fn. given. Defaulting to  0.1000E-14.
  No threshold value for u(r) in integrations given. Defaulting to  0.1000E-05.
  No accuracy for occupation numbers given. Defaulting to  0.1000E-07.
  No threshold value for occupation numbers given. Defaulting to  0.0000E+00.
  No accuracy for fermi level given. Defaulting to  0.1000E-19.
  Maximum # of iterations to find E_F not set. Defaulting to  200.
  Preferred method for the eigenvalue solver ('KS_method') not specified in 'control.in'.
  Calling blacs routine to test compilation state
  Since scalapack support is enabled, defaulting to 'elpa'.
  Preferred method for the MBD eigenvalue solver ('mbd_eigensolver') not specified in 'control.in'.
  Calling blacs routine to test compilation state
  Since scalapack support is enabled, defaulting to 'scaLAPACK'.
  Will not use alltoall communication since running on < 1024 CPUs.
  Threshold for basis singularities not set.
  Default threshold for basis singularities:  0.1000E-04
  partition_type (choice of integration weights) for integrals was not specified.
  | Using a version of the partition function of Stratmann and coworkers ('stratmann_smoother').
  | At each grid point, the set of atoms used to build the partition table is smoothly restricted to
  | only those atoms whose free-atom density would be non-zero at that grid point.
  Partitioning for Hartree potential was not defined. Using partition_type for integrals.
  | Adjusted default value of keyword multip_moments_threshold to:       0.10000000E-11
  | This value may affect high angular momentum components of the Hartree potential in periodic systems.
  No q(lm)/r^(l+1) cutoff set for long-range Hartree potential.
  | Using default value of  0.100000E-09 .
  | Verify using the multipole_threshold keyword.
  Defaulting to new monopole extrapolation.
  Density update method: automatic selection selected.
------------------------------------------------------------


------------------------------------------------------------
          Reading geometry description geometry.in.
------------------------------------------------------------
 * Warning! You did not set the 'relativistic' flag in input file 'control.in'.
 * Since you are not attempting to treat any elements beyond Ca(Z=20), FHI-aims
 * will default to 'relativistic none'.
 * You must ensure that this is really what you want!!
 * For example, DO NOT compute total-energy differences between results from
 * different settings of the 'relativistic' flag.
  Input structure read successfully.
  The structure contains       32 atoms,  and a total of        116.000 electrons.

  Input geometry:
  | No unit cell requested.
  | Atomic structure:
  |       Atom                x [A]            y [A]            z [A]
  |    1: Species C             -0.683614        -0.479802        -0.049723
  |    2: Species C             -0.448674        -0.217694         1.425318
  |    3: Species O              0.604135        -0.529135         1.974379
  |    4: Species H              0.291923        -0.542969        -0.540023
  |    5: Species H             -1.296411         0.277735        -0.552620
  |    6: Species H             -1.191736        -1.447902        -0.159668
  |    7: Species N             -1.461829         0.357610         2.159641
  |    8: Species C             -2.784347         0.810275         1.748629
  |    9: Species C             -3.557966        -0.311397         0.998583
  |   10: Species O             -3.576967        -1.458511         1.426472
  |   11: Species H             -1.244708         0.394757         3.150222
  |   12: Species H             -3.354669         0.907629         2.686070
  |   13: Species C             -2.752662         2.198321         1.088619
  |   14: Species H             -2.227161         2.189087         0.123608
  |   15: Species H             -2.214307         2.896689         1.740865
  |   16: Species H             -3.764209         2.604160         0.941433
  |   17: Species N             -4.252593         0.080203        -0.108293
  |   18: Species C             -4.988559        -0.846028        -0.974034
  |   19: Species C             -5.888246        -1.842225        -0.195071
  |   20: Species O             -5.876550        -3.037694        -0.461098
  |   21: Species H             -4.123767         1.025558        -0.446886
  |   22: Species H             -5.675782        -0.213150        -1.561478
  |   23: Species C             -4.063278        -1.596488        -1.931379
  |   24: Species H             -3.402839        -2.269031        -1.373103
  |   25: Species H             -3.455473        -0.881654        -2.501711
  |   26: Species H             -4.647142        -2.206653        -2.629039
  |   27: Species N             -6.773811        -1.331592         0.716501
  |   28: Species C             -6.966910         0.031711         1.170276
  |   29: Species H             -7.285085        -2.063198         1.200131
  |   30: Species H             -7.976862         0.120474         1.588711
  |   31: Species H             -6.896131         0.742335         0.337433
  |   32: Species H             -6.245258         0.333912         1.946478
  |

  | The smallest distance between any two atoms is         1.01239146 AA.
  |
  | The first atom of this pair is atom number                     17 .
  | The second atom of this pair is atom number                    21 .

  Number of empty states per atom not set in control.in - providing a guess from actual geometry.
  | Total number of empty states used during s.c.f. cycle:       71
  If you use a very high smearing, use empty_states (per atom!) in control.in to increase this value.

  Structure-dependent array size parameters: 
  | Maximum number of distinct radial functions  :       40
  | Maximum number of basis functions            :      840
  | Number of Kohn-Sham states (occupied + empty):      129
------------------------------------------------------------

------------------------------------------------------------
          Preparing all fixed parts of the calculation.
------------------------------------------------------------
  Determining machine precision:
    2.225073858507201E-308
  Setting up grids for atomic and cluster calculations.

  Creating wave function, potential, and density for free atoms.

  Species: H

  List of occupied orbitals and eigenvalues:
    n    l              occ      energy [Ha]    energy [eV]
    1    0           1.0000        -0.238382        -6.4867


  Species: C

  List of occupied orbitals and eigenvalues:
    n    l              occ      energy [Ha]    energy [eV]
    1    0           2.0000       -10.041232      -273.2358
    2    0           2.0000        -0.504327       -13.7234
    2    1           2.0000        -0.193750        -5.2722


  Species: N

  List of occupied orbitals and eigenvalues:
    n    l              occ      energy [Ha]    energy [eV]
    1    0           2.0000       -14.129007      -384.4699
    2    0           2.0000        -0.681802       -18.5528
    2    1           3.0000        -0.260543        -7.0897


  Species: O

  List of occupied orbitals and eigenvalues:
    n    l              occ      energy [Ha]    energy [eV]
    1    0           2.0000       -18.898576      -514.2564
    2    0           2.0000        -0.878795       -23.9132
    2    1           4.0000        -0.332075        -9.0362

  Creating fixed part of basis set: Ionic, confined, hydrogenic.
 
  H                    hydrogenic:
 
  List of hydrogenic basis orbitals: 
    n    l      effective z      eigenvalue [eV]  inner max. [A]     outer max. [A]     outer radius [A]   
    2    0         2.100000       -14.9965           0.193243           1.317208           5.373006
    2    1         3.500000       -41.6672           0.602369           0.602369           4.056063
    1    0         0.850000        -9.8292           0.624871           0.624871           5.373006
    2    1         3.700000       -46.5653           0.573622           0.573622           3.910002
    2    0         1.200000        -4.5995           0.334980           2.228188           5.505995
    3    2         7.000000       -74.0753           0.680699           0.680699           3.769201
 
 
  C                    hydrogenic:
 
  List of hydrogenic basis orbitals: 
    n    l      effective z      eigenvalue [eV]  inner max. [A]     outer max. [A]     outer radius [A]   
    2    1         1.700000        -9.8152           1.245706           1.245706           5.401630
    3    2         6.000000       -54.4226           0.792453           0.792453           4.178599
    2    0         4.900000       -81.6681           0.082559           0.562749           3.353238
    4    3         9.800000       -81.6681           0.863254           0.863254           4.028125
    3    1         5.200000       -40.8774           0.305389           1.215618           4.898362
    3    0         4.300000       -27.9508           0.091041           1.610311           5.401630
    5    4        14.400000      -112.8510           0.917666           0.917666           3.883070
    3    2         6.200000       -58.1113           0.763917           0.763917           4.077671
 
 
  N                    hydrogenic:
 
  List of hydrogenic basis orbitals: 
    n    l      effective z      eigenvalue [eV]  inner max. [A]     outer max. [A]     outer radius [A]   
    2    1         1.800000       -11.0118           1.177451           1.177451           5.427479
    3    2         6.800000       -69.9029           0.704619           0.704619           3.854246
    3    0         5.800000       -50.8549           0.067388           1.191934           4.629968
    4    3        10.800000       -99.1854           0.786571           0.786571           3.761152
    3    1         5.800000       -50.8549           0.274880           1.094176           4.518138
    1    0         0.800000        -8.7059           0.662839           0.662839           5.361532
    5    4        16.000000      -139.3222           0.825990           0.825990           3.625711
    3    2         4.900000       -36.2967           0.968267           0.968267           4.862000
 
 
  O                    hydrogenic:
 
  List of hydrogenic basis orbitals: 
    n    l      effective z      eigenvalue [eV]  inner max. [A]     outer max. [A]     outer radius [A]   
    2    1         1.800000       -11.0118           1.178562           1.178562           5.432602
    3    2         7.600000       -87.3182           0.624125           0.624125           3.541477
    3    0         6.400000       -61.9209           0.061167           1.081902           4.306578
    4    3        11.600000      -114.4238           0.731631           0.731631           3.585037
    3    1         6.200000       -58.1113           0.255680           1.030270           4.306578
    3    2         5.600000       -47.4081           0.847233           0.847233           4.413171
    5    4        17.600000      -168.5799           0.749740           0.749740           3.372465
    1    0         0.750000        -7.6499           0.705284           0.705284           5.366593
 

  Adding cutoff potential to free-atom effective potential.
  Creating atomic-like basis functions for current effective potential.

  Species H                   :

  List of atomic basis orbitals and eigenvalues:
    n    l      energy [Ha]    energy [eV]    outer radius [A]
    1    0        -0.238382        -6.4867       5.373006


  Species C                   :

  List of atomic basis orbitals and eigenvalues:
    n    l      energy [Ha]    energy [eV]    outer radius [A]
    1    0       -10.041232      -273.2358       1.934409
    2    0        -0.504327       -13.7234       5.271162
    2    1        -0.193750        -5.2722       5.401630


  Species N                   :

  List of atomic basis orbitals and eigenvalues:
    n    l      energy [Ha]    energy [eV]    outer radius [A]
    1    0       -14.129007      -384.4699       1.637919
    2    0        -0.681802       -18.5528       5.168461
    2    1        -0.260543        -7.0897       5.361532


  Species O                   :

  List of atomic basis orbitals and eigenvalues:
    n    l      energy [Ha]    energy [eV]    outer radius [A]
    1    0       -18.898576      -514.2564       1.415765
    2    0        -0.878795       -23.9132       5.048385
    2    1        -0.332075        -9.0362       5.301386

  Assembling full basis from fixed parts.
  | Species H :   atomic orbital   1 s accepted.
  | Species H :    hydro orbital   2 s accepted.
  | Species H :    hydro orbital   1 s accepted.
  | Species H :    hydro orbital   2 s accepted.
  | Species H :    hydro orbital   2 p accepted.
  | Species H :    hydro orbital   2 p accepted.
  | Species H :    hydro orbital   3 d accepted.
  | Species C :   atomic orbital   1 s accepted.
  | Species C :    hydro orbital   2 s accepted.
  | Species C :   atomic orbital   2 s accepted.
  | Species C :    hydro orbital   3 s accepted.
  | Species C :    hydro orbital   3 p accepted.
  | Species C :   atomic orbital   2 p accepted.
  | Species C :    hydro orbital   2 p accepted.
  | Species C :    hydro orbital   3 d accepted.
  | Species C :    hydro orbital   3 d accepted.
  | Species C :    hydro orbital   4 f accepted.
  | Species C :    hydro orbital   5 g accepted.
  | Species N :   atomic orbital   1 s accepted.
  | Species N :    hydro orbital   3 s accepted.
  | Species N :   atomic orbital   2 s accepted.
  | Species N :    hydro orbital   1 s accepted.
  | Species N :    hydro orbital   3 p accepted.
  | Species N :   atomic orbital   2 p accepted.
  | Species N :    hydro orbital   2 p accepted.
  | Species N :    hydro orbital   3 d accepted.
  | Species N :    hydro orbital   3 d accepted.
  | Species N :    hydro orbital   4 f accepted.
  | Species N :    hydro orbital   5 g accepted.
  | Species O :   atomic orbital   1 s accepted.
  | Species O :    hydro orbital   3 s accepted.
  | Species O :   atomic orbital   2 s accepted.
  | Species O :    hydro orbital   1 s accepted.
  | Species O :    hydro orbital   3 p accepted.
  | Species O :   atomic orbital   2 p accepted.
  | Species O :    hydro orbital   2 p accepted.
  | Species O :    hydro orbital   3 d accepted.
  | Species O :    hydro orbital   3 d accepted.
  | Species O :    hydro orbital   4 f accepted.
  | Species O :    hydro orbital   5 g accepted.
 
  Basis size parameters after reduction:
  | Total number of radial functions:       40
  | Total number of basis functions :      840
 
  Testing on-site integration grid accuracy.
  |  Species  Function  <phi|h_atom|phi> (log., in eV)  <phi|h_atom|phi> (rad., in eV)
           1        1                 -6.4869821809                 -6.4870742227
           1        2                 13.5044133542                 13.5041049177
           1        3                 32.7854418792                 32.7779770519
           1        4                 33.7995553101                 33.7152624900 ***
           1        5                 28.8558651799                 28.8558652046
           1        6                 59.6361831893                 59.6362535845
           1        7                 60.2733718049                 60.2733715484
           2        8               -273.2358277112               -273.2358261765
           2        9                -10.7624923123                -10.7625144012
           2       10                 17.4634079027                 17.4634252127
           2       11                 53.0363661832                 53.0366180446
           2       12                 15.0981351967                 15.0981317714
           2       13                  3.8522181899                  3.8522770949
           2       14                 12.1181835661                 12.1206868578
           2       15                 29.4320778347                 29.4320780959
           2       16                 54.8753777694                 54.8752901936
           2       17                 59.3533975461                 59.3533974833
           2       18                 93.4537491195                 93.4537492066
           3       19               -384.4698526889               -384.4698499465
           3       20                 12.5691022037                 12.5690910168
           3       21                -15.7489097511                -15.7489165588
           3       22                 27.0978334940                 27.0985589490
           3       23                 18.5949116966                 18.5949125562
           3       24                  1.2212828291                  1.2212855301
           3       25                 13.4428926797                 13.4434051125
           3       26                 35.9380614500                 35.9380613666
           3       27                 39.9231532098                 39.9231654735
           3       28                 72.9957335806                 72.9957336833
           3       29                116.4231321147                116.4231321431
           4       30               -514.2564144315               -514.2564099626
           4       31                 15.1726678541                 15.1726530877
           4       32                -21.5447785304                -21.5447874973
           4       33                 14.4944558459                 14.4944698284
           4       34                 20.8882174564                 20.8882178906
           4       35                 -2.4850315908                 -2.4850322289
           4       36                 13.8600193195                 13.8599826966
           4       37                 45.8243383616                 45.8243383675
           4       38                 52.1840606465                 52.1840622440
           4       39                 85.4074185510                 85.4074185819
           4       40                142.0983717302                142.0983717339
 * Note: Onsite integrals marked "***" above are less accurate than
 * onsite_accuracy_threshold =    0.03000 eV. Usually, this is harmless.
 * When in doubt, tighten the "radial" and/or "radial_multiplier" flags to check.

  Preparing densities etc. for the partition functions (integrals / Hartree potential).

  Preparations completed.
  max(cpu_time)          :      0.240 s.
  Wall clock time (cpu1) :      0.237 s.
------------------------------------------------------------

------------------------------------------------------------
          Begin self-consistency loop: Initialization.

          Date     :  20170309, Time     :  185856.491
------------------------------------------------------------

  Initializing index lists of integration centers etc. from given atomic structure:
  | Number of centers in hartree potential         :        32
  | Number of centers in hartree multipole         :        32
  | Number of centers in electron density summation:        32
  | Number of centers in basis integrals           :        32
  | Number of centers in integrals                 :        32
  | Number of centers in hamiltonian               :        32
  Using modified Scalapack Eigenvalue solver (ELPA)
  * Using 32 tasks for Scalapack Eigenvalue solver.
  Detailed listing of tasks and assigned k-points:
  (for non-periodic systems, the "k-point" denotes an internal label only)
   Task     0 k-point     1 on eos221
   Task     1 k-point     1 on eos221
   Task     2 k-point     1 on eos221
   Task     3 k-point     1 on eos221
   Task     4 k-point     1 on eos221
   Task     5 k-point     1 on eos221
   Task     6 k-point     1 on eos221
   Task     7 k-point     1 on eos221
   Task     8 k-point     1 on eos221
   Task     9 k-point     1 on eos221
   Task    10 k-point     1 on eos221
   Task    11 k-point     1 on eos221
   Task    12 k-point     1 on eos221
   Task    13 k-point     1 on eos221
   Task    14 k-point     1 on eos221
   Task    15 k-point     1 on eos221
   Task    16 k-point     1 on eos221
   Task    17 k-point     1 on eos221
   Task    18 k-point     1 on eos221
   Task    19 k-point     1 on eos221
   Task    20 k-point     1 on eos221
   Task    21 k-point     1 on eos221
   Task    22 k-point     1 on eos221
   Task    23 k-point     1 on eos221
   Task    24 k-point     1 on eos221
   Task    25 k-point     1 on eos221
   Task    26 k-point     1 on eos221
   Task    27 k-point     1 on eos221
   Task    28 k-point     1 on eos221
   Task    29 k-point     1 on eos221
   Task    30 k-point     1 on eos221
   Task    31 k-point     1 on eos221
  Tasks:    32 split into      8 X      4 BLACS grid
  Calculating blocksize based on n_basis =          840 max_nprow =            8 max_npcol =            4
  Scalapack blocksize set to:           16
  Required Scalapack workspace - INTEGER:            1 REAL:             1
  Partitioning the integration grid into batches with parallel hashing+maxmin method.
  | Number of batches:     4969
  | Maximal batch size:     200
  | Minimal batch size:      52
  | Average batch size:     106.204
  | Standard deviation of batch sizes:      34.991

  Integration load balanced across    32 MPI tasks.
  Work distribution over tasks is as follows:
  Task     0 has      16481 integration points.
  Task     1 has      16608 integration points.
  Task     2 has      16505 integration points.
  Task     3 has      16486 integration points.
  Task     4 has      16503 integration points.
  Task     5 has      16482 integration points.
  Task     6 has      16453 integration points.
  Task     7 has      16490 integration points.
  Task     8 has      16487 integration points.
  Task     9 has      16486 integration points.
  Task    10 has      16553 integration points.
  Task    11 has      16487 integration points.
  Task    12 has      16496 integration points.
  Task    13 has      16522 integration points.
  Task    14 has      16476 integration points.
  Task    15 has      16483 integration points.
  Task    16 has      16458 integration points.
  Task    17 has      16456 integration points.
  Task    18 has      16483 integration points.
  Task    19 has      16453 integration points.
  Task    20 has      16529 integration points.
  Task    21 has      16494 integration points.
  Task    22 has      16462 integration points.
  Task    23 has      16511 integration points.
  Task    24 has      16525 integration points.
  Task    25 has      16486 integration points.
  Task    26 has      16483 integration points.
  Task    27 has      16490 integration points.
  Task    28 has      16489 integration points.
  Task    29 has      16476 integration points.
  Task    30 has      16479 integration points.
  Task    31 has      16456 integration points.
  Initializing partition tables, free-atom densities, potentials, etc. across the integration grid (initialize_grid_storage).
  | initialize_grid_storage: Actual outermost partition radius vs. multipole_radius_free
  | (-- VB: in principle, multipole_radius_free should be larger, hence this output)
  | Species        1: Confinement radius =              6.000000000000000 AA, multipole_radius_free =              6.071692442739658 AA.
  | Species        1: outer_partition_radius set to              6.071692442739658 AA .
  | Species        2: Confinement radius =              6.000000000000000 AA, multipole_radius_free =              6.029870734432609 AA.
  | Species        2: outer_partition_radius set to              6.029870734432609 AA .
  | Species        3: Confinement radius =              6.000000000000000 AA, multipole_radius_free =              6.058726835495003 AA.
  | Species        3: outer_partition_radius set to              6.058726835495003 AA .
  | Species        4: Confinement radius =              6.000000000000000 AA, multipole_radius_free =              6.064445521808699 AA.
  | Species        4: outer_partition_radius set to              6.064445521808699 AA .
  | Original list of interatomic distances with          32 x         32 entries is created.
  | Net number of integration points:   527728
  | of which are non-zero points    :   412502
  Obtaining max. number of non-zero basis functions in each batch (get_n_compute_maxes).
  | Maximal number of non-zero basis functions:      789 in task     0
  | Maximal number of non-zero basis functions:      786 in task     1
  | Maximal number of non-zero basis functions:      793 in task     2
  | Maximal number of non-zero basis functions:      789 in task     3
  | Maximal number of non-zero basis functions:      792 in task     4
  | Maximal number of non-zero basis functions:      792 in task     5
  | Maximal number of non-zero basis functions:      796 in task     6
  | Maximal number of non-zero basis functions:      782 in task     7
  | Maximal number of non-zero basis functions:      789 in task     8
  | Maximal number of non-zero basis functions:      783 in task     9
  | Maximal number of non-zero basis functions:      788 in task    10
  | Maximal number of non-zero basis functions:      787 in task    11
  | Maximal number of non-zero basis functions:      801 in task    12
  | Maximal number of non-zero basis functions:      796 in task    13
  | Maximal number of non-zero basis functions:      790 in task    14
  | Maximal number of non-zero basis functions:      781 in task    15
  | Maximal number of non-zero basis functions:      801 in task    16
  | Maximal number of non-zero basis functions:      793 in task    17
  | Maximal number of non-zero basis functions:      797 in task    18
  | Maximal number of non-zero basis functions:      793 in task    19
  | Maximal number of non-zero basis functions:      793 in task    20
  | Maximal number of non-zero basis functions:      777 in task    21
  | Maximal number of non-zero basis functions:      790 in task    22
  | Maximal number of non-zero basis functions:      793 in task    23
  | Maximal number of non-zero basis functions:      792 in task    24
  | Maximal number of non-zero basis functions:      798 in task    25
  | Maximal number of non-zero basis functions:      789 in task    26
  | Maximal number of non-zero basis functions:      792 in task    27
  | Maximal number of non-zero basis functions:      796 in task    28
  | Maximal number of non-zero basis functions:      796 in task    29
  | Maximal number of non-zero basis functions:      788 in task    30
  | Maximal number of non-zero basis functions:      789 in task    31
  Selecting the method for density update.
  Loop over occupied states selected for charge density update.
  Integrating Hamiltonian matrix: batch-based integration.
  Time summed over all CPUs for integration: real work       22.909 s, elapsed       23.848 s
  Integrating overlap matrix.
  Time summed over all CPUs for integration: real work       14.104 s, elapsed       14.546 s
  Deallocating overlap matrix.

  Updating Kohn-Sham eigenvalues, eigenvectors, occupation numbers, and Fermi level.
  Solving generalized eigenproblem
  Solving real symmetric generalised eigenvalue problem by standard ScaLAPACK.
  Transforming overlap matrix with ScaLAPACK and checking for singularities.
  : Overlap matrix is nonsingular, using Cholesky decomposition
  | Lowest eigenvalue:  0.774094E-04
  Factoring overlap matrix with Cholesky decomposition
  Using Cholesky factor for transformation
  Using 1-stage real ELPA solver
  Determining occupation numbers for Kohn-Sham eigenstates.
  | Chemical potential (Fermi level) in eV                 : -.95893070E+01
  | Error in electron count due to remaining E_F inaccuracy: 0.00000000E+00
  | Maximum occupation number of highest empty state:  0.00E+00

  Writing Kohn-Sham eigenvalues.

  State    Occupation    Eigenvalue [Ha]    Eigenvalue [eV]
      1       2.00000         -18.975436         -516.34788
      2       2.00000         -18.975421         -516.34748
      3       2.00000         -18.974340         -516.31805
      4       2.00000         -14.255038         -387.89932
      5       2.00000         -14.254649         -387.88873
      6       2.00000         -14.252984         -387.84343
      7       2.00000         -10.171554         -276.78207
      8       2.00000         -10.171318         -276.77563
      9       2.00000         -10.170284         -276.74752
     10       2.00000         -10.166577         -276.64663
     11       2.00000         -10.147257         -276.12090
     12       2.00000         -10.147003         -276.11400
     13       2.00000         -10.135641         -275.80482
     14       2.00000         -10.134405         -275.77120
     15       2.00000         -10.133763         -275.75373
     16       2.00000          -1.137363          -30.94922
     17       2.00000          -1.133237          -30.83695
     18       2.00000          -1.130718          -30.76839
     19       2.00000          -1.019152          -27.73253
     20       2.00000          -1.010636          -27.50081
     21       2.00000          -1.005418          -27.35881
     22       2.00000          -0.888549          -24.17866
     23       2.00000          -0.866473          -23.57792
     24       2.00000          -0.848141          -23.07910
     25       2.00000          -0.817268          -22.23899
     26       2.00000          -0.779777          -21.21881
     27       2.00000          -0.762213          -20.74088
     28       2.00000          -0.710714          -19.33950
     29       2.00000          -0.680811          -18.52581
     30       2.00000          -0.665336          -18.10471
     31       2.00000          -0.640564          -17.43065
     32       2.00000          -0.620174          -16.87580
     33       2.00000          -0.615866          -16.75856
     34       2.00000          -0.607052          -16.51873
     35       2.00000          -0.594372          -16.17370
     36       2.00000          -0.582806          -15.85897
     37       2.00000          -0.563447          -15.33218
     38       2.00000          -0.561348          -15.27507
     39       2.00000          -0.560011          -15.23869
     40       2.00000          -0.554548          -15.09001
     41       2.00000          -0.547807          -14.90658
     42       2.00000          -0.542222          -14.75461
     43       2.00000          -0.534307          -14.53924
     44       2.00000          -0.527688          -14.35913
     45       2.00000          -0.520830          -14.17251
     46       2.00000          -0.519348          -14.13218
     47       2.00000          -0.510672          -13.89608
     48       2.00000          -0.502804          -13.68200
     49       2.00000          -0.495728          -13.48946
     50       2.00000          -0.485817          -13.21975
     51       2.00000          -0.481780          -13.10989
     52       2.00000          -0.473609          -12.88755
     53       2.00000          -0.407903          -11.09961
     54       2.00000          -0.403217          -10.97210
     55       2.00000          -0.400655          -10.90239
     56       2.00000          -0.388639          -10.57540
     57       2.00000          -0.385562          -10.49168
     58       2.00000          -0.381948          -10.39332
     59       0.00000          -0.163309           -4.44388
     60       0.00000          -0.160881           -4.37779
     61       0.00000          -0.157273           -4.27963
     62       0.00000          -0.084819           -2.30803
     63       0.00000          -0.063967           -1.74064
     64       0.00000          -0.061826           -1.68236
     65       0.00000          -0.058602           -1.59465
     66       0.00000          -0.050668           -1.37874
     67       0.00000          -0.040519           -1.10258
     68       0.00000          -0.030135           -0.82002
     69       0.00000          -0.028702           -0.78102
     70       0.00000          -0.022688           -0.61738
     71       0.00000          -0.021462           -0.58401
     72       0.00000          -0.015245           -0.41483
     73       0.00000          -0.011627           -0.31640
     74       0.00000          -0.010418           -0.28350
     75       0.00000          -0.004278           -0.11641
     76       0.00000          -0.001399           -0.03806
     77       0.00000           0.008407            0.22877
     78       0.00000           0.012036            0.32751
     79       0.00000           0.018133            0.49341
     80       0.00000           0.021024            0.57208
     81       0.00000           0.023063            0.62757
     82       0.00000           0.025521            0.69447
     83       0.00000           0.034730            0.94506
     84       0.00000           0.042796            1.16454
     85       0.00000           0.047383            1.28936
     86       0.00000           0.052828            1.43752
     87       0.00000           0.055504            1.51034
     88       0.00000           0.058630            1.59540
     89       0.00000           0.068337            1.85955
     90       0.00000           0.073085            1.98874
     91       0.00000           0.076494            2.08150
     92       0.00000           0.080027            2.17763
     93       0.00000           0.089592            2.43791
     94       0.00000           0.094038            2.55891
     95       0.00000           0.100842            2.74406
     96       0.00000           0.106482            2.89752
     97       0.00000           0.110328            3.00216
     98       0.00000           0.114013            3.10245
     99       0.00000           0.120558            3.28055
    100       0.00000           0.123515            3.36101
    101       0.00000           0.128262            3.49019
    102       0.00000           0.132225            3.59803
    103       0.00000           0.136468            3.71349
    104       0.00000           0.138585            3.77110
    105       0.00000           0.146190            3.97804
    106       0.00000           0.151209            4.11460
    107       0.00000           0.155463            4.23036
    108       0.00000           0.159825            4.34906
    109       0.00000           0.166632            4.53430
    110       0.00000           0.170793            4.64751
    111       0.00000           0.177101            4.81916
    112       0.00000           0.182600            4.96880
    113       0.00000           0.189251            5.14978
    114       0.00000           0.189427            5.15458
    115       0.00000           0.192967            5.25089
    116       0.00000           0.197254            5.36756
    117       0.00000           0.200614            5.45898
    118       0.00000           0.211292            5.74956
    119       0.00000           0.213144            5.79996
    120       0.00000           0.217866            5.92844
    121       0.00000           0.221669            6.03193
    122       0.00000           0.227215            6.18282
    123       0.00000           0.237433            6.46087
    124       0.00000           0.237912            6.47392
    125       0.00000           0.241906            6.58259
    126       0.00000           0.251867            6.85365
    127       0.00000           0.259740            7.06788
    128       0.00000           0.265102            7.21379
    129       0.00000           0.269376            7.33010

  Highest occupied state (VBM) at    -10.39332391 eV
  | Occupation number:      2.00000000

  Lowest unoccupied state (CBM) at    -4.44387622 eV
  | Occupation number:      0.00000000

  Overall HOMO-LUMO gap:      5.94944769 eV.
  Calculating total energy contributions from superposition of free atom densities.

  Total energy components:
  | Sum of eigenvalues            :        -437.86440388 Ha      -11914.89665298 eV
  | XC energy correction          :         -98.82004194 Ha       -2689.03015749 eV
  | XC potential correction       :         127.02208262 Ha        3456.44673029 eV
  | Free-atom electrostatic energy:        -333.61822488 Ha       -9078.21379342 eV
  | Hartree energy correction     :           0.00000000 Ha           0.00000000 eV
  | MBD@rsSCS energy              :           0.00000000 Ha           0.00000000 eV
  | Entropy correction            :          -0.00000000 Ha          -0.00000000 eV
  | ---------------------------
  | Total energy                  :        -743.28058808 Ha      -20225.69387360 eV
  | Total energy, T -> 0          :        -743.28058808 Ha      -20225.69387360 eV  <-- do not rely on this value for anything but (periodic) metals
  | Electronic free energy        :        -743.28058808 Ha      -20225.69387360 eV

  Derived energy quantities:
  | Kinetic energy                :         735.16021080 Ha       20004.72716530 eV
  | Electrostatic energy          :       -1379.62075694 Ha      -37541.39088141 eV
  | Energy correction for multipole
  | error in Hartree potential    :           0.00000000 Ha           0.00000000 eV
  | Sum of eigenvalues per atom                           :        -372.34052041 eV
  | Total energy (T->0) per atom                          :        -632.05293355 eV  <-- do not rely on this value for anything but (periodic) metals
  | Electronic free energy per atom                       :        -632.05293355 eV
  Initialize hartree_potential_storage
  Max. number of atoms included in rho_multipole:           32

  End scf initialization - timings             :  max(cpu_time)    wall_clock(cpu1)
  | Time for scf. initialization               :        1.940 s           1.940 s
  | Boundary condition initialization          :        0.004 s           0.001 s
  | Integration                                :        1.224 s           1.222 s
  | Solution of K.-S. eqns.                    :        0.076 s           0.075 s
  | Grid partitioning                          :        0.280 s           0.273 s
  | Preloading free-atom quantities on grid    :        0.028 s           0.028 s
  | Free-atom superposition energy             :        0.040 s           0.040 s
  | Total energy evaluation                    :        0.000 s           0.001 s
------------------------------------------------------------

------------------------------------------------------------
          Begin self-consistency iteration #    1

  Date     :  20170309, Time     :  185858.431
------------------------------------------------------------
  Evaluating new KS density.
  Integration grid: deviation in total charge (<rho> - N_e) =   2.842171E-14
  Pulay mixing of updated and previous charge densities.

  Evaluating partitioned Hartree potential by multipole expansion.
  | Analytical far-field extrapolation by fixed multipoles:
  | Hartree multipole sum: apparent total charge =  -0.682988E-04
  Summing up the Hartree potential.
  Time summed over all CPUs for potential: real work        9.581 s, elapsed        9.847 s
  | RMS charge density error from multipole expansion :   0.106742E-01

  Integrating Hamiltonian matrix: batch-based integration.
  Time summed over all CPUs for integration: real work       22.716 s, elapsed       23.703 s

  Updating Kohn-Sham eigenvalues, eigenvectors, occupation numbers, and Fermi level.
  Solving generalized eigenproblem
  Solving real symmetric generalised eigenvalue problem by standard ScaLAPACK.
  Using Cholesky factor for transformation
  Using 2-stage real ELPA solver
  K-Point:    1, Trafo times: 1-stage=     0.021 s, 2-stage=     0.019 s ==> Using 2-stage solver
  Determining occupation numbers for Kohn-Sham eigenstates.
  | Chemical potential (Fermi level) in eV                 : -.37772610E+01
  | Error in electron count due to remaining E_F inaccuracy: 0.00000000E+00
  | Maximum occupation number of highest empty state:  0.00E+00

  Writing Kohn-Sham eigenvalues.

  State    Occupation    Eigenvalue [Ha]    Eigenvalue [eV]
      1       2.00000         -18.619404         -506.65976
      2       2.00000         -18.599359         -506.11430
      3       2.00000         -18.598363         -506.08720
      4       2.00000         -14.011218         -381.26463
      5       2.00000         -13.980464         -380.42777
      6       2.00000         -13.976995         -380.33338
      7       2.00000         -10.065239         -273.88910
      8       2.00000         -10.043008         -273.28414
      9       2.00000         -10.041048         -273.23083
     10       2.00000          -9.979946         -271.56815
     11       2.00000          -9.964883         -271.15827
     12       2.00000          -9.899082         -269.36771
     13       2.00000          -9.860708         -268.32352
     14       2.00000          -9.841303         -267.79548
     15       2.00000          -9.821697         -267.26197
     16       2.00000          -0.972343          -26.45880
     17       2.00000          -0.948488          -25.80967
     18       2.00000          -0.945380          -25.72510
     19       2.00000          -0.879221          -23.92482
     20       2.00000          -0.858426          -23.35897
     21       2.00000          -0.849671          -23.12073
     22       2.00000          -0.748962          -20.38030
     23       2.00000          -0.716416          -19.49466
     24       2.00000          -0.691255          -18.81001
     25       2.00000          -0.675381          -18.37805
     26       2.00000          -0.644443          -17.53619
     27       2.00000          -0.623468          -16.96542
     28       2.00000          -0.589733          -16.04746
     29       2.00000          -0.556504          -15.14325
     30       2.00000          -0.537181          -14.61744
     31       2.00000          -0.511540          -13.91972
     32       2.00000          -0.493564          -13.43056
     33       2.00000          -0.472471          -12.85660
     34       2.00000          -0.460128          -12.52072
     35       2.00000          -0.454785          -12.37532
     36       2.00000          -0.441188          -12.00533
     37       2.00000          -0.434571          -11.82527
     38       2.00000          -0.418997          -11.40150
     39       2.00000          -0.413790          -11.25981
     40       2.00000          -0.404056          -10.99492
     41       2.00000          -0.401658          -10.92968
     42       2.00000          -0.395721          -10.76813
     43       2.00000          -0.389700          -10.60429
     44       2.00000          -0.375188          -10.20939
     45       2.00000          -0.368425          -10.02536
     46       2.00000          -0.366840           -9.98223
     47       2.00000          -0.357672           -9.73275
     48       2.00000          -0.354020           -9.63338
     49       2.00000          -0.346971           -9.44155
     50       2.00000          -0.339868           -9.24828
     51       2.00000          -0.336741           -9.16319
     52       2.00000          -0.329766           -8.97340
     53       2.00000          -0.246479           -6.70704
     54       2.00000          -0.224350           -6.10486
     55       2.00000          -0.220171           -5.99117
     56       2.00000          -0.214433           -5.83501
     57       2.00000          -0.200720           -5.46186
     58       2.00000          -0.198547           -5.40275
     59       0.00000          -0.061764           -1.68068
     60       0.00000          -0.056544           -1.53864
     61       0.00000          -0.035172           -0.95708
     62       0.00000          -0.032088           -0.87316
     63       0.00000          -0.025567           -0.69571
     64       0.00000          -0.023328           -0.63478
     65       0.00000          -0.012830           -0.34912
     66       0.00000          -0.004385           -0.11932
     67       0.00000           0.004255            0.11578
     68       0.00000           0.015365            0.41811
     69       0.00000           0.018162            0.49422
     70       0.00000           0.024073            0.65507
     71       0.00000           0.025573            0.69587
     72       0.00000           0.040294            1.09646
     73       0.00000           0.046591            1.26781
     74       0.00000           0.052823            1.43738
     75       0.00000           0.054904            1.49401
     76       0.00000           0.057597            1.56728
     77       0.00000           0.065894            1.79307
     78       0.00000           0.076731            2.08795
     79       0.00000           0.079767            2.17057
     80       0.00000           0.086119            2.34341
     81       0.00000           0.091508            2.49005
     82       0.00000           0.094432            2.56962
     83       0.00000           0.098454            2.67908
     84       0.00000           0.104343            2.83933
     85       0.00000           0.107454            2.92397
     86       0.00000           0.121707            3.31182
     87       0.00000           0.124673            3.39253
     88       0.00000           0.129830            3.53286
     89       0.00000           0.133344            3.62848
     90       0.00000           0.137545            3.74278
     91       0.00000           0.140105            3.81246
     92       0.00000           0.146333            3.98193
     93       0.00000           0.152601            4.15248
     94       0.00000           0.159276            4.33413
     95       0.00000           0.167297            4.55238
     96       0.00000           0.170035            4.62690
     97       0.00000           0.172886            4.70448
     98       0.00000           0.174295            4.74281
     99       0.00000           0.178962            4.86981
    100       0.00000           0.184507            5.02070
    101       0.00000           0.190208            5.17581
    102       0.00000           0.192777            5.24572
    103       0.00000           0.195982            5.33295
    104       0.00000           0.204120            5.55439
    105       0.00000           0.207921            5.65783
    106       0.00000           0.213549            5.81095
    107       0.00000           0.218262            5.93921
    108       0.00000           0.223463            6.08073
    109       0.00000           0.224843            6.11828
    110       0.00000           0.228425            6.21576
    111       0.00000           0.236625            6.43890
    112       0.00000           0.240332            6.53975
    113       0.00000           0.247362            6.73105
    114       0.00000           0.253760            6.90515
    115       0.00000           0.259338            7.05696
    116       0.00000           0.262662            7.14739
    117       0.00000           0.269337            7.32903
    118       0.00000           0.274433            7.46769
    119       0.00000           0.278776            7.58589
    120       0.00000           0.282331            7.68261
    121       0.00000           0.285391            7.76588
    122       0.00000           0.294380            8.01048
    123       0.00000           0.298002            8.10905
    124       0.00000           0.308886            8.40520
    125       0.00000           0.309662            8.42633
    126       0.00000           0.315431            8.58330
    127       0.00000           0.325301            8.85189
    128       0.00000           0.332310            9.04261
    129       0.00000           0.341840            9.30194

  Highest occupied state (VBM) at     -5.40274712 eV
  | Occupation number:      2.00000000

  Lowest unoccupied state (CBM) at    -1.68068154 eV
  | Occupation number:      0.00000000

  Overall HOMO-LUMO gap:      3.72206558 eV.

  Total energy components:
  | Sum of eigenvalues            :        -417.42390169 Ha      -11358.68228838 eV
  | XC energy correction          :        -100.75478107 Ha       -2741.67708786 eV
  | XC potential correction       :         129.53093325 Ha        3524.71602930 eV
  | Free-atom electrostatic energy:        -333.61822488 Ha       -9078.21379342 eV
  | Hartree energy correction     :         -20.43984832 Ha        -556.19657180 eV
  | MBD@rsSCS energy              :           0.00000000 Ha           0.00000000 eV
  | Entropy correction            :           0.00000000 Ha           0.00000000 eV
  | ---------------------------
  | Total energy                  :        -742.70582271 Ha      -20210.05371216 eV
  | Total energy, T -> 0          :        -742.70582271 Ha      -20210.05371216 eV  <-- do not rely on this value for anything but (periodic) metals
  | Electronic free energy        :        -742.70582271 Ha      -20210.05371216 eV

  Derived energy quantities:
  | Kinetic energy                :         744.05187832 Ha       20246.68174901 eV
  | Electrostatic energy          :       -1386.00291997 Ha      -37715.05837332 eV
  | Energy correction for multipole
  | error in Hartree potential    :          -0.04186112 Ha          -1.13909907 eV
  | Sum of eigenvalues per atom                           :        -354.95882151 eV
  | Total energy (T->0) per atom                          :        -631.56417851 eV  <-- do not rely on this value for anything but (periodic) metals
  | Electronic free energy per atom                       :        -631.56417851 eV

  Self-consistency convergence accuracy:
  | Change of charge density      :  0.9044E+00
  | Change of sum of eigenvalues  :  0.5562E+03 eV
  | Change of total energy        :  0.1564E+02 eV

  End self-consistency iteration #     1       :  max(cpu_time)    wall_clock(cpu1)
  | Time for this iteration                    :        1.612 s           1.609 s
[...]
   Multipole                     :  0.865456E-02  0.504202E+00  0.103394E+00
   Pulay + GGA                   : -0.654710E+00  0.126468E+02  0.305513E+01
   MBD@rsSCS                     :  0.115668E-01  0.197586E-01  0.648907E-03
   ----------------------------------------------------------------
   Total forces(  20)            :  0.147601E-01  0.463926E-02 -0.141470E-01
  atom #   21
   Hellmann-Feynman              : -0.196679E-02 -0.258645E-01  0.599993E-02
   Ionic forces                  :  0.000000E+00  0.000000E+00  0.000000E+00
   Multipole                     : -0.772394E-02 -0.185913E-01 -0.382189E-02
   Pulay + GGA                   :  0.135516E-01  0.584577E-01 -0.100604E-01
   MBD@rsSCS                     :  0.554869E-03 -0.545163E-02  0.226158E-02
   ----------------------------------------------------------------
   Total forces(  21)            :  0.441576E-02  0.855029E-02 -0.562075E-02
  atom #   22
   Hellmann-Feynman              :  0.372266E-01 -0.482077E-01  0.202017E-01
   Ionic forces                  :  0.000000E+00  0.000000E+00  0.000000E+00
   Multipole                     : -0.730608E-02 -0.108261E-01  0.145548E-02
   Pulay + GGA                   : -0.352085E-01  0.557758E-01 -0.209425E-01
   MBD@rsSCS                     : -0.225734E-02  0.893663E-03  0.782923E-02
   ----------------------------------------------------------------
   Total forces(  22)            : -0.754533E-02 -0.236438E-02  0.854397E-02
  atom #   23
   Hellmann-Feynman              :  0.619040E+00 -0.780479E+00 -0.652023E+00
   Ionic forces                  :  0.000000E+00  0.000000E+00  0.000000E+00
   Multipole                     : -0.168379E+00  0.244160E+00  0.150560E+00
   Pulay + GGA                   : -0.460920E+00  0.534089E+00  0.496955E+00
   MBD@rsSCS                     :  0.561902E-02  0.772135E-02  0.181512E-01
   ----------------------------------------------------------------
   Total forces(  23)            : -0.463983E-02  0.549163E-02  0.136419E-01
  atom #   24
   Hellmann-Feynman              : -0.754787E-01  0.790790E-02  0.239150E-01
   Ionic forces                  :  0.000000E+00  0.000000E+00  0.000000E+00
   Multipole                     : -0.544352E-03  0.135332E-01 -0.267955E-01
   Pulay + GGA                   :  0.632901E-01 -0.220397E-01  0.145624E-01
   MBD@rsSCS                     :  0.260577E-02  0.720873E-02  0.175802E-01
   ----------------------------------------------------------------
   Total forces(  24)            : -0.101272E-01  0.661008E-02  0.292622E-01
  atom #   25
   Hellmann-Feynman              : -0.399259E-01 -0.872923E-02  0.242079E-01
   Ionic forces                  :  0.000000E+00  0.000000E+00  0.000000E+00
   Multipole                     :  0.744663E-02 -0.376988E-01 -0.762501E-02
   Pulay + GGA                   :  0.242795E-01  0.480765E-01 -0.267860E-01
   MBD@rsSCS                     :  0.111225E-02  0.764371E-02  0.114858E-01
   ----------------------------------------------------------------
   Total forces(  25)            : -0.708753E-02  0.929213E-02  0.128270E-02
  atom #   26
   Hellmann-Feynman              : -0.183371E-01  0.837025E-02  0.655925E-01
   Ionic forces                  :  0.000000E+00  0.000000E+00  0.000000E+00
   Multipole                     :  0.360872E-01  0.966485E-03 -0.730446E-03
   Pulay + GGA                   : -0.269137E-01 -0.108889E-01 -0.596398E-01
   MBD@rsSCS                     : -0.471718E-02  0.347481E-02  0.881866E-02
   ----------------------------------------------------------------
   Total forces(  26)            : -0.138807E-01  0.192260E-02  0.140410E-01
  atom #   27
   Hellmann-Feynman              : -0.437328E+00 -0.133147E+01 -0.127881E+01
   Ionic forces                  :  0.000000E+00  0.000000E+00  0.000000E+00
   Multipole                     :  0.172741E-01 -0.158939E+00 -0.555460E-01
   Pulay + GGA                   :  0.420232E+00  0.149832E+01  0.133380E+01
   MBD@rsSCS                     :  0.242883E-01  0.648610E-02 -0.894458E-02
   ----------------------------------------------------------------
   Total forces(  27)            :  0.244665E-01  0.144034E-01 -0.950340E-02
  atom #   28
   Hellmann-Feynman              : -0.493181E+00  0.192649E+01  0.770087E+00
   Ionic forces                  :  0.000000E+00  0.000000E+00  0.000000E+00
   Multipole                     : -0.858147E-02 -0.171181E+00 -0.501055E-01
   Pulay + GGA                   :  0.500504E+00 -0.175560E+01 -0.730374E+00
   MBD@rsSCS                     :  0.207706E-01 -0.539199E-02 -0.867023E-02
   ----------------------------------------------------------------
   Total forces(  28)            :  0.195119E-01 -0.567729E-02 -0.190629E-01
  atom #   29
   Hellmann-Feynman              :  0.472416E-01 -0.554602E-02 -0.443175E-01
   Ionic forces                  :  0.000000E+00  0.000000E+00  0.000000E+00
   Multipole                     : -0.144605E-01  0.400479E-01  0.104288E-01
   Pulay + GGA                   : -0.436114E-01 -0.376245E-01  0.369962E-01
   MBD@rsSCS                     :  0.502953E-02  0.589570E-02 -0.208310E-02
   ----------------------------------------------------------------
   Total forces(  29)            : -0.580082E-02  0.277306E-02  0.102438E-02
  atom #   30
   Hellmann-Feynman              :  0.283687E-01 -0.462076E-01 -0.308797E-01
   Ionic forces                  :  0.000000E+00  0.000000E+00  0.000000E+00
   Multipole                     :  0.237051E-01  0.353618E-01  0.861455E-02
   Pulay + GGA                   : -0.586806E-01  0.102315E-01  0.265849E-01
   MBD@rsSCS                     :  0.425964E-02 -0.452052E-02 -0.311309E-02
   ----------------------------------------------------------------
   Total forces(  30)            : -0.234714E-02 -0.513483E-02  0.120673E-02
  atom #   31
   Hellmann-Feynman              : -0.984311E-02 -0.609116E-01  0.834735E-02
   Ionic forces                  :  0.000000E+00  0.000000E+00  0.000000E+00
   Multipole                     :  0.108063E-01  0.297710E-02  0.300112E-01
   Pulay + GGA                   :  0.409167E-02  0.498856E-01 -0.496226E-01
   MBD@rsSCS                     :  0.146363E-01 -0.516358E-02 -0.826804E-02
   ----------------------------------------------------------------
   Total forces(  31)            :  0.196911E-01 -0.132125E-01 -0.195321E-01
  atom #   32
   Hellmann-Feynman              : -0.219158E-01 -0.602222E-01 -0.258322E-01
   Ionic forces                  :  0.000000E+00  0.000000E+00  0.000000E+00
   Multipole                     : -0.169431E-01  0.354329E-02 -0.207308E-01
   Pulay + GGA                   :  0.315177E-01  0.520625E-01  0.465748E-01
   MBD@rsSCS                     :  0.197875E-01 -0.337849E-02 -0.533700E-02
   ----------------------------------------------------------------
   Total forces(  32)            :  0.124463E-01 -0.799484E-02 -0.532517E-02

  Removing unitary transformations (pure translations, rotations) from forces on atoms.
  Atomic forces before filtering:
  | Net force on center of mass :  -0.684929E-03  0.317367E-03  0.129773E-03 eV/A
  | Net torque on center of mass:   0.458804E-02  0.587267E-03  0.227850E-02 eV
  Atomic forces after filtering:
  | Net force on center of mass :   0.125442E-16  0.278760E-17  0.557519E-17 eV/A
  | Net torque on center of mass:   0.737566E-17 -0.383534E-16  0.663809E-17 eV

  Energy and forces in a compact form:
  | Total energy uncorrected      :         -0.202086170147766E+05 eV
  | Total energy corrected        :         -0.202086170147766E+05 eV  <-- do not rely on this value for anything but (periodic) metals
  | Electronic free energy        :         -0.202086170147766E+05 eV
  Total atomic forces (unitary forces cleaned) [eV/Ang]:
  |   1         -0.133748788748984E-01          0.883682942936239E-02          0.150012873401788E-01
  |   2         -0.212343029912962E-01          0.518648540204700E-02          0.439479808353469E-03
  |   3         -0.166296743295785E-03         -0.278484467886860E-02         -0.764265164842202E-02
  |   4          0.768056800388921E-02         -0.582204394663156E-03          0.414627118037521E-02
  |   5         -0.229763511032241E-01          0.182117831715147E-01          0.248100704551054E-01
  |   6         -0.139036016904085E-01         -0.220166700734085E-02          0.128160486654366E-01
  |   7         -0.490105776728013E-02         -0.264085692625518E-02         -0.247008339940144E-01
  |   8          0.115818591556669E-01         -0.379219780382341E-02         -0.219304479073344E-01
  |   9          0.123162309967505E-01         -0.100212665315334E-03         -0.390304921048669E-01
  |  10          0.999074823586048E-02          0.458649285396879E-02         -0.135245385440398E-01
  |  11          0.307262182756319E-03          0.386127100478312E-02          0.431969626422866E-02
  |  12         -0.821150066652367E-03          0.382668738869512E-02          0.442433588615818E-03
  |  13          0.699662233486603E-02         -0.192152284870027E-01         -0.778435140147547E-02
  |  14         -0.345686800721272E-02         -0.264956002543238E-01          0.224445942855551E-04
  |  15          0.182625208613748E-03         -0.662432807579292E-02          0.810723409080286E-02
  |  16         -0.528210527585837E-02         -0.221276717626969E-01         -0.218199408250612E-03
  |  17         -0.914326589400040E-02          0.121252055554182E-01          0.242963707287824E-01
  |  18         -0.124948361589163E-01          0.127483207665629E-02          0.169456976034339E-01
  |  19          0.145979928196697E-01          0.950363953464497E-02          0.759637155413217E-02
  |  20          0.147517571200612E-01          0.462501874205272E-02         -0.140617459824261E-01
  |  21          0.445964856395433E-02          0.851398162204878E-02         -0.567407803818416E-02
  |  22         -0.750861146303914E-02         -0.242250340563823E-02          0.852486452810700E-02
  |  23         -0.461802145023406E-02          0.539883935090730E-02          0.136874635994710E-01
  |  24         -0.101185031210875E-01          0.652972597244704E-02          0.293382185160158E-01
  |  25         -0.705200733620441E-02          0.917009921815749E-02          0.130621606939052E-02
  |  26         -0.138612833204478E-01          0.181115786472033E-02          0.141047980804861E-01
  |  27          0.244708312621821E-01          0.144449136025526E-01         -0.948921302349583E-02
  |  28          0.195302517783154E-01         -0.561626117542199E-02         -0.191013547575062E-01
  |  29         -0.580975905990612E-02          0.283931127250118E-02          0.106198263216388E-02
  |  30         -0.233099789652842E-02         -0.504507905417787E-02          0.115693843461912E-02
  |  31          0.197251746906957E-01         -0.131836234207221E-01         -0.195966784940895E-01
  |  32          0.124623258672092E-01         -0.791399495043489E-02         -0.536930242987897E-02

  ------------------------------------ 
  Start decomposition of the XC Energy 
  ------------------------------------ 
  Hartree-Fock part   :          0.000000000 Ha              0.000000000 eV
  ------------------------------------ 
  X Energy            :        -96.978426338 Ha          -2638.917247278 eV
  C Energy GGA        :         -3.869620426 Ha           -105.297729271 eV
  Total XC Energy     :       -100.848046763 Ha          -2744.214976549 eV
  LDA X and C from self-consistent density 
  X Energy LDA        :        -87.996865710 Ha          -2394.516547631 eV
  C Energy LDA        :         -7.531882603 Ha           -204.952953517 eV
  ------------------------------------ 
  End decomposition of the XC Energy 
  ------------------------------------ 
   
  ESP charge fitting starts.
  | Calculation :  00000001  of  00000001
  | Full density
  Computing multipole expansion for total density.
  Generating points for esp charges.
  Partitioning the integration grid into batches with parallel hashing+maxmin method.
  | Number of batches:     3859
  | Maximal batch size:     199
  | Minimal batch size:      92
  | Average batch size:     126.342
  | Standard deviation of batch sizes:      18.865

  Integration load balanced across    32 MPI tasks.
  Work distribution over tasks is as follows:
  Initializing partition tables, free-atom densities, potentials, etc. across the integration grid (initialize_grid_storage).
  | Original list of interatomic distances with          32 x         32 entries is created.
  | Net number of integration points:   487554
  | of which are non-zero points    :   487554
  Summing up potential from multipole expanded  density.
  Summing up the Hartree potential.
  Time summed over all CPUs for potential: real work        6.359 s, elapsed        6.572 s
  Fitting esp charges to potential.
  |
  | ESP charges fitted to the electrostatic potential :
  |
  | Atom         1: C, ESP charge:     -0.08211282
  |
  | Atom         2: C, ESP charge:     -0.53084482
  |
  | Atom         3: O, ESP charge:      0.54531441
  |
  | Atom         4: H, ESP charge:     -0.01799367
  |
  | Atom         5: H, ESP charge:      0.03522429
  |
  | Atom         6: H, ESP charge:     -0.00528197
  |
  | Atom         7: N, ESP charge:      0.45494857
  |
  | Atom         8: C, ESP charge:      0.16905233
  |
  | Atom         9: C, ESP charge:      0.11361746
  |
  | Atom        10: O, ESP charge:      0.29886948
  |
  | Atom        11: H, ESP charge:     -0.32652686
  |
  | Atom        12: H, ESP charge:     -0.28001023
  |
  | Atom        13: C, ESP charge:      0.61902362
  |
  | Atom        14: H, ESP charge:     -0.20904237
  |
  | Atom        15: H, ESP charge:     -0.21914974
  |
  | Atom        16: H, ESP charge:     -0.15804524
  |
  | Atom        17: N, ESP charge:     -0.38149591
  |
  | Atom        18: C, ESP charge:     -0.45198135
  |
  | Atom        19: C, ESP charge:     -0.22285968
  |
  | Atom        20: O, ESP charge:      0.45863732
  |
  | Atom        21: H, ESP charge:     -0.01706576
  |
  | Atom        22: H, ESP charge:     -0.00322934
  |
  | Atom        23: C, ESP charge:      0.88790789
  |
  | Atom        24: H, ESP charge:     -0.28146932
  |
  | Atom        25: H, ESP charge:     -0.15683257
  |
  | Atom        26: H, ESP charge:     -0.24662881
  |
  | Atom        27: N, ESP charge:      0.49709936
  |
  | Atom        28: C, ESP charge:     -0.22864085
  |
  | Atom        29: H, ESP charge:     -0.34547113
  |
  | Atom        30: H, ESP charge:     -0.02712181
  |
  | Atom        31: H, ESP charge:      0.06801713
  |
  | Atom        32: H, ESP charge:      0.04409238

  RRMS:       0.00217965

  Done.

------------------------------------------------------------------------------
  Final output of selected total energy values:

  The following output summarizes some interesting total energy values
  at the end of a run (AFTER all relaxation, molecular dynamics, etc.).

  | Total energy of the DFT / Hartree-Fock s.c.f. calculation      :         -20208.617014777 eV
  | Final zero-broadening corrected energy (caution - metals only) :         -20208.617014777 eV
  | For reference only, the value of 1 Hartree used in FHI-aims is :             27.211384500 eV

  Before relying on these values, please be sure to understand exactly which
  total energy value is referred to by a given number. Different objects may
  all carry the same name 'total energy'. Definitions:

  Total energy of the DFT / Hartree-Fock s.c.f. calculation:
  | Note that this energy does not include ANY quantities calculated after the
  | s.c.f. cycle, in particular not ANY RPA, MP2, etc. many-body perturbation terms.

  Final zero-broadening corrected energy:
  | For metallic systems only, a broadening of the occupation numbers at the Fermi
  | level can be extrapolated back to zero broadening by an electron-gas inspired
  | formula. For all systems that are not real metals, this value can be
  | meaningless and should be avoided.

------------------------------------------------------------------------------
  Methods described in the following list of references were used in this FHI-aims run.
  If you publish the results, please make sure to cite these reference if they apply.
  FHI-aims is an academic code, and for our developers (often, Ph.D. students
  and postdocs), scientific credit in the community is essential.
  Thank you for helping us!

  For any use of FHI-aims, please cite:

    Volker Blum, Ralf Gehrke, Felix Hanke, Paula Havu, Ville Havu,
    Xinguo Ren, Karsten Reuter, and Matthias Scheffler
    'Ab initio molecular simulations with numeric atom-centered orbitals'
    Computer Physics Communications 180, 2175-2196 (2009)
    http://dx.doi.org/10.1016/j.cpc.2009.06.022


  The scalable eigensolver library ELPA was used in your run.
  ELPA is essential especially for large systems on hundreds or thousands of CPUs.
  For ELPA, please cite:

    Andreas Marek, Volker Blum, Rainer Johanni, Ville Havu, Bruno Lang,
    Thomas Auckenthaler, Alexander Heinecke, Hans-Joachim Bungartz, and Hermann Lederer,
    'The ELPA Library - Scalable Parallel Eigenvalue Solutions
    for Electronic Structure Theory and Computational Science'
    The Journal of Physics: Condensed Matter 26, 213201 (2014).
    http://dx.doi.org/10.1088/0953-8984/26/21/213201


  For ELPA's efficient two-stage tridiagonalization used in your run, please cite:

    T. Auckenthaler, V. Blum, H.-J. Bungartz, T. Huckle, R. Johanni, L. Kraemer,
    B. Lang, H. Lederer, and P. R. Willems,
    'Parallel solution of partial symmetric eigenvalue problems'
    'from  electronic structure calculations'
    Parallel Computing 37, 783-794 (2011).
    http://dx.doi.org/10.1016/j.parco.2011.05.002


  For the real-space grid partitioning and parallelization used in this calculation, please cite:

    Ville Havu, Volker Blum, Paula Havu, and Matthias Scheffler,
    'Efficient O(N) integration for all-electron electronic structure calculation'
    'using numerically tabulated basis functions'
    Journal of Computational Physics 228, 8367-8379 (2009).
    http://dx.doi.org/10.1016/j.jcp.2009.08.008

  Of course, there are many other important community references, e.g., those cited in the
  above references. Our list is limited to references that describe implementations in the
  FHI-aims code. The reason is purely practical (length of this list) - please credit others as well.

------------------------------------------------------------
          Leaving FHI-aims.
          Date     :  20170309, Time     :  185932.203

          Computational steps:
          | Number of self-consistency cycles          :           14

          Detailed time accounting                     :  max(cpu_time)    wall_clock(cpu1)
          | Total time                                 :       36.538 s          36.729 s
          | Preparation time                           :        0.240 s           0.237 s
          | Grid partitioning                          :        0.280 s           0.273 s
          | Preloading free-atom quantities on grid    :        0.028 s           0.028 s
          | Free-atom superposition energy             :        0.040 s           0.040 s
          | Total time for integrations                :       11.781 s          11.778 s
          | Total time for solution of K.-S. equations :        0.528 s           0.495 s
          | Total time for density & force components  :       11.565 s          11.546 s
          | Total time for mixing                      :        0.128 s           0.103 s
          | Total time for Hartree multipole update    :        0.072 s           0.057 s
          | Total time for Hartree multipole sum       :        6.992 s           6.957 s
          | Total time for total energy evaluation     :        0.028 s           0.029 s

          Have a nice day.
------------------------------------------------------------
