  MPI-parallelism will be employed.
------------------------------------------------------------
          Invoking FHI-aims ...
          Version 150427
          Git rev.: 9dd23e0 BL: Update Version stamp
          Compiled on 2015/11/03 at 22:05:20 on host eos03.

          When using FHI-aims, please cite the following reference:

          Volker Blum, Ralf Gehrke, Felix Hanke, Paula Havu,
          Ville Havu, Xinguo Ren, Karsten Reuter, and Matthias Scheffler,
          'Ab Initio Molecular Simulations with Numeric Atom-Centered Orbitals: FHI-aims',
          Computer Physics Communications 180, 2175-2196 (2009)

          For any questions about FHI-aims, please visit the aimsclub website
          with its forums and wiki. Contributions to both the forums and the
          wiki are warmly encouraged - they are for you, and everyone is welcome there.

------------------------------------------------------------

  Date     :  20170309, Time     :  190225.478
  Time zero on CPU 1             :   0.268016000000000E+00  s.
  Internal wall clock time zero  :           258318145.478  s.

  Using       32 parallel tasks.
  Task        0 on host eos195 reporting.
  Task        1 on host eos195 reporting.
  Task        2 on host eos195 reporting.
  Task        3 on host eos195 reporting.
  Task        4 on host eos195 reporting.
  Task        5 on host eos195 reporting.
  Task        6 on host eos195 reporting.
  Task        7 on host eos195 reporting.
  Task        8 on host eos195 reporting.
  Task        9 on host eos195 reporting.
  Task       10 on host eos195 reporting.
  Task       11 on host eos195 reporting.
  Task       12 on host eos195 reporting.
  Task       13 on host eos195 reporting.
  Task       14 on host eos195 reporting.
  Task       15 on host eos195 reporting.
  Task       16 on host eos195 reporting.
  Task       17 on host eos195 reporting.
  Task       18 on host eos195 reporting.
  Task       19 on host eos195 reporting.
  Task       20 on host eos195 reporting.
  Task       21 on host eos195 reporting.
  Task       22 on host eos195 reporting.
  Task       23 on host eos195 reporting.
  Task       24 on host eos195 reporting.
  Task       25 on host eos195 reporting.
  Task       26 on host eos195 reporting.
  Task       27 on host eos195 reporting.
  Task       28 on host eos195 reporting.
  Task       29 on host eos195 reporting.
  Task       30 on host eos195 reporting.
  Task       31 on host eos195 reporting.

  Performing system and environment tests:
  | Environment variable OMP_NUM_THREADS correctly set to 1.
  | Stacksize not measured: no C compiler
  | Checking for scalapack...
  | Testing pdtran()...
  | All pdtran() tests passed.

  Obtaining array dimensions for all initial allocations:
  
  -----------------------------------------------------------------------
  Parsing control.in (first pass over file, find array dimensions only).
  The contents of control.in will be repeated verbatim below
  unless switched off by setting 'verbatim_writeout .false.' .
  in the first line of control.in .
  -----------------------------------------------------------------------
  
  #########################################################################################
  #
  # Input for System
  #
  #########################################################################################
  #
  #
  #  Physical model
  #
    xc                 pbe
    many_body_dispersion
    spin               none
    charge             0.
  #
  #  SCF convergence
  #
    occupation_type    gaussian 0.05
    mixer              pulay
      n_max_pulay        10
      charge_mix_param   0.5
    sc_accuracy_rho    1E-4
    sc_accuracy_eev    1E-2
    sc_accuracy_etot   1E-5
    sc_accuracy_forces 1E-4
    sc_iter_limit      1000
  #
  #  ESP charge
  #
    output esp
    esp equal_grid_n 80 80 80
  #
  #
  ################################################################################
  #
  #  FHI-aims code project
  # Volker Blum, Fritz Haber Institute Berlin, 2009
  #
  #  Suggested "tight" defaults for H atom (to be pasted into control.in file)
  #
  ################################################################################
    species        H
  #     global species definitions
      nucleus             1
      mass                1.00794
  #
      l_hartree           6
  #
      cut_pot             4.0  2.0  1.0
      basis_dep_cutoff    1e-4
  #
      radial_base         24 7.0
      radial_multiplier   2
      angular_grids       specified
        division   0.1930   50
        division   0.3175  110
        division   0.4293  194
        division   0.5066  302
        division   0.5626  434
  #      division   0.5922  590
  #      division   0.6227  974
  #      division   0.6868 1202
  #      outer_grid  770
        outer_grid  434
  ################################################################################
  #
  #  Definition of "minimal" basis
  #
  ################################################################################
  #     valence basis states
      valence      1  s   1.
  #     ion occupancy
      ion_occ      1  s   0.5
  ################################################################################
  #
  #  Suggested additional basis functions. For production calculations,
  #  uncomment them one after another (the most important basis functions are
  #  listed first).
  #
  #  Basis constructed for dimers: 0.5 A, 0.7 A, 1.0 A, 1.5 A, 2.5 A
  #
  ################################################################################
  #  "First tier" - improvements: -1014.90 meV to -62.69 meV
       hydro 2 s 2.1
       hydro 2 p 3.5
  #  "Second tier" - improvements: -12.89 meV to -1.83 meV
       hydro 1 s 0.85
       hydro 2 p 3.7
       hydro 2 s 1.2
       hydro 3 d 7
  #  "Third tier" - improvements: -0.25 meV to -0.12 meV
  #     hydro 4 f 11.2
  #     hydro 3 p 4.8
  #     hydro 4 d 9
  #     hydro 3 s 3.2
  ################################################################################
  #
  # For methods that use the localized form of the "resolution of identity" for
  # the two-electron Coulomb operator (RI_method LVL), particularly Hartree-Fock and
  # hybrid density functional calculations, the highest accuracy can be obtained by
  # uncommenting the line beginning with "for_aux"  below, thus adding an extra g radial
  # function to the construction of the product basis set for the expansion.
  # See Ref. New J. Phys. 17, 093020 (2015) for more information, particularly Figs. 1 and 6.
  #
  ################################################################################
  #
  # for_aux hydro 5 g 6.0
  ################################################################################
  #
  #  FHI-aims code project
  # Volker Blum, Fritz Haber Institute Berlin, 2009
  #
  #  Suggested "tight" defaults for C atom (to be pasted into control.in file)
  #
  ################################################################################
    species        C
  #     global species definitions
      nucleus             6
      mass                12.0107
  #
      l_hartree           6
  #
      cut_pot             4.0  2.0  1.0
      basis_dep_cutoff    1e-4
  #
      radial_base         34 7.0
      radial_multiplier   2
      angular_grids specified
        division   0.2187   50
        division   0.4416  110
        division   0.6335  194
        division   0.7727  302
        division   0.8772  434
  #      division   0.9334  590
  #      division   0.9924  770
  #      division   1.0230  974
  #      division   1.5020 1202
  #     outer_grid  974
        outer_grid  434
  ################################################################################
  #
  #  Definition of "minimal" basis
  #
  ################################################################################
  #     valence basis states
      valence      2  s   2.
      valence      2  p   2.
  #     ion occupancy
      ion_occ      2  s   1.
      ion_occ      2  p   1.
  ################################################################################
  #
  #  Suggested additional basis functions. For production calculations,
  #  uncomment them one after another (the most important basis functions are
  #  listed first).
  #
  #  Constructed for dimers: 1.0 A, 1.25 A, 1.5 A, 2.0 A, 3.0 A
  #
  ################################################################################
  #  "First tier" - improvements: -1214.57 meV to -155.61 meV
       hydro 2 p 1.7
       hydro 3 d 6
       hydro 2 s 4.9
  #  "Second tier" - improvements: -67.75 meV to -5.23 meV
       hydro 4 f 9.8
       hydro 3 p 5.2
       hydro 3 s 4.3
       hydro 5 g 14.4
       hydro 3 d 6.2
  #  "Third tier" - improvements: -2.43 meV to -0.60 meV
  #     hydro 2 p 5.6
  #     hydro 2 s 1.4
  #     hydro 3 d 4.9
  #     hydro 4 f 11.2
  #  "Fourth tier" - improvements: -0.39 meV to -0.18 meV
  #     hydro 2 p 2.1
  #     hydro 5 g 16.4
  #     hydro 4 d 13.2
  #     hydro 3 s 13.6
  #     hydro 4 f 17.6
  #  Further basis functions - improvements: -0.08 meV and below
  #     hydro 3 s 2
  #     hydro 3 p 6
  #     hydro 4 d 20
  ################################################################################
  #
  # For methods that use the localized form of the "resolution of identity" for
  # the two-electron Coulomb operator (RI_method LVL), particularly Hartree-Fock and
  # hybrid density functional calculations, the highest accuracy can be obtained by
  # uncommenting the line beginning with "for_aux"  below, thus adding an extra g radial
  # function to the construction of the product basis set for the expansion.
  # See Ref. New J. Phys. 17, 093020 (2015) for more information, particularly Figs. 1 and 6.
  #
  ################################################################################
  #
  # for_aux hydro 5 g 6.0
  ################################################################################
  #
  #  FHI-aims code project
  # Volker Blum, Fritz Haber Institute Berlin, 2009
  #
  #  Suggested "tight" defaults for N atom (to be pasted into control.in file)
  #
  ################################################################################
    species        N
  #     global species definitions
      nucleus             7
      mass                14.0067
  #
      l_hartree           6
  #
      cut_pot             4.0  2.0  1.0
      basis_dep_cutoff    1e-4
  #
      radial_base         35 7.0
      radial_multiplier   2
      angular_grids       specified
        division   0.1841   50
        division   0.3514  110
        division   0.5126  194
        division   0.6292  302
        division   0.6939  434
  #      division   0.7396  590
  #      division   0.7632  770
  #      division   0.8122  974
  #      division   1.1604 1202
  #      outer_grid  974
        outer_grid  434
  ################################################################################
  #
  #  Definition of "minimal" basis
  #
  ################################################################################
  #     valence basis states
      valence      2  s   2.
      valence      2  p   3.
  #     ion occupancy
      ion_occ      2  s   1.
      ion_occ      2  p   2.
  ################################################################################
  #
  #  Suggested additional basis functions. For production calculations,
  #  uncomment them one after another (the most important basis functions are
  #  listed first).
  #
  #  Constructed for dimers: 1.0 A, 1.1 A, 1.5 A, 2.0 A, 3.0 A
  #
  ################################################################################
  #  "First tier" - improvements: -1193.42 meV to -220.60 meV
       hydro 2 p 1.8
       hydro 3 d 6.8
       hydro 3 s 5.8
  #  "Second tier" - improvements: -80.21 meV to -6.86 meV
       hydro 4 f 10.8
       hydro 3 p 5.8
       hydro 1 s 0.8
       hydro 5 g 16
       hydro 3 d 4.9
  #  "Third tier" - improvements: -4.29 meV to -0.53 meV
  #     hydro 3 s 16
  #     ionic 2 p auto
  #     hydro 3 d 6.6
  #     hydro 4 f 11.6
  #  "Fourth tier" - improvements: -0.75 meV to -0.25 meV
  #     hydro 2 p 4.5
  #     hydro 2 s 2.4
  #     hydro 5 g 14.4
  #     hydro 4 d 14.4
  #     hydro 4 f 16.8
  # Further basis functions - -0.21 meV and below
  #     hydro 3 p 14.8
  #     hydro 3 s 4.4
  #     hydro 3 d 19.6
  #     hydro 5 g 12.8
  ################################################################################
  #
  # For methods that use the localized form of the "resolution of identity" for
  # the two-electron Coulomb operator (RI_method LVL), particularly Hartree-Fock and
  # hybrid density functional calculations, the highest accuracy can be obtained by
  # uncommenting the line beginning with "for_aux"  below, thus adding an extra g radial
  # function to the construction of the product basis set for the expansion.
  # See Ref. New J. Phys. 17, 093020 (2015) for more information, particularly Figs. 1 and 6.
  #
  ################################################################################
  #
  # for_aux hydro 5 g 6.0
  ################################################################################
  #
  #  FHI-aims code project
  # Volker Blum, Fritz Haber Institute Berlin, 2009
  #
  #  Suggested "tight" defaults for O atom (to be pasted into control.in file)
  #
  ################################################################################
    species        O
  #     global species definitions
      nucleus             8
      mass                15.9994
  #
      l_hartree           6
  #
      cut_pot             4.0  2.0  1.0
      basis_dep_cutoff    1e-4
  #
      radial_base         36 7.0
      radial_multiplier   2
       angular_grids specified
        division   0.1817   50
        division   0.3417  110
        division   0.4949  194
        division   0.6251  302
        division   0.8014  434
  #      division   0.8507  590
  #      division   0.8762  770
  #      division   0.9023  974
  #      division   1.2339 1202
  #      outer_grid 974
        outer_grid  434
  ################################################################################
  #
  #  Definition of "minimal" basis
  #
  ################################################################################
  #     valence basis states
      valence      2  s   2.
      valence      2  p   4.
  #     ion occupancy
      ion_occ      2  s   1.
      ion_occ      2  p   3.
  ################################################################################
  #
  #  Suggested additional basis functions. For production calculations,
  #  uncomment them one after another (the most important basis functions are
  #  listed first).
  #
  #  Constructed for dimers: 1.0 A, 1.208 A, 1.5 A, 2.0 A, 3.0 A
  #
  ################################################################################
  #  "First tier" - improvements: -699.05 meV to -159.38 meV
       hydro 2 p 1.8
       hydro 3 d 7.6
       hydro 3 s 6.4
  #  "Second tier" - improvements: -49.91 meV to -5.39 meV
       hydro 4 f 11.6
       hydro 3 p 6.2
       hydro 3 d 5.6
       hydro 5 g 17.6
       hydro 1 s 0.75
  #  "Third tier" - improvements: -2.83 meV to -0.50 meV
  #     ionic 2 p auto
  #     hydro 4 f 10.8
  #     hydro 4 d 4.7
  #     hydro 2 s 6.8
  #  "Fourth tier" - improvements: -0.40 meV to -0.12 meV
  #     hydro 3 p 5
  #     hydro 3 s 3.3
  #     hydro 5 g 15.6
  #     hydro 4 f 17.6
  #     hydro 4 d 14
  # Further basis functions - -0.08 meV and below
  #     hydro 3 s 2.1
  #     hydro 4 d 11.6
  #     hydro 3 p 16
  #     hydro 2 s 17.2
  ################################################################################
  #
  # For methods that use the localized form of the "resolution of identity" for
  # the two-electron Coulomb operator (RI_method LVL), particularly Hartree-Fock and
  # hybrid density functional calculations, the highest accuracy can be obtained by
  # uncommenting the line beginning with "for_aux"  below, thus adding an extra g radial
  # function to the construction of the product basis set for the expansion.
  # See Ref. New J. Phys. 17, 093020 (2015) for more information, particularly Figs. 1 and 6.
  #
  ################################################################################
  #
  # for_aux hydro 5 g 6.0
  
  -----------------------------------------------------------------------
  Completed first pass over input file control.in .
  -----------------------------------------------------------------------
  
  
  -----------------------------------------------------------------------
  Parsing geometry.in (first pass over file, find array dimensions only).
  The contents of geometry.in will be repeated verbatim below
  unless switched off by setting 'verbatim_writeout .false.' .
  in the first line of geometry.in .
  -----------------------------------------------------------------------
  
  #
  # This is the geometry file that corresponds to the current relaxation step.
  # If you do not want this file to be written, set the "write_restart_geometry" flag to .false.
  #
  atom      -0.59744505      1.19011491      0.79097532 C
  atom      -0.88788995      1.04738940      2.27195136 C
  atom      -0.39074923      1.79987428      3.10226227 O
  atom      -1.37859295      0.79586614      0.13250464 H
  atom       0.33386252      0.65186397      0.56270048 H
  atom      -0.43581024      2.25153389      0.57962108 H
  atom      -1.66972806     -0.02011860      2.69185871 N
  atom      -2.62167479     -0.82401469      1.91596182 C
  atom      -1.94490939     -1.71249628      0.83414315 C
  atom      -2.54488435     -2.01945007     -0.19515010 O
  atom      -1.83150444      0.02112370      3.69520771 H
  atom      -3.02165100     -1.55387332      2.63956971 H
  atom      -3.80946113     -0.03868163      1.35441428 C
  atom      -4.50280495     -0.71774607      0.84659627 H
  atom      -3.49400606      0.71917084      0.62707049 H
  atom      -4.33693041      0.46821279      2.17197391 H
  atom      -0.69919022     -2.13301930      1.17849473 N
  atom       0.20754044     -3.06824105      0.50206677 C
  atom       1.40346932     -2.36125627     -0.19454653 C
  atom       2.54044510     -2.59358801      0.21829447 O
  atom      -0.33546271     -1.71759397      2.03255140 H
  atom       0.72416470     -3.59427531      1.31611381 H
  atom      -0.46319966     -4.13678004     -0.36615506 C
  atom       0.30913645     -4.85010589     -0.68203610 H
  atom      -0.96055770     -3.73510244     -1.25211642 H
  atom      -1.21460012     -4.68181741      0.21891017 H
  atom       1.20049878     -1.48915538     -1.22499469 N
  atom       0.00877191     -1.19642391     -2.00531262 C
  atom       2.08300769     -1.13297152     -1.58409383 H
  atom      -0.89848872     -1.51820303     -1.48565213 H
  atom       0.03917659     -1.69743089     -2.98563047 H
  atom      -0.06696938     -0.11351181     -2.17402558 H
  
  -----------------------------------------------------------------------
  Completed first pass over input file geometry.in .
  -----------------------------------------------------------------------
  

  Basic array size parameters:
  | Number of species                 :        4
  | Number of atoms                   :       32
  | Max. basis fn. angular momentum   :        4
  | Max. atomic/ionic basis occupied n:        2
  | Max. number of basis fn. types    :        2
  | Max. radial fns per species/type  :        8
  | Max. logarithmic grid size        :     1301
  | Max. radial integration grid size :       73
  | Max. angular integration grid size:      434
  | Max. angular grid division number :        8
  | Radial grid for Hartree potential :     1301
  | Number of spin channels           :        1

------------------------------------------------------------
          Reading file control.in.
------------------------------------------------------------
  XC: Using PBE gradient-corrected functionals.
  Self-consistent screening and van der Waals energy (TS, TS+SCS,MBD) module
  Spin treatment: No spin polarisation.
  Charge =   0.000000E+00: Neutral system requested explicitly.
  Occupation type: Gaussian broadening, width =   0.500000E-01 eV.
  Using pulay charge density mixing.
  Pulay mixing - number of memorized iterations:   10
  Charge density mixing - mixing parameter:     0.5000
  Convergence accuracy of self-consistent charge density:  0.1000E-03
  Convergence accuracy of sum of eigenvalues:  0.1000E-01
  Convergence accuracy of total energy:  0.1000E-04
  Convergence accuracy of forces:  0.1000E-03
  Maximum number of s.-c. iterations  :  1000
  Fitting ESP-charges to Potential. 
  | Esp charge output options: 
  | ESP Grid method: 3, cubic grid
  | Number of points in x, ,y, z:  0080 0080 0080
  |
 
  Reading configuration options for species H                   .
  | Found nuclear charge :   1.0000
  | Found atomic mass :    1.00794000000000      amu
  | Found l_max for Hartree potential  :   6
  | Found cutoff potl. onset [A], width [A], scale factor :    4.00000    2.00000    1.00000
  | Threshold for basis-dependent cutoff potential is   0.100000E-03
  | Found data for basic radial integration grid :    24 points, outermost radius =    7.000 A
  | Found multiplier for basic radial grid :   2
  | Found angular grid specification: user-specified.
  | Specified grid contains     6 separate shells.
  | Check grid settings after all constraints further below.
  | Found free-atom valence shell :  1 s   1.000
  | No ionic wave fns used. Skipping ion_occ.
  | Found hydrogenic basis function :  2 s   2.100
  | Found hydrogenic basis function :  2 p   3.500
  | Found hydrogenic basis function :  1 s   0.850
  | Found hydrogenic basis function :  2 p   3.700
  | Found hydrogenic basis function :  2 s   1.200
  | Found hydrogenic basis function :  3 d   7.000
  Species H                   : Missing cutoff potential type.
  Defaulting to exp(1/x)/(1-x)^2 type cutoff potential.
  Species H : No 'logarithmic' tag. Using default grid for free atom:
  | Default logarithmic grid data [bohr] : 0.1000E-03 0.1000E+03 0.1012E+01
  Species H : On-site basis accuracy parameter (for Gram-Schmidt orthonormalisation) not specified.
  Using default value basis_acc =  0.1000000E-03.
  Species H                   : Using default innermost maximum threshold i_radial=  2 for radial functions.
  Species H                   : Default cutoff onset for free atom density etc. : 0.40000000E+01 AA.
  Species H                   : Basic radial grid will be enhanced according to radial_multiplier =   2, to contain    49 grid points.
 
  Reading configuration options for species C                   .
  | Found nuclear charge :   6.0000
  | Found atomic mass :    12.0107000000000      amu
  | Found l_max for Hartree potential  :   6
  | Found cutoff potl. onset [A], width [A], scale factor :    4.00000    2.00000    1.00000
  | Threshold for basis-dependent cutoff potential is   0.100000E-03
  | Found data for basic radial integration grid :    34 points, outermost radius =    7.000 A
  | Found multiplier for basic radial grid :   2
  | Found angular grid specification: user-specified.
  | Specified grid contains     6 separate shells.
  | Check grid settings after all constraints further below.
  | Found free-atom valence shell :  2 s   2.000
  | Found free-atom valence shell :  2 p   2.000
  | No ionic wave fns used. Skipping ion_occ.
  | No ionic wave fns used. Skipping ion_occ.
  | Found hydrogenic basis function :  2 p   1.700
  | Found hydrogenic basis function :  3 d   6.000
  | Found hydrogenic basis function :  2 s   4.900
  | Found hydrogenic basis function :  4 f   9.800
  | Found hydrogenic basis function :  3 p   5.200
  | Found hydrogenic basis function :  3 s   4.300
  | Found hydrogenic basis function :  5 g  14.400
  | Found hydrogenic basis function :  3 d   6.200
  Species C                   : Missing cutoff potential type.
  Defaulting to exp(1/x)/(1-x)^2 type cutoff potential.
  Species C : No 'logarithmic' tag. Using default grid for free atom:
  | Default logarithmic grid data [bohr] : 0.1000E-03 0.1000E+03 0.1012E+01
  Species C : On-site basis accuracy parameter (for Gram-Schmidt orthonormalisation) not specified.
  Using default value basis_acc =  0.1000000E-03.
  Species C                   : Using default innermost maximum threshold i_radial=  2 for radial functions.
  Species C                   : Default cutoff onset for free atom density etc. : 0.40000000E+01 AA.
  Species C                   : Basic radial grid will be enhanced according to radial_multiplier =   2, to contain    69 grid points.
 
  Reading configuration options for species N                   .
  | Found nuclear charge :   7.0000
  | Found atomic mass :    14.0067000000000      amu
  | Found l_max for Hartree potential  :   6
  | Found cutoff potl. onset [A], width [A], scale factor :    4.00000    2.00000    1.00000
  | Threshold for basis-dependent cutoff potential is   0.100000E-03
  | Found data for basic radial integration grid :    35 points, outermost radius =    7.000 A
  | Found multiplier for basic radial grid :   2
  | Found angular grid specification: user-specified.
  | Specified grid contains     6 separate shells.
  | Check grid settings after all constraints further below.
  | Found free-atom valence shell :  2 s   2.000
  | Found free-atom valence shell :  2 p   3.000
  | No ionic wave fns used. Skipping ion_occ.
  | No ionic wave fns used. Skipping ion_occ.
  | Found hydrogenic basis function :  2 p   1.800
  | Found hydrogenic basis function :  3 d   6.800
  | Found hydrogenic basis function :  3 s   5.800
  | Found hydrogenic basis function :  4 f  10.800
  | Found hydrogenic basis function :  3 p   5.800
  | Found hydrogenic basis function :  1 s   0.800
  | Found hydrogenic basis function :  5 g  16.000
  | Found hydrogenic basis function :  3 d   4.900
  Species N                   : Missing cutoff potential type.
  Defaulting to exp(1/x)/(1-x)^2 type cutoff potential.
  Species N : No 'logarithmic' tag. Using default grid for free atom:
  | Default logarithmic grid data [bohr] : 0.1000E-03 0.1000E+03 0.1012E+01
  Species N : On-site basis accuracy parameter (for Gram-Schmidt orthonormalisation) not specified.
  Using default value basis_acc =  0.1000000E-03.
  Species N                   : Using default innermost maximum threshold i_radial=  2 for radial functions.
  Species N                   : Default cutoff onset for free atom density etc. : 0.40000000E+01 AA.
  Species N                   : Basic radial grid will be enhanced according to radial_multiplier =   2, to contain    71 grid points.
 
  Reading configuration options for species O                   .
  | Found nuclear charge :   8.0000
  | Found atomic mass :    15.9994000000000      amu
  | Found l_max for Hartree potential  :   6
  | Found cutoff potl. onset [A], width [A], scale factor :    4.00000    2.00000    1.00000
  | Threshold for basis-dependent cutoff potential is   0.100000E-03
  | Found data for basic radial integration grid :    36 points, outermost radius =    7.000 A
  | Found multiplier for basic radial grid :   2
  | Found angular grid specification: user-specified.
  | Specified grid contains     6 separate shells.
  | Check grid settings after all constraints further below.
  | Found free-atom valence shell :  2 s   2.000
  | Found free-atom valence shell :  2 p   4.000
  | No ionic wave fns used. Skipping ion_occ.
  | No ionic wave fns used. Skipping ion_occ.
  | Found hydrogenic basis function :  2 p   1.800
  | Found hydrogenic basis function :  3 d   7.600
  | Found hydrogenic basis function :  3 s   6.400
  | Found hydrogenic basis function :  4 f  11.600
  | Found hydrogenic basis function :  3 p   6.200
  | Found hydrogenic basis function :  3 d   5.600
  | Found hydrogenic basis function :  5 g  17.600
  | Found hydrogenic basis function :  1 s   0.750
  Species O                   : Missing cutoff potential type.
  Defaulting to exp(1/x)/(1-x)^2 type cutoff potential.
  Species O : No 'logarithmic' tag. Using default grid for free atom:
  | Default logarithmic grid data [bohr] : 0.1000E-03 0.1000E+03 0.1012E+01
  Species O : On-site basis accuracy parameter (for Gram-Schmidt orthonormalisation) not specified.
  Using default value basis_acc =  0.1000000E-03.
  Species O                   : Using default innermost maximum threshold i_radial=  2 for radial functions.
  Species O                   : Default cutoff onset for free atom density etc. : 0.40000000E+01 AA.
  Species O                   : Basic radial grid will be enhanced according to radial_multiplier =   2, to contain    73 grid points.
 
  Finished reading input file 'control.in'. Consistency checks are next.
 
  Target number of points in a grid batch is not set. Defaulting to  100
  Method for grid partitioning is not set. Defaulting to parallel hash+maxmin partitioning.
  Batch size limit is not set. Defaulting to    200
  By default, will store active basis functions for each batch.
  If in need of memory, prune_basis_once .false. can be used to disable this option.
  communication_type for Hartree potential was not specified.
  Defaulting to calc_hartree .
  Pulay mixer: Number of initial linear mixing iterations not set.
  Defaulting to    0 iterations.
  Work space size for distributed Hartree potential not set.
  Defaulting to   0.200000E+03 MB.
  Algorithm-dependent basis array size parameters:
  | n_max_pulay                         :       10
  Geometry relaxation not requested: no relaxation will be performed.
  Handling of forces: Unphysical translation and rotation will be removed from forces.
  No accuracy limit for integral partition fn. given. Defaulting to  0.1000E-14.
  No threshold value for u(r) in integrations given. Defaulting to  0.1000E-05.
  No accuracy for occupation numbers given. Defaulting to  0.1000E-07.
  No threshold value for occupation numbers given. Defaulting to  0.0000E+00.
  No accuracy for fermi level given. Defaulting to  0.1000E-19.
  Maximum # of iterations to find E_F not set. Defaulting to  200.
  Preferred method for the eigenvalue solver ('KS_method') not specified in 'control.in'.
  Calling blacs routine to test compilation state
  Since scalapack support is enabled, defaulting to 'elpa'.
  Preferred method for the MBD eigenvalue solver ('mbd_eigensolver') not specified in 'control.in'.
  Calling blacs routine to test compilation state
  Since scalapack support is enabled, defaulting to 'scaLAPACK'.
  Will not use alltoall communication since running on < 1024 CPUs.
  Threshold for basis singularities not set.
  Default threshold for basis singularities:  0.1000E-04
  partition_type (choice of integration weights) for integrals was not specified.
  | Using a version of the partition function of Stratmann and coworkers ('stratmann_smoother').
  | At each grid point, the set of atoms used to build the partition table is smoothly restricted to
  | only those atoms whose free-atom density would be non-zero at that grid point.
  Partitioning for Hartree potential was not defined. Using partition_type for integrals.
  | Adjusted default value of keyword multip_moments_threshold to:       0.10000000E-11
  | This value may affect high angular momentum components of the Hartree potential in periodic systems.
  No q(lm)/r^(l+1) cutoff set for long-range Hartree potential.
  | Using default value of  0.100000E-09 .
  | Verify using the multipole_threshold keyword.
  Defaulting to new monopole extrapolation.
  Density update method: automatic selection selected.
------------------------------------------------------------


------------------------------------------------------------
          Reading geometry description geometry.in.
------------------------------------------------------------
 * Warning! You did not set the 'relativistic' flag in input file 'control.in'.
 * Since you are not attempting to treat any elements beyond Ca(Z=20), FHI-aims
 * will default to 'relativistic none'.
 * You must ensure that this is really what you want!!
 * For example, DO NOT compute total-energy differences between results from
 * different settings of the 'relativistic' flag.
  Input structure read successfully.
  The structure contains       32 atoms,  and a total of        116.000 electrons.

  Input geometry:
  | No unit cell requested.
  | Atomic structure:
  |       Atom                x [A]            y [A]            z [A]
  |    1: Species C             -0.597445         1.190115         0.790975
  |    2: Species C             -0.887890         1.047389         2.271951
  |    3: Species O             -0.390749         1.799874         3.102262
  |    4: Species H             -1.378593         0.795866         0.132505
  |    5: Species H              0.333863         0.651864         0.562700
  |    6: Species H             -0.435810         2.251534         0.579621
  |    7: Species N             -1.669728        -0.020119         2.691859
  |    8: Species C             -2.621675        -0.824015         1.915962
  |    9: Species C             -1.944909        -1.712496         0.834143
  |   10: Species O             -2.544884        -2.019450        -0.195150
  |   11: Species H             -1.831504         0.021124         3.695208
  |   12: Species H             -3.021651        -1.553873         2.639570
  |   13: Species C             -3.809461        -0.038682         1.354414
  |   14: Species H             -4.502805        -0.717746         0.846596
  |   15: Species H             -3.494006         0.719171         0.627070
  |   16: Species H             -4.336930         0.468213         2.171974
  |   17: Species N             -0.699190        -2.133019         1.178495
  |   18: Species C              0.207540        -3.068241         0.502067
  |   19: Species C              1.403469        -2.361256        -0.194547
  |   20: Species O              2.540445        -2.593588         0.218294
  |   21: Species H             -0.335463        -1.717594         2.032551
  |   22: Species H              0.724165        -3.594275         1.316114
  |   23: Species C             -0.463200        -4.136780        -0.366155
  |   24: Species H              0.309136        -4.850106        -0.682036
  |   25: Species H             -0.960558        -3.735102        -1.252116
  |   26: Species H             -1.214600        -4.681817         0.218910
  |   27: Species N              1.200499        -1.489155        -1.224995
  |   28: Species C              0.008772        -1.196424        -2.005313
  |   29: Species H              2.083008        -1.132972        -1.584094
  |   30: Species H             -0.898489        -1.518203        -1.485652
  |   31: Species H              0.039177        -1.697431        -2.985630
  |   32: Species H             -0.066969        -0.113512        -2.174026
  |

  | The smallest distance between any two atoms is         1.01699985 AA.
  |
  | The first atom of this pair is atom number                     17 .
  | The second atom of this pair is atom number                    21 .

  Number of empty states per atom not set in control.in - providing a guess from actual geometry.
  | Total number of empty states used during s.c.f. cycle:       71
  If you use a very high smearing, use empty_states (per atom!) in control.in to increase this value.

  Structure-dependent array size parameters: 
  | Maximum number of distinct radial functions  :       40
  | Maximum number of basis functions            :      840
  | Number of Kohn-Sham states (occupied + empty):      129
------------------------------------------------------------

------------------------------------------------------------
          Preparing all fixed parts of the calculation.
------------------------------------------------------------
  Determining machine precision:
    2.225073858507201E-308
  Setting up grids for atomic and cluster calculations.

  Creating wave function, potential, and density for free atoms.

  Species: H

  List of occupied orbitals and eigenvalues:
    n    l              occ      energy [Ha]    energy [eV]
    1    0           1.0000        -0.238382        -6.4867


  Species: C

  List of occupied orbitals and eigenvalues:
    n    l              occ      energy [Ha]    energy [eV]
    1    0           2.0000       -10.041232      -273.2358
    2    0           2.0000        -0.504327       -13.7234
    2    1           2.0000        -0.193750        -5.2722


  Species: N

  List of occupied orbitals and eigenvalues:
    n    l              occ      energy [Ha]    energy [eV]
    1    0           2.0000       -14.129007      -384.4699
    2    0           2.0000        -0.681802       -18.5528
    2    1           3.0000        -0.260543        -7.0897


  Species: O

  List of occupied orbitals and eigenvalues:
    n    l              occ      energy [Ha]    energy [eV]
    1    0           2.0000       -18.898576      -514.2564
    2    0           2.0000        -0.878795       -23.9132
    2    1           4.0000        -0.332075        -9.0362

  Creating fixed part of basis set: Ionic, confined, hydrogenic.
 
  H                    hydrogenic:
 
  List of hydrogenic basis orbitals: 
    n    l      effective z      eigenvalue [eV]  inner max. [A]     outer max. [A]     outer radius [A]   
    2    0         2.100000       -14.9965           0.193243           1.317208           5.373006
    2    1         3.500000       -41.6672           0.602369           0.602369           4.056063
    1    0         0.850000        -9.8292           0.624871           0.624871           5.373006
    2    1         3.700000       -46.5653           0.573622           0.573622           3.910002
    2    0         1.200000        -4.5995           0.334980           2.228188           5.505995
    3    2         7.000000       -74.0753           0.680699           0.680699           3.769201
 
 
  C                    hydrogenic:
 
  List of hydrogenic basis orbitals: 
    n    l      effective z      eigenvalue [eV]  inner max. [A]     outer max. [A]     outer radius [A]   
    2    1         1.700000        -9.8152           1.245706           1.245706           5.401630
    3    2         6.000000       -54.4226           0.792453           0.792453           4.178599
    2    0         4.900000       -81.6681           0.082559           0.562749           3.353238
    4    3         9.800000       -81.6681           0.863254           0.863254           4.028125
    3    1         5.200000       -40.8774           0.305389           1.215618           4.898362
    3    0         4.300000       -27.9508           0.091041           1.610311           5.401630
    5    4        14.400000      -112.8510           0.917666           0.917666           3.883070
    3    2         6.200000       -58.1113           0.763917           0.763917           4.077671
 
 
  N                    hydrogenic:
 
  List of hydrogenic basis orbitals: 
    n    l      effective z      eigenvalue [eV]  inner max. [A]     outer max. [A]     outer radius [A]   
    2    1         1.800000       -11.0118           1.177451           1.177451           5.427479
    3    2         6.800000       -69.9029           0.704619           0.704619           3.854246
    3    0         5.800000       -50.8549           0.067388           1.191934           4.629968
    4    3        10.800000       -99.1854           0.786571           0.786571           3.761152
    3    1         5.800000       -50.8549           0.274880           1.094176           4.518138
    1    0         0.800000        -8.7059           0.662839           0.662839           5.361532
    5    4        16.000000      -139.3222           0.825990           0.825990           3.625711
    3    2         4.900000       -36.2967           0.968267           0.968267           4.862000
 
 
  O                    hydrogenic:
 
  List of hydrogenic basis orbitals: 
    n    l      effective z      eigenvalue [eV]  inner max. [A]     outer max. [A]     outer radius [A]   
    2    1         1.800000       -11.0118           1.178562           1.178562           5.432602
    3    2         7.600000       -87.3182           0.624125           0.624125           3.541477
    3    0         6.400000       -61.9209           0.061167           1.081902           4.306578
    4    3        11.600000      -114.4238           0.731631           0.731631           3.585037
    3    1         6.200000       -58.1113           0.255680           1.030270           4.306578
    3    2         5.600000       -47.4081           0.847233           0.847233           4.413171
    5    4        17.600000      -168.5799           0.749740           0.749740           3.372465
    1    0         0.750000        -7.6499           0.705284           0.705284           5.366593
 

  Adding cutoff potential to free-atom effective potential.
  Creating atomic-like basis functions for current effective potential.

  Species H                   :

  List of atomic basis orbitals and eigenvalues:
    n    l      energy [Ha]    energy [eV]    outer radius [A]
    1    0        -0.238382        -6.4867       5.373006


  Species C                   :

  List of atomic basis orbitals and eigenvalues:
    n    l      energy [Ha]    energy [eV]    outer radius [A]
    1    0       -10.041232      -273.2358       1.934409
    2    0        -0.504327       -13.7234       5.271162
    2    1        -0.193750        -5.2722       5.401630


  Species N                   :

  List of atomic basis orbitals and eigenvalues:
    n    l      energy [Ha]    energy [eV]    outer radius [A]
    1    0       -14.129007      -384.4699       1.637919
    2    0        -0.681802       -18.5528       5.168461
    2    1        -0.260543        -7.0897       5.361532


  Species O                   :

  List of atomic basis orbitals and eigenvalues:
    n    l      energy [Ha]    energy [eV]    outer radius [A]
    1    0       -18.898576      -514.2564       1.415765
    2    0        -0.878795       -23.9132       5.048385
    2    1        -0.332075        -9.0362       5.301386

  Assembling full basis from fixed parts.
  | Species H :   atomic orbital   1 s accepted.
  | Species H :    hydro orbital   2 s accepted.
  | Species H :    hydro orbital   1 s accepted.
  | Species H :    hydro orbital   2 s accepted.
  | Species H :    hydro orbital   2 p accepted.
  | Species H :    hydro orbital   2 p accepted.
  | Species H :    hydro orbital   3 d accepted.
  | Species C :   atomic orbital   1 s accepted.
  | Species C :    hydro orbital   2 s accepted.
  | Species C :   atomic orbital   2 s accepted.
  | Species C :    hydro orbital   3 s accepted.
  | Species C :    hydro orbital   3 p accepted.
  | Species C :   atomic orbital   2 p accepted.
  | Species C :    hydro orbital   2 p accepted.
  | Species C :    hydro orbital   3 d accepted.
  | Species C :    hydro orbital   3 d accepted.
  | Species C :    hydro orbital   4 f accepted.
  | Species C :    hydro orbital   5 g accepted.
  | Species N :   atomic orbital   1 s accepted.
  | Species N :    hydro orbital   3 s accepted.
  | Species N :   atomic orbital   2 s accepted.
  | Species N :    hydro orbital   1 s accepted.
  | Species N :    hydro orbital   3 p accepted.
  | Species N :   atomic orbital   2 p accepted.
  | Species N :    hydro orbital   2 p accepted.
  | Species N :    hydro orbital   3 d accepted.
  | Species N :    hydro orbital   3 d accepted.
  | Species N :    hydro orbital   4 f accepted.
  | Species N :    hydro orbital   5 g accepted.
  | Species O :   atomic orbital   1 s accepted.
  | Species O :    hydro orbital   3 s accepted.
  | Species O :   atomic orbital   2 s accepted.
  | Species O :    hydro orbital   1 s accepted.
  | Species O :    hydro orbital   3 p accepted.
  | Species O :   atomic orbital   2 p accepted.
  | Species O :    hydro orbital   2 p accepted.
  | Species O :    hydro orbital   3 d accepted.
  | Species O :    hydro orbital   3 d accepted.
  | Species O :    hydro orbital   4 f accepted.
  | Species O :    hydro orbital   5 g accepted.
 
  Basis size parameters after reduction:
  | Total number of radial functions:       40
  | Total number of basis functions :      840
 
  Testing on-site integration grid accuracy.
  |  Species  Function  <phi|h_atom|phi> (log., in eV)  <phi|h_atom|phi> (rad., in eV)
           1        1                 -6.4869821809                 -6.4870742227
           1        2                 13.5044133542                 13.5041049177
           1        3                 32.7854418792                 32.7779770519
           1        4                 33.7995553101                 33.7152624900 ***
           1        5                 28.8558651799                 28.8558652046
           1        6                 59.6361831893                 59.6362535845
           1        7                 60.2733718049                 60.2733715484
           2        8               -273.2358277112               -273.2358261765
           2        9                -10.7624923123                -10.7625144012
           2       10                 17.4634079027                 17.4634252127
           2       11                 53.0363661832                 53.0366180446
           2       12                 15.0981351967                 15.0981317714
           2       13                  3.8522181899                  3.8522770949
           2       14                 12.1181835661                 12.1206868578
           2       15                 29.4320778347                 29.4320780959
           2       16                 54.8753777694                 54.8752901936
           2       17                 59.3533975461                 59.3533974833
           2       18                 93.4537491195                 93.4537492066
           3       19               -384.4698526889               -384.4698499465
           3       20                 12.5691022037                 12.5690910168
           3       21                -15.7489097511                -15.7489165588
           3       22                 27.0978334940                 27.0985589490
           3       23                 18.5949116966                 18.5949125562
           3       24                  1.2212828291                  1.2212855301
           3       25                 13.4428926797                 13.4434051125
           3       26                 35.9380614500                 35.9380613666
           3       27                 39.9231532098                 39.9231654735
           3       28                 72.9957335806                 72.9957336833
           3       29                116.4231321147                116.4231321431
           4       30               -514.2564144315               -514.2564099626
           4       31                 15.1726678541                 15.1726530877
           4       32                -21.5447785304                -21.5447874973
           4       33                 14.4944558459                 14.4944698284
           4       34                 20.8882174564                 20.8882178906
           4       35                 -2.4850315908                 -2.4850322289
           4       36                 13.8600193195                 13.8599826966
           4       37                 45.8243383616                 45.8243383675
           4       38                 52.1840606465                 52.1840622440
           4       39                 85.4074185510                 85.4074185819
           4       40                142.0983717302                142.0983717339
 * Note: Onsite integrals marked "***" above are less accurate than
 * onsite_accuracy_threshold =    0.03000 eV. Usually, this is harmless.
 * When in doubt, tighten the "radial" and/or "radial_multiplier" flags to check.

  Preparing densities etc. for the partition functions (integrals / Hartree potential).

  Preparations completed.
  max(cpu_time)          :      0.240 s.
  Wall clock time (cpu1) :      0.239 s.
------------------------------------------------------------

------------------------------------------------------------
          Begin self-consistency loop: Initialization.

          Date     :  20170309, Time     :  190226.526
------------------------------------------------------------

  Initializing index lists of integration centers etc. from given atomic structure:
  | Number of centers in hartree potential         :        32
  | Number of centers in hartree multipole         :        32
  | Number of centers in electron density summation:        32
  | Number of centers in basis integrals           :        32
  | Number of centers in integrals                 :        32
  | Number of centers in hamiltonian               :        32
  Using modified Scalapack Eigenvalue solver (ELPA)
  * Using 32 tasks for Scalapack Eigenvalue solver.
  Detailed listing of tasks and assigned k-points:
  (for non-periodic systems, the "k-point" denotes an internal label only)
   Task     0 k-point     1 on eos195
   Task     1 k-point     1 on eos195
   Task     2 k-point     1 on eos195
   Task     3 k-point     1 on eos195
   Task     4 k-point     1 on eos195
   Task     5 k-point     1 on eos195
   Task     6 k-point     1 on eos195
   Task     7 k-point     1 on eos195
   Task     8 k-point     1 on eos195
   Task     9 k-point     1 on eos195
   Task    10 k-point     1 on eos195
   Task    11 k-point     1 on eos195
   Task    12 k-point     1 on eos195
   Task    13 k-point     1 on eos195
   Task    14 k-point     1 on eos195
   Task    15 k-point     1 on eos195
   Task    16 k-point     1 on eos195
   Task    17 k-point     1 on eos195
   Task    18 k-point     1 on eos195
   Task    19 k-point     1 on eos195
   Task    20 k-point     1 on eos195
   Task    21 k-point     1 on eos195
   Task    22 k-point     1 on eos195
   Task    23 k-point     1 on eos195
   Task    24 k-point     1 on eos195
   Task    25 k-point     1 on eos195
   Task    26 k-point     1 on eos195
   Task    27 k-point     1 on eos195
   Task    28 k-point     1 on eos195
   Task    29 k-point     1 on eos195
   Task    30 k-point     1 on eos195
   Task    31 k-point     1 on eos195
  Tasks:    32 split into      8 X      4 BLACS grid
  Calculating blocksize based on n_basis =          840 max_nprow =            8 max_npcol =            4
  Scalapack blocksize set to:           16
  Required Scalapack workspace - INTEGER:            1 REAL:             1
  Partitioning the integration grid into batches with parallel hashing+maxmin method.
  | Number of batches:     5046
  | Maximal batch size:     200
  | Minimal batch size:      41
  | Average batch size:     104.583
  | Standard deviation of batch sizes:      34.011

  Integration load balanced across    32 MPI tasks.
  Work distribution over tasks is as follows:
  Task     0 has      16507 integration points.
  Task     1 has      16426 integration points.
  Task     2 has      16513 integration points.
  Task     3 has      16604 integration points.
  Task     4 has      16601 integration points.
  Task     5 has      16598 integration points.
  Task     6 has      16481 integration points.
  Task     7 has      16435 integration points.
  Task     8 has      16435 integration points.
  Task     9 has      16611 integration points.
  Task    10 has      16491 integration points.
  Task    11 has      16433 integration points.
  Task    12 has      16423 integration points.
  Task    13 has      16436 integration points.
  Task    14 has      16465 integration points.
  Task    15 has      16616 integration points.
  Task    16 has      16454 integration points.
  Task    17 has      16472 integration points.
  Task    18 has      16422 integration points.
  Task    19 has      16496 integration points.
  Task    20 has      16517 integration points.
  Task    21 has      16480 integration points.
  Task    22 has      16430 integration points.
  Task    23 has      16519 integration points.
  Task    24 has      16490 integration points.
  Task    25 has      16438 integration points.
  Task    26 has      16475 integration points.
  Task    27 has      16513 integration points.
  Task    28 has      16429 integration points.
  Task    29 has      16500 integration points.
  Task    30 has      16516 integration points.
  Task    31 has      16502 integration points.
  Initializing partition tables, free-atom densities, potentials, etc. across the integration grid (initialize_grid_storage).
  | initialize_grid_storage: Actual outermost partition radius vs. multipole_radius_free
  | (-- VB: in principle, multipole_radius_free should be larger, hence this output)
  | Species        1: Confinement radius =              6.000000000000000 AA, multipole_radius_free =              6.071692442739658 AA.
  | Species        1: outer_partition_radius set to              6.071692442739658 AA .
  | Species        2: Confinement radius =              6.000000000000000 AA, multipole_radius_free =              6.029870734432609 AA.
  | Species        2: outer_partition_radius set to              6.029870734432609 AA .
  | Species        3: Confinement radius =              6.000000000000000 AA, multipole_radius_free =              6.058726835495003 AA.
  | Species        3: outer_partition_radius set to              6.058726835495003 AA .
  | Species        4: Confinement radius =              6.000000000000000 AA, multipole_radius_free =              6.064445521808699 AA.
  | Species        4: outer_partition_radius set to              6.064445521808699 AA .
  | Original list of interatomic distances with          32 x         32 entries is created.
  | Net number of integration points:   527728
  | of which are non-zero points    :   412099
  Obtaining max. number of non-zero basis functions in each batch (get_n_compute_maxes).
  | Maximal number of non-zero basis functions:      803 in task     0
  | Maximal number of non-zero basis functions:      816 in task     1
  | Maximal number of non-zero basis functions:      810 in task     2
  | Maximal number of non-zero basis functions:      812 in task     3
  | Maximal number of non-zero basis functions:      806 in task     4
  | Maximal number of non-zero basis functions:      803 in task     5
  | Maximal number of non-zero basis functions:      813 in task     6
  | Maximal number of non-zero basis functions:      808 in task     7
  | Maximal number of non-zero basis functions:      798 in task     8
  | Maximal number of non-zero basis functions:      814 in task     9
  | Maximal number of non-zero basis functions:      791 in task    10
  | Maximal number of non-zero basis functions:      807 in task    11
  | Maximal number of non-zero basis functions:      820 in task    12
  | Maximal number of non-zero basis functions:      800 in task    13
  | Maximal number of non-zero basis functions:      807 in task    14
  | Maximal number of non-zero basis functions:      801 in task    15
  | Maximal number of non-zero basis functions:      803 in task    16
  | Maximal number of non-zero basis functions:      814 in task    17
  | Maximal number of non-zero basis functions:      813 in task    18
  | Maximal number of non-zero basis functions:      797 in task    19
  | Maximal number of non-zero basis functions:      802 in task    20
  | Maximal number of non-zero basis functions:      816 in task    21
  | Maximal number of non-zero basis functions:      804 in task    22
  | Maximal number of non-zero basis functions:      805 in task    23
  | Maximal number of non-zero basis functions:      813 in task    24
  | Maximal number of non-zero basis functions:      804 in task    25
  | Maximal number of non-zero basis functions:      820 in task    26
  | Maximal number of non-zero basis functions:      802 in task    27
  | Maximal number of non-zero basis functions:      807 in task    28
  | Maximal number of non-zero basis functions:      810 in task    29
  | Maximal number of non-zero basis functions:      813 in task    30
  | Maximal number of non-zero basis functions:      808 in task    31
  Selecting the method for density update.
  Loop over occupied states selected for charge density update.
  Integrating Hamiltonian matrix: batch-based integration.
  Time summed over all CPUs for integration: real work       24.080 s, elapsed       25.169 s
  Integrating overlap matrix.
  Time summed over all CPUs for integration: real work       14.902 s, elapsed       15.537 s
  Deallocating overlap matrix.

  Updating Kohn-Sham eigenvalues, eigenvectors, occupation numbers, and Fermi level.
  Solving generalized eigenproblem
  Solving real symmetric generalised eigenvalue problem by standard ScaLAPACK.
  Transforming overlap matrix with ScaLAPACK and checking for singularities.
  : Overlap matrix is nonsingular, using Cholesky decomposition
  | Lowest eigenvalue:  0.914171E-04
  Factoring overlap matrix with Cholesky decomposition
  Using Cholesky factor for transformation
  Using 1-stage real ELPA solver
  Determining occupation numbers for Kohn-Sham eigenstates.
  | Chemical potential (Fermi level) in eV                 : -.95312732E+01
  | Error in electron count due to remaining E_F inaccuracy: 0.00000000E+00
  | Maximum occupation number of highest empty state:  0.00E+00

  Writing Kohn-Sham eigenvalues.

  State    Occupation    Eigenvalue [Ha]    Eigenvalue [eV]
      1       2.00000         -18.974853         -516.33202
      2       2.00000         -18.974794         -516.33042
      3       2.00000         -18.973422         -516.29307
      4       2.00000         -14.254455         -387.88345
      5       2.00000         -14.254412         -387.88228
      6       2.00000         -14.250145         -387.76617
      7       2.00000         -10.171431         -276.77872
      8       2.00000         -10.171394         -276.77770
      9       2.00000         -10.171323         -276.77578
     10       2.00000         -10.166505         -276.64468
     11       2.00000         -10.147047         -276.11520
     12       2.00000         -10.146912         -276.11153
     13       2.00000         -10.134852         -275.78335
     14       2.00000         -10.134254         -275.76709
     15       2.00000         -10.133059         -275.73455
     16       2.00000          -1.133431          -30.84224
     17       2.00000          -1.131498          -30.78962
     18       2.00000          -1.129063          -30.72338
     19       2.00000          -1.021118          -27.78603
     20       2.00000          -1.009244          -27.46291
     21       2.00000          -0.999825          -27.20661
     22       2.00000          -0.885509          -24.09593
     23       2.00000          -0.872626          -23.74537
     24       2.00000          -0.848830          -23.09784
     25       2.00000          -0.817455          -22.24408
     26       2.00000          -0.788113          -21.44564
     27       2.00000          -0.755432          -20.55634
     28       2.00000          -0.700910          -19.07273
     29       2.00000          -0.682150          -18.56226
     30       2.00000          -0.663552          -18.05618
     31       2.00000          -0.640659          -17.43322
     32       2.00000          -0.627559          -17.07674
     33       2.00000          -0.615889          -16.75918
     34       2.00000          -0.608270          -16.55186
     35       2.00000          -0.583153          -15.86841
     36       2.00000          -0.577880          -15.72491
     37       2.00000          -0.565730          -15.39430
     38       2.00000          -0.564729          -15.36707
     39       2.00000          -0.559396          -15.22194
     40       2.00000          -0.556303          -15.13778
     41       2.00000          -0.546593          -14.87355
     42       2.00000          -0.537560          -14.62776
     43       2.00000          -0.530418          -14.43341
     44       2.00000          -0.528490          -14.38093
     45       2.00000          -0.523394          -14.24227
     46       2.00000          -0.522743          -14.22457
     47       2.00000          -0.514389          -13.99724
     48       2.00000          -0.502883          -13.68413
     49       2.00000          -0.490169          -13.33817
     50       2.00000          -0.485813          -13.21963
     51       2.00000          -0.481742          -13.10887
     52       2.00000          -0.470941          -12.81496
     53       2.00000          -0.415814          -11.31487
     54       2.00000          -0.408308          -11.11063
     55       2.00000          -0.400811          -10.90663
     56       2.00000          -0.386229          -10.50982
     57       2.00000          -0.382681          -10.41327
     58       2.00000          -0.375797          -10.22595
     59       0.00000          -0.171161           -4.65752
     60       0.00000          -0.163220           -4.44144
     61       0.00000          -0.151825           -4.13136
     62       0.00000          -0.082583           -2.24720
     63       0.00000          -0.063104           -1.71716
     64       0.00000          -0.061289           -1.66775
     65       0.00000          -0.049500           -1.34697
     66       0.00000          -0.043910           -1.19486
     67       0.00000          -0.042754           -1.16339
     68       0.00000          -0.029161           -0.79352
     69       0.00000          -0.026182           -0.71244
     70       0.00000          -0.022801           -0.62043
     71       0.00000          -0.021535           -0.58599
     72       0.00000          -0.016283           -0.44308
     73       0.00000          -0.012941           -0.35213
     74       0.00000          -0.011834           -0.32201
     75       0.00000          -0.003891           -0.10587
     76       0.00000          -0.002373           -0.06457
     77       0.00000           0.001194            0.03249
     78       0.00000           0.003979            0.10827
     79       0.00000           0.007610            0.20708
     80       0.00000           0.018127            0.49326
     81       0.00000           0.024961            0.67924
     82       0.00000           0.027310            0.74315
     83       0.00000           0.038119            1.03727
     84       0.00000           0.038400            1.04491
     85       0.00000           0.041966            1.14195
     86       0.00000           0.050099            1.36326
     87       0.00000           0.057841            1.57393
     88       0.00000           0.063430            1.72602
     89       0.00000           0.069053            1.87903
     90       0.00000           0.073281            1.99408
     91       0.00000           0.077403            2.10624
     92       0.00000           0.084061            2.28741
     93       0.00000           0.087449            2.37962
     94       0.00000           0.092640            2.52088
     95       0.00000           0.097791            2.66104
     96       0.00000           0.105649            2.87484
     97       0.00000           0.114711            3.12143
     98       0.00000           0.115434            3.14113
     99       0.00000           0.123920            3.37203
    100       0.00000           0.127150            3.45994
    101       0.00000           0.130535            3.55203
    102       0.00000           0.134973            3.67280
    103       0.00000           0.141246            3.84351
    104       0.00000           0.143769            3.91215
    105       0.00000           0.144724            3.93814
    106       0.00000           0.149426            4.06608
    107       0.00000           0.152733            4.15608
    108       0.00000           0.159710            4.34594
    109       0.00000           0.167284            4.55202
    110       0.00000           0.169279            4.60632
    111       0.00000           0.176646            4.80679
    112       0.00000           0.181219            4.93122
    113       0.00000           0.186534            5.07585
    114       0.00000           0.190836            5.19292
    115       0.00000           0.199397            5.42586
    116       0.00000           0.203005            5.52404
    117       0.00000           0.204683            5.56972
    118       0.00000           0.210819            5.73667
    119       0.00000           0.215364            5.86036
    120       0.00000           0.220092            5.98901
    121       0.00000           0.224166            6.09987
    122       0.00000           0.231522            6.30002
    123       0.00000           0.236477            6.43487
    124       0.00000           0.240948            6.55653
    125       0.00000           0.249165            6.78013
    126       0.00000           0.251854            6.85330
    127       0.00000           0.253786            6.90586
    128       0.00000           0.265910            7.23579
    129       0.00000           0.271190            7.37945

  Highest occupied state (VBM) at    -10.22595428 eV
  | Occupation number:      2.00000000

  Lowest unoccupied state (CBM) at    -4.65751523 eV
  | Occupation number:      0.00000000

  Overall HOMO-LUMO gap:      5.56843906 eV.
  Calculating total energy contributions from superposition of free atom densities.

  Total energy components:
  | Sum of eigenvalues            :        -437.80391100 Ha      -11913.25055771 eV
  | XC energy correction          :         -98.82075762 Ha       -2689.04963210 eV
  | XC potential correction       :         127.02365902 Ha        3456.48962625 eV
  | Free-atom electrostatic energy:        -333.67053230 Ha       -9079.63715066 eV
  | Hartree energy correction     :           0.00000000 Ha           0.00000000 eV
  | MBD@rsSCS energy              :           0.00000000 Ha           0.00000000 eV
  | Entropy correction            :          -0.00000000 Ha          -0.00000000 eV
  | ---------------------------
  | Total energy                  :        -743.27154189 Ha      -20225.44771422 eV
  | Total energy, T -> 0          :        -743.27154189 Ha      -20225.44771422 eV  <-- do not rely on this value for anything but (periodic) metals
  | Electronic free energy        :        -743.27154189 Ha      -20225.44771422 eV

  Derived energy quantities:
  | Kinetic energy                :         735.15868329 Ha       20004.68559955 eV
  | Electrostatic energy          :       -1379.60946756 Ha      -37541.08368167 eV
  | Energy correction for multipole
  | error in Hartree potential    :           0.00000000 Ha           0.00000000 eV
  | Sum of eigenvalues per atom                           :        -372.28907993 eV
  | Total energy (T->0) per atom                          :        -632.04524107 eV  <-- do not rely on this value for anything but (periodic) metals
  | Electronic free energy per atom                       :        -632.04524107 eV
  Initialize hartree_potential_storage
  Max. number of atoms included in rho_multipole:           32

  End scf initialization - timings             :  max(cpu_time)    wall_clock(cpu1)
  | Time for scf. initialization               :        2.044 s           2.043 s
  | Boundary condition initialization          :        0.004 s           0.000 s
  | Integration                                :        1.296 s           1.294 s
  | Solution of K.-S. eqns.                    :        0.080 s           0.078 s
  | Grid partitioning                          :        0.296 s           0.296 s
  | Preloading free-atom quantities on grid    :        0.028 s           0.027 s
  | Free-atom superposition energy             :        0.044 s           0.041 s
  | Total energy evaluation                    :        0.000 s           0.001 s
------------------------------------------------------------

------------------------------------------------------------
          Begin self-consistency iteration #    1

  Date     :  20170309, Time     :  190228.569
------------------------------------------------------------
  Evaluating new KS density.
  Integration grid: deviation in total charge (<rho> - N_e) =   8.526513E-14
  Pulay mixing of updated and previous charge densities.

  Evaluating partitioned Hartree potential by multipole expansion.
  | Analytical far-field extrapolation by fixed multipoles:
  | Hartree multipole sum: apparent total charge =   0.441561E-05
  Summing up the Hartree potential.
  Time summed over all CPUs for potential: real work        9.639 s, elapsed        9.963 s
  | RMS charge density error from multipole expansion :   0.106126E-01

  Integrating Hamiltonian matrix: batch-based integration.
  Time summed over all CPUs for integration: real work       24.095 s, elapsed       25.053 s

  Updating Kohn-Sham eigenvalues, eigenvectors, occupation numbers, and Fermi level.
  Solving generalized eigenproblem
  Solving real symmetric generalised eigenvalue problem by standard ScaLAPACK.
  Using Cholesky factor for transformation
  Using 2-stage real ELPA solver
  K-Point:    1, Trafo times: 1-stage=     0.025 s, 2-stage=     0.020 s ==> Using 2-stage solver
  Determining occupation numbers for Kohn-Sham eigenstates.
  | Chemical potential (Fermi level) in eV                 : -.38559628E+01
  | Error in electron count due to remaining E_F inaccuracy: 0.00000000E+00
  | Maximum occupation number of highest empty state:  0.00E+00

  Writing Kohn-Sham eigenvalues.

  State    Occupation    Eigenvalue [Ha]    Eigenvalue [eV]
      1       2.00000         -18.632427         -507.01413
      2       2.00000         -18.616849         -506.59024
      3       2.00000         -18.614022         -506.51331
      4       2.00000         -14.007667         -381.16802
      5       2.00000         -14.001636         -381.00389
      6       2.00000         -13.985994         -380.57826
      7       2.00000         -10.067099         -273.93969
      8       2.00000         -10.060228         -273.75274
      9       2.00000         -10.054349         -273.59276
     10       2.00000          -9.977254         -271.49489
     11       2.00000          -9.967735         -271.23586
     12       2.00000          -9.889362         -269.10322
     13       2.00000          -9.851510         -268.07324
     14       2.00000          -9.835539         -267.63864
     15       2.00000          -9.834664         -267.61482
     16       2.00000          -0.974285          -26.51164
     17       2.00000          -0.963227          -26.21073
     18       2.00000          -0.959758          -26.11635
     19       2.00000          -0.884432          -24.06662
     20       2.00000          -0.866303          -23.57331
     21       2.00000          -0.855052          -23.26714
     22       2.00000          -0.745367          -20.28247
     23       2.00000          -0.722097          -19.64925
     24       2.00000          -0.701660          -19.09315
     25       2.00000          -0.670850          -18.25476
     26       2.00000          -0.644469          -17.53689
     27       2.00000          -0.618631          -16.83381
     28       2.00000          -0.580700          -15.80164
     29       2.00000          -0.562279          -15.30040
     30       2.00000          -0.539853          -14.69015
     31       2.00000          -0.515935          -14.03930
     32       2.00000          -0.499394          -13.58919
     33       2.00000          -0.474631          -12.91537
     34       2.00000          -0.465226          -12.65945
     35       2.00000          -0.445186          -12.11412
     36       2.00000          -0.437129          -11.89489
     37       2.00000          -0.435546          -11.85182
     38       2.00000          -0.429303          -11.68193
     39       2.00000          -0.408590          -11.11830
     40       2.00000          -0.406461          -11.06038
     41       2.00000          -0.394835          -10.74400
     42       2.00000          -0.392381          -10.67724
     43       2.00000          -0.384997          -10.47630
     44       2.00000          -0.382820          -10.41707
     45       2.00000          -0.372901          -10.14715
     46       2.00000          -0.371011          -10.09573
     47       2.00000          -0.365424           -9.94370
     48       2.00000          -0.355942           -9.68567
     49       2.00000          -0.354599           -9.64914
     50       2.00000          -0.344605           -9.37717
     51       2.00000          -0.342185           -9.31133
     52       2.00000          -0.335732           -9.13573
     53       2.00000          -0.255474           -6.95181
     54       2.00000          -0.248658           -6.76633
     55       2.00000          -0.229536           -6.24598
     56       2.00000          -0.220580           -6.00230
     57       2.00000          -0.212489           -5.78212
     58       2.00000          -0.207911           -5.65755
     59       0.00000          -0.065314           -1.77729
     60       0.00000          -0.054978           -1.49603
     61       0.00000          -0.045868           -1.24813
     62       0.00000          -0.035535           -0.96695
     63       0.00000          -0.023042           -0.62701
     64       0.00000          -0.013450           -0.36600
     65       0.00000          -0.003003           -0.08172
     66       0.00000          -0.001374           -0.03740
     67       0.00000           0.009032            0.24578
     68       0.00000           0.014305            0.38925
     69       0.00000           0.018651            0.50752
     70       0.00000           0.025289            0.68815
     71       0.00000           0.039500            1.07486
     72       0.00000           0.042683            1.16147
     73       0.00000           0.045349            1.23401
     74       0.00000           0.047410            1.29009
     75       0.00000           0.057897            1.57545
     76       0.00000           0.065379            1.77907
     77       0.00000           0.071027            1.93275
     78       0.00000           0.075858            2.06421
     79       0.00000           0.078897            2.14691
     80       0.00000           0.088892            2.41887
     81       0.00000           0.089728            2.44161
     82       0.00000           0.097453            2.65182
     83       0.00000           0.099684            2.71253
     84       0.00000           0.107970            2.93800
     85       0.00000           0.109968            2.99239
     86       0.00000           0.115245            3.13597
     87       0.00000           0.119138            3.24192
     88       0.00000           0.126407            3.43971
     89       0.00000           0.133473            3.63198
     90       0.00000           0.139963            3.80859
     91       0.00000           0.144252            3.92531
     92       0.00000           0.150685            4.10034
     93       0.00000           0.154790            4.21204
     94       0.00000           0.161299            4.38916
     95       0.00000           0.163841            4.45835
     96       0.00000           0.167158            4.54861
     97       0.00000           0.173100            4.71029
     98       0.00000           0.178614            4.86033
     99       0.00000           0.183860            5.00308
    100       0.00000           0.184704            5.02605
    101       0.00000           0.188575            5.13138
    102       0.00000           0.191560            5.21261
    103       0.00000           0.198044            5.38904
    104       0.00000           0.201110            5.47249
    105       0.00000           0.204692            5.56995
    106       0.00000           0.208114            5.66306
    107       0.00000           0.213425            5.80758
    108       0.00000           0.221429            6.02539
    109       0.00000           0.227358            6.18673
    110       0.00000           0.232953            6.33897
    111       0.00000           0.239503            6.51720
    112       0.00000           0.243800            6.63413
    113       0.00000           0.246665            6.71211
    114       0.00000           0.257521            7.00749
    115       0.00000           0.259588            7.06376
    116       0.00000           0.265928            7.23628
    117       0.00000           0.267762            7.28618
    118       0.00000           0.270273            7.35450
    119       0.00000           0.276952            7.53626
    120       0.00000           0.284686            7.74670
    121       0.00000           0.288011            7.83718
    122       0.00000           0.291051            7.91990
    123       0.00000           0.303328            8.25397
    124       0.00000           0.306634            8.34394
    125       0.00000           0.318512            8.66715
    126       0.00000           0.327841            8.92100
    127       0.00000           0.329262            8.95966
    128       0.00000           0.332463            9.04678
    129       0.00000           0.342190            9.31147

  Highest occupied state (VBM) at     -5.65755498 eV
  | Occupation number:      2.00000000

  Lowest unoccupied state (CBM) at    -1.77729190 eV
  | Occupation number:      0.00000000

  Overall HOMO-LUMO gap:      3.88026308 eV.

  Total energy components:
  | Sum of eigenvalues            :        -417.94955817 Ha      -11372.98612905 eV
  | XC energy correction          :        -100.74155643 Ha       -2741.31722701 eV
  | XC potential correction       :         129.51376630 Ha        3524.24889295 eV
  | Free-atom electrostatic energy:        -333.67053230 Ha       -9079.63715066 eV
  | Hartree energy correction     :         -19.85805945 Ha        -540.36529121 eV
  | MBD@rsSCS energy              :           0.00000000 Ha           0.00000000 eV
  | Entropy correction            :           0.00000000 Ha           0.00000000 eV
  | ---------------------------
  | Total energy                  :        -742.70594004 Ha      -20210.05690499 eV
  | Total energy, T -> 0          :        -742.70594004 Ha      -20210.05690499 eV  <-- do not rely on this value for anything but (periodic) metals
  | Electronic free energy        :        -742.70594004 Ha      -20210.05690499 eV

  Derived energy quantities:
  | Kinetic energy                :         743.97235319 Ha       20244.51776000 eV
  | Electrostatic energy          :       -1385.93673681 Ha      -37713.25743798 eV
  | Energy correction for multipole
  | error in Hartree potential    :          -0.04071291 Ha          -1.10785466 eV
  | Sum of eigenvalues per atom                           :        -355.40581653 eV
  | Total energy (T->0) per atom                          :        -631.56427828 eV  <-- do not rely on this value for anything but (periodic) metals
  | Electronic free energy per atom                       :        -631.56427828 eV

  Self-consistency convergence accuracy:
  | Change of charge density      :  0.9024E+00
  | Change of sum of eigenvalues  :  0.5403E+03 eV
  | Change of total energy        :  0.1539E+02 eV

  End self-consistency iteration #     1       :  max(cpu_time)    wall_clock(cpu1)
  | Time for this iteration                    :        1.672 s           1.672 s
[...]
   Multipole                     : -0.503787E+00  0.731838E-01 -0.189030E+00
   Pulay + GGA                   : -0.118572E+02  0.290520E+01 -0.485878E+01
   MBD@rsSCS                     : -0.201629E-01  0.206483E-03 -0.870416E-03
   ----------------------------------------------------------------
   Total forces(  20)            :  0.161600E-02 -0.277115E-02  0.146985E-02
  atom #   21
   Hellmann-Feynman              : -0.246991E-01 -0.118131E-02 -0.254369E-01
   Ionic forces                  :  0.000000E+00  0.000000E+00  0.000000E+00
   Multipole                     :  0.161496E-01 -0.209016E-01 -0.135104E-01
   Pulay + GGA                   :  0.883393E-02  0.246711E-01  0.491816E-01
   MBD@rsSCS                     :  0.651054E-03  0.869402E-02 -0.558248E-02
   ----------------------------------------------------------------
   Total forces(  21)            :  0.935511E-03  0.112822E-01  0.465180E-02
  atom #   22
   Hellmann-Feynman              :  0.398042E-02  0.164099E-01 -0.467667E-01
   Ionic forces                  :  0.000000E+00  0.000000E+00  0.000000E+00
   Multipole                     : -0.142681E-01  0.130471E-02 -0.883954E-02
   Pulay + GGA                   :  0.127500E-01 -0.277341E-01  0.569968E-01
   MBD@rsSCS                     : -0.509402E-02  0.177801E-02 -0.314543E-02
   ----------------------------------------------------------------
   Total forces(  22)            : -0.263171E-02 -0.824150E-02 -0.175486E-02
  atom #   23
   Hellmann-Feynman              : -0.709812E+00 -0.860215E+00 -0.951184E+00
   Ionic forces                  :  0.000000E+00  0.000000E+00  0.000000E+00
   Multipole                     :  0.210473E+00  0.161078E+00  0.288749E+00
   Pulay + GGA                   :  0.490697E+00  0.719183E+00  0.662107E+00
   MBD@rsSCS                     : -0.113253E-02  0.219372E-01 -0.287112E-02
   ----------------------------------------------------------------
   Total forces(  23)            : -0.977410E-02  0.419829E-01 -0.319861E-02
  atom #   24
   Hellmann-Feynman              :  0.249838E-02  0.384743E-01  0.446058E-01
   Ionic forces                  :  0.000000E+00  0.000000E+00  0.000000E+00
   Multipole                     : -0.351408E-01 -0.376138E-02 -0.221205E-01
   Pulay + GGA                   :  0.356136E-01 -0.403621E-01 -0.191414E-01
   MBD@rsSCS                     :  0.389888E-02  0.963852E-02  0.316475E-02
   ----------------------------------------------------------------
   Total forces(  24)            :  0.687007E-02  0.398933E-02  0.650859E-02
  atom #   25
   Hellmann-Feynman              : -0.594118E-02  0.782677E-02  0.444684E-01
   Ionic forces                  :  0.000000E+00  0.000000E+00  0.000000E+00
   Multipole                     :  0.983859E-02 -0.134207E-01  0.188665E-01
   Pulay + GGA                   : -0.305142E-02  0.187151E-01 -0.567340E-01
   MBD@rsSCS                     :  0.308386E-02  0.192811E-01  0.400593E-02
   ----------------------------------------------------------------
   Total forces(  25)            :  0.392986E-02  0.324023E-01  0.106069E-01
  atom #   26
   Hellmann-Feynman              :  0.307668E-01  0.444984E-01  0.155062E-02
   Ionic forces                  :  0.000000E+00  0.000000E+00  0.000000E+00
   Multipole                     :  0.621137E-02 -0.261570E-02 -0.346623E-01
   Pulay + GGA                   : -0.350243E-01 -0.414499E-01  0.384266E-01
   MBD@rsSCS                     : -0.175335E-03  0.123973E-01  0.484045E-02
   ----------------------------------------------------------------
   Total forces(  26)            :  0.177851E-02  0.128301E-01  0.101554E-01
  atom #   27
   Hellmann-Feynman              :  0.942932E+00  0.734294E+00  0.155089E+01
   Ionic forces                  :  0.000000E+00  0.000000E+00  0.000000E+00
   Multipole                     :  0.472876E-01 -0.974024E-01  0.738230E-01
   Pulay + GGA                   : -0.982762E+00 -0.640729E+00 -0.163224E+01
   MBD@rsSCS                     : -0.237243E-01 -0.844059E-02  0.207721E-01
   ----------------------------------------------------------------
   Total forces(  27)            : -0.162664E-01 -0.122787E-01  0.132494E-01
  atom #   28
   Hellmann-Feynman              : -0.209655E+01  0.472272E+00 -0.115457E+01
   Ionic forces                  :  0.000000E+00  0.000000E+00  0.000000E+00
   Multipole                     :  0.198447E+00 -0.525879E-01  0.138343E+00
   Pulay + GGA                   :  0.189970E+01 -0.440557E+00  0.101064E+01
   MBD@rsSCS                     : -0.109167E-01 -0.735616E-02  0.351053E-01
   ----------------------------------------------------------------
   Total forces(  28)            : -0.932078E-02 -0.282289E-01  0.295169E-01
  atom #   29
   Hellmann-Feynman              : -0.112731E-01 -0.466667E-01  0.479230E-01
   Ionic forces                  :  0.000000E+00  0.000000E+00  0.000000E+00
   Multipole                     : -0.364677E-01  0.177334E-01 -0.265387E-01
   Pulay + GGA                   :  0.498758E-01  0.308881E-01 -0.310700E-01
   MBD@rsSCS                     : -0.786206E-02 -0.417442E-04  0.217522E-02
   ----------------------------------------------------------------
   Total forces(  29)            : -0.572712E-02  0.191304E-02 -0.751045E-02
  atom #   30
   Hellmann-Feynman              :  0.237941E-01 -0.721275E-02 -0.227791E-02
   Ionic forces                  :  0.000000E+00  0.000000E+00  0.000000E+00
   Multipole                     :  0.134083E-01  0.720180E-02 -0.317569E-01
   Pulay + GGA                   : -0.321704E-01 -0.209649E-01  0.385114E-01
   MBD@rsSCS                     :  0.476669E-02 -0.289341E-02  0.162177E-01
   ----------------------------------------------------------------
   Total forces(  30)            :  0.979868E-02 -0.238693E-01  0.206942E-01
  atom #   31
   Hellmann-Feynman              :  0.333543E-01  0.699198E-02  0.328226E-01
   Ionic forces                  :  0.000000E+00  0.000000E+00  0.000000E+00
   Multipole                     : -0.186250E-01  0.226162E-01  0.172057E-01
   Pulay + GGA                   : -0.753735E-02 -0.218589E-01 -0.604264E-01
   MBD@rsSCS                     :  0.143195E-02 -0.533974E-02  0.762745E-02
   ----------------------------------------------------------------
   Total forces(  31)            :  0.862392E-02  0.240946E-02 -0.277062E-02
  atom #   32
   Hellmann-Feynman              :  0.335867E-01 -0.396860E-01  0.321659E-02
   Ionic forces                  :  0.000000E+00  0.000000E+00  0.000000E+00
   Multipole                     : -0.198952E-01 -0.204228E-01 -0.599641E-02
   Pulay + GGA                   : -0.795528E-02  0.624937E-01 -0.130285E-01
   MBD@rsSCS                     : -0.826252E-03  0.338909E-02  0.133422E-01
   ----------------------------------------------------------------
   Total forces(  32)            :  0.491000E-02  0.577406E-02 -0.246610E-02

  Removing unitary transformations (pure translations, rotations) from forces on atoms.
  Atomic forces before filtering:
  | Net force on center of mass :  -0.359052E-03  0.231458E-03  0.557799E-04 eV/A
  | Net torque on center of mass:  -0.169178E-02  0.193259E-02 -0.582584E-03 eV
  Atomic forces after filtering:
  | Net force on center of mass :   0.627209E-17  0.257853E-16 -0.233461E-16 eV/A
  | Net torque on center of mass:   0.442540E-16 -0.331905E-17 -0.324529E-16 eV

  Energy and forces in a compact form:
  | Total energy uncorrected      :         -0.202087512130727E+05 eV
  | Total energy corrected        :         -0.202087512130727E+05 eV  <-- do not rely on this value for anything but (periodic) metals
  | Electronic free energy        :         -0.202087512130727E+05 eV
  Total atomic forces (unitary forces cleaned) [eV/Ang]:
  |   1         -0.312205909562279E-01         -0.192069059453092E-01          0.191002424604891E-01
  |   2         -0.137729662429550E-01         -0.278547637275606E-01         -0.106636058077564E-01
  |   3          0.185863473767788E-02         -0.902587501608269E-03         -0.967639208324099E-02
  |   4         -0.234883385412661E-01         -0.202198517871997E-01          0.106302045888419E-01
  |   5          0.612494896281795E-02         -0.681144592977596E-02          0.360714432897816E-02
  |   6          0.109310248971623E-02          0.563862161325960E-02          0.529141095277484E-02
  |   7         -0.475448094612179E-02          0.521062101824160E-02         -0.307192764504531E-01
  |   8          0.110989601700813E-01          0.148068828770196E-01         -0.605868261624300E-02
  |   9          0.246115147625757E-01          0.129975472962287E-01         -0.202183118626270E-01
  |  10          0.117251881503542E-01         -0.565530466283879E-02          0.927719651150611E-02
  |  11         -0.415814371273028E-02         -0.130611838461612E-02          0.353747647637344E-02
  |  12          0.491685135154937E-03          0.124025534438554E-02         -0.950349097284077E-02
  |  13          0.263710674569974E-01          0.330160007803818E-02         -0.335207729688713E-02
  |  14          0.142536992172132E-01         -0.110315785903518E-01          0.165031765073453E-02
  |  15          0.284575224427534E-01         -0.706001540758019E-02          0.585235076665956E-02
  |  16          0.706916136786276E-02         -0.516179268299361E-02          0.704578381509579E-02
  |  17         -0.156041821714365E-01          0.119302339531157E-01         -0.286074100284024E-01
  |  18         -0.137520100932856E-01          0.173339702112560E-01         -0.165636782092901E-01
  |  19         -0.214825673077499E-01         -0.451143269640008E-02         -0.976185494814705E-02
  |  20          0.162875547532825E-02         -0.278019745323996E-02          0.149752042188888E-02
  |  21          0.925738693476661E-03          0.112567722849479E-01          0.465166482412740E-02
  |  22         -0.263471706746760E-02         -0.826034805749811E-02         -0.176220793225449E-02
  |  23         -0.975584274477465E-02          0.419845733269624E-01         -0.322759497688314E-02
  |  24          0.689147184714311E-02          0.399351204422848E-02          0.648169939562947E-02
  |  25          0.396027439140224E-02          0.324146195547685E-01          0.105758752972087E-01
  |  26          0.178834958793828E-02          0.128262963934351E-01          0.101104172734794E-01
  |  27         -0.162331720831829E-01         -0.122696573313754E-01          0.132719334193005E-01
  |  28         -0.927696978282274E-02         -0.282094041392551E-01          0.295270899603324E-01
  |  29         -0.568873535902148E-02          0.192488360135217E-02         -0.747236027645876E-02
  |  30          0.983524109867682E-02         -0.238543976087644E-01          0.206889324248622E-01
  |  31          0.867987095656330E-02          0.243989063275210E-02         -0.276562097572581E-02
  |  32          0.495753006530885E-02          0.579552167637593E-02         -0.244469613107238E-02

  ------------------------------------ 
  Start decomposition of the XC Energy 
  ------------------------------------ 
  Hartree-Fock part   :          0.000000000 Ha              0.000000000 eV
  ------------------------------------ 
  X Energy            :        -96.981628499 Ha          -2639.004382524 eV
  C Energy GGA        :         -3.871171292 Ha           -105.339930500 eV
  Total XC Energy     :       -100.852799791 Ha          -2744.344313024 eV
  LDA X and C from self-consistent density 
  X Energy LDA        :        -88.001974992 Ha          -2394.655578279 eV
  C Energy LDA        :         -7.532696143 Ha           -204.975091065 eV
  ------------------------------------ 
  End decomposition of the XC Energy 
  ------------------------------------ 
   
  ESP charge fitting starts.
  | Calculation :  00000001  of  00000001
  | Full density
  Computing multipole expansion for total density.
  Generating points for esp charges.
  Partitioning the integration grid into batches with parallel hashing+maxmin method.
  | Number of batches:     3926
  | Maximal batch size:     200
  | Minimal batch size:      51
  | Average batch size:     124.415
  | Standard deviation of batch sizes:      16.330

  Integration load balanced across    32 MPI tasks.
  Work distribution over tasks is as follows:
  Initializing partition tables, free-atom densities, potentials, etc. across the integration grid (initialize_grid_storage).
  | Original list of interatomic distances with          32 x         32 entries is created.
  | Net number of integration points:   488453
  | of which are non-zero points    :   488453
  Summing up potential from multipole expanded  density.
  Summing up the Hartree potential.
  Time summed over all CPUs for potential: real work        6.344 s, elapsed        6.536 s
  Fitting esp charges to potential.
  |
  | ESP charges fitted to the electrostatic potential :
  |
  | Atom         1: C, ESP charge:      0.55798680
  |
  | Atom         2: C, ESP charge:     -0.75056816
  |
  | Atom         3: O, ESP charge:      0.54856646
  |
  | Atom         4: H, ESP charge:     -0.16651528
  |
  | Atom         5: H, ESP charge:     -0.14685329
  |
  | Atom         6: H, ESP charge:     -0.16162244
  |
  | Atom         7: N, ESP charge:      0.77365099
  |
  | Atom         8: C, ESP charge:     -0.53292038
  |
  | Atom         9: C, ESP charge:     -0.24596942
  |
  | Atom        10: O, ESP charge:      0.42739724
  |
  | Atom        11: H, ESP charge:     -0.33841116
  |
  | Atom        12: H, ESP charge:     -0.03481521
  |
  | Atom        13: C, ESP charge:      0.56446094
  |
  | Atom        14: H, ESP charge:     -0.14029630
  |
  | Atom        15: H, ESP charge:     -0.16173771
  |
  | Atom        16: H, ESP charge:     -0.14256038
  |
  | Atom        17: N, ESP charge:      0.62498437
  |
  | Atom        18: C, ESP charge:     -0.70627831
  |
  | Atom        19: C, ESP charge:     -0.24236402
  |
  | Atom        20: O, ESP charge:      0.51459379
  |
  | Atom        21: H, ESP charge:     -0.31666338
  |
  | Atom        22: H, ESP charge:      0.03327793
  |
  | Atom        23: C, ESP charge:      0.80583833
  |
  | Atom        24: H, ESP charge:     -0.18609405
  |
  | Atom        25: H, ESP charge:     -0.24550643
  |
  | Atom        26: H, ESP charge:     -0.21660733
  |
  | Atom        27: N, ESP charge:      0.24329041
  |
  | Atom        28: C, ESP charge:      0.03673438
  |
  | Atom        29: H, ESP charge:     -0.25677201
  |
  | Atom        30: H, ESP charge:     -0.03159086
  |
  | Atom        31: H, ESP charge:     -0.04779628
  |
  | Atom        32: H, ESP charge:     -0.05883922

  RRMS:       0.00556603

  Done.

------------------------------------------------------------------------------
  Final output of selected total energy values:

  The following output summarizes some interesting total energy values
  at the end of a run (AFTER all relaxation, molecular dynamics, etc.).

  | Total energy of the DFT / Hartree-Fock s.c.f. calculation      :         -20208.751213073 eV
  | Final zero-broadening corrected energy (caution - metals only) :         -20208.751213073 eV
  | For reference only, the value of 1 Hartree used in FHI-aims is :             27.211384500 eV

  Before relying on these values, please be sure to understand exactly which
  total energy value is referred to by a given number. Different objects may
  all carry the same name 'total energy'. Definitions:

  Total energy of the DFT / Hartree-Fock s.c.f. calculation:
  | Note that this energy does not include ANY quantities calculated after the
  | s.c.f. cycle, in particular not ANY RPA, MP2, etc. many-body perturbation terms.

  Final zero-broadening corrected energy:
  | For metallic systems only, a broadening of the occupation numbers at the Fermi
  | level can be extrapolated back to zero broadening by an electron-gas inspired
  | formula. For all systems that are not real metals, this value can be
  | meaningless and should be avoided.

------------------------------------------------------------------------------
  Methods described in the following list of references were used in this FHI-aims run.
  If you publish the results, please make sure to cite these reference if they apply.
  FHI-aims is an academic code, and for our developers (often, Ph.D. students
  and postdocs), scientific credit in the community is essential.
  Thank you for helping us!

  For any use of FHI-aims, please cite:

    Volker Blum, Ralf Gehrke, Felix Hanke, Paula Havu, Ville Havu,
    Xinguo Ren, Karsten Reuter, and Matthias Scheffler
    'Ab initio molecular simulations with numeric atom-centered orbitals'
    Computer Physics Communications 180, 2175-2196 (2009)
    http://dx.doi.org/10.1016/j.cpc.2009.06.022


  The scalable eigensolver library ELPA was used in your run.
  ELPA is essential especially for large systems on hundreds or thousands of CPUs.
  For ELPA, please cite:

    Andreas Marek, Volker Blum, Rainer Johanni, Ville Havu, Bruno Lang,
    Thomas Auckenthaler, Alexander Heinecke, Hans-Joachim Bungartz, and Hermann Lederer,
    'The ELPA Library - Scalable Parallel Eigenvalue Solutions
    for Electronic Structure Theory and Computational Science'
    The Journal of Physics: Condensed Matter 26, 213201 (2014).
    http://dx.doi.org/10.1088/0953-8984/26/21/213201


  For ELPA's efficient two-stage tridiagonalization used in your run, please cite:

    T. Auckenthaler, V. Blum, H.-J. Bungartz, T. Huckle, R. Johanni, L. Kraemer,
    B. Lang, H. Lederer, and P. R. Willems,
    'Parallel solution of partial symmetric eigenvalue problems'
    'from  electronic structure calculations'
    Parallel Computing 37, 783-794 (2011).
    http://dx.doi.org/10.1016/j.parco.2011.05.002


  For the real-space grid partitioning and parallelization used in this calculation, please cite:

    Ville Havu, Volker Blum, Paula Havu, and Matthias Scheffler,
    'Efficient O(N) integration for all-electron electronic structure calculation'
    'using numerically tabulated basis functions'
    Journal of Computational Physics 228, 8367-8379 (2009).
    http://dx.doi.org/10.1016/j.jcp.2009.08.008

  Of course, there are many other important community references, e.g., those cited in the
  above references. Our list is limited to references that describe implementations in the
  FHI-aims code. The reason is purely practical (length of this list) - please credit others as well.

------------------------------------------------------------
          Leaving FHI-aims.
          Date     :  20170309, Time     :  190301.110

          Computational steps:
          | Number of self-consistency cycles          :           14

          Detailed time accounting                     :  max(cpu_time)    wall_clock(cpu1)
          | Total time                                 :       35.338 s          35.632 s
          | Preparation time                           :        0.240 s           0.239 s
          | Grid partitioning                          :        0.296 s           0.296 s
          | Preloading free-atom quantities on grid    :        0.028 s           0.027 s
          | Free-atom superposition energy             :        0.044 s           0.041 s
          | Total time for integrations                :       12.449 s          12.432 s
          | Total time for solution of K.-S. equations :        0.532 s           0.500 s
          | Total time for density & force components  :       10.441 s          10.431 s
          | Total time for mixing                      :        0.128 s           0.104 s
          | Total time for Hartree multipole update    :        0.056 s           0.057 s
          | Total time for Hartree multipole sum       :        6.324 s           6.298 s
          | Total time for total energy evaluation     :        0.032 s           0.018 s

          Have a nice day.
------------------------------------------------------------
