  MPI-parallelism will be employed.
------------------------------------------------------------
          Invoking FHI-aims ...
          Version 150427
          Git rev.: 9dd23e0 BL: Update Version stamp
          Compiled on 2015/11/03 at 22:05:20 on host eos03.

          When using FHI-aims, please cite the following reference:

          Volker Blum, Ralf Gehrke, Felix Hanke, Paula Havu,
          Ville Havu, Xinguo Ren, Karsten Reuter, and Matthias Scheffler,
          'Ab Initio Molecular Simulations with Numeric Atom-Centered Orbitals: FHI-aims',
          Computer Physics Communications 180, 2175-2196 (2009)

          For any questions about FHI-aims, please visit the aimsclub website
          with its forums and wiki. Contributions to both the forums and the
          wiki are warmly encouraged - they are for you, and everyone is welcome there.

------------------------------------------------------------

  Date     :  20170309, Time     :  181610.446
  Time zero on CPU 1             :   0.320019000000000E+00  s.
  Internal wall clock time zero  :           258315370.446  s.

  Using       32 parallel tasks.
  Task        0 on host eos297 reporting.
  Task        1 on host eos297 reporting.
  Task        2 on host eos297 reporting.
  Task        3 on host eos297 reporting.
  Task        4 on host eos297 reporting.
  Task        5 on host eos297 reporting.
  Task        6 on host eos297 reporting.
  Task        7 on host eos297 reporting.
  Task        8 on host eos297 reporting.
  Task        9 on host eos297 reporting.
  Task       10 on host eos297 reporting.
  Task       11 on host eos297 reporting.
  Task       12 on host eos297 reporting.
  Task       13 on host eos297 reporting.
  Task       14 on host eos297 reporting.
  Task       15 on host eos297 reporting.
  Task       16 on host eos297 reporting.
  Task       17 on host eos297 reporting.
  Task       18 on host eos297 reporting.
  Task       19 on host eos297 reporting.
  Task       20 on host eos297 reporting.
  Task       21 on host eos297 reporting.
  Task       22 on host eos297 reporting.
  Task       23 on host eos297 reporting.
  Task       24 on host eos297 reporting.
  Task       25 on host eos297 reporting.
  Task       26 on host eos297 reporting.
  Task       27 on host eos297 reporting.
  Task       28 on host eos297 reporting.
  Task       29 on host eos297 reporting.
  Task       30 on host eos297 reporting.
  Task       31 on host eos297 reporting.

  Performing system and environment tests:
  | Environment variable OMP_NUM_THREADS correctly set to 1.
  | Stacksize not measured: no C compiler
  | Checking for scalapack...
  | Testing pdtran()...
  | All pdtran() tests passed.

  Obtaining array dimensions for all initial allocations:
  
  -----------------------------------------------------------------------
  Parsing control.in (first pass over file, find array dimensions only).
  The contents of control.in will be repeated verbatim below
  unless switched off by setting 'verbatim_writeout .false.' .
  in the first line of control.in .
  -----------------------------------------------------------------------
  
  #########################################################################################
  #
  # Input for System
  #
  #########################################################################################
  #
  #
  #  Physical model
  #
    xc                 pbe
    many_body_dispersion
    spin               none
    charge             0.
  #
  #  SCF convergence
  #
    occupation_type    gaussian 0.05
    mixer              pulay
      n_max_pulay        10
      charge_mix_param   0.5
    sc_accuracy_rho    1E-4
    sc_accuracy_eev    1E-2
    sc_accuracy_etot   1E-5
    sc_accuracy_forces 1E-4
    sc_iter_limit      1000
  #
  #  ESP charge
  #
    output esp
    esp equal_grid_n 80 80 80
  #
  #
  ################################################################################
  #
  #  FHI-aims code project
  # Volker Blum, Fritz Haber Institute Berlin, 2009
  #
  #  Suggested "tight" defaults for H atom (to be pasted into control.in file)
  #
  ################################################################################
    species        H
  #     global species definitions
      nucleus             1
      mass                1.00794
  #
      l_hartree           6
  #
      cut_pot             4.0  2.0  1.0
      basis_dep_cutoff    1e-4
  #
      radial_base         24 7.0
      radial_multiplier   2
      angular_grids       specified
        division   0.1930   50
        division   0.3175  110
        division   0.4293  194
        division   0.5066  302
        division   0.5626  434
  #      division   0.5922  590
  #      division   0.6227  974
  #      division   0.6868 1202
  #      outer_grid  770
        outer_grid  434
  ################################################################################
  #
  #  Definition of "minimal" basis
  #
  ################################################################################
  #     valence basis states
      valence      1  s   1.
  #     ion occupancy
      ion_occ      1  s   0.5
  ################################################################################
  #
  #  Suggested additional basis functions. For production calculations,
  #  uncomment them one after another (the most important basis functions are
  #  listed first).
  #
  #  Basis constructed for dimers: 0.5 A, 0.7 A, 1.0 A, 1.5 A, 2.5 A
  #
  ################################################################################
  #  "First tier" - improvements: -1014.90 meV to -62.69 meV
       hydro 2 s 2.1
       hydro 2 p 3.5
  #  "Second tier" - improvements: -12.89 meV to -1.83 meV
       hydro 1 s 0.85
       hydro 2 p 3.7
       hydro 2 s 1.2
       hydro 3 d 7
  #  "Third tier" - improvements: -0.25 meV to -0.12 meV
  #     hydro 4 f 11.2
  #     hydro 3 p 4.8
  #     hydro 4 d 9
  #     hydro 3 s 3.2
  ################################################################################
  #
  # For methods that use the localized form of the "resolution of identity" for
  # the two-electron Coulomb operator (RI_method LVL), particularly Hartree-Fock and
  # hybrid density functional calculations, the highest accuracy can be obtained by
  # uncommenting the line beginning with "for_aux"  below, thus adding an extra g radial
  # function to the construction of the product basis set for the expansion.
  # See Ref. New J. Phys. 17, 093020 (2015) for more information, particularly Figs. 1 and 6.
  #
  ################################################################################
  #
  # for_aux hydro 5 g 6.0
  ################################################################################
  #
  #  FHI-aims code project
  # Volker Blum, Fritz Haber Institute Berlin, 2009
  #
  #  Suggested "tight" defaults for C atom (to be pasted into control.in file)
  #
  ################################################################################
    species        C
  #     global species definitions
      nucleus             6
      mass                12.0107
  #
      l_hartree           6
  #
      cut_pot             4.0  2.0  1.0
      basis_dep_cutoff    1e-4
  #
      radial_base         34 7.0
      radial_multiplier   2
      angular_grids specified
        division   0.2187   50
        division   0.4416  110
        division   0.6335  194
        division   0.7727  302
        division   0.8772  434
  #      division   0.9334  590
  #      division   0.9924  770
  #      division   1.0230  974
  #      division   1.5020 1202
  #     outer_grid  974
        outer_grid  434
  ################################################################################
  #
  #  Definition of "minimal" basis
  #
  ################################################################################
  #     valence basis states
      valence      2  s   2.
      valence      2  p   2.
  #     ion occupancy
      ion_occ      2  s   1.
      ion_occ      2  p   1.
  ################################################################################
  #
  #  Suggested additional basis functions. For production calculations,
  #  uncomment them one after another (the most important basis functions are
  #  listed first).
  #
  #  Constructed for dimers: 1.0 A, 1.25 A, 1.5 A, 2.0 A, 3.0 A
  #
  ################################################################################
  #  "First tier" - improvements: -1214.57 meV to -155.61 meV
       hydro 2 p 1.7
       hydro 3 d 6
       hydro 2 s 4.9
  #  "Second tier" - improvements: -67.75 meV to -5.23 meV
       hydro 4 f 9.8
       hydro 3 p 5.2
       hydro 3 s 4.3
       hydro 5 g 14.4
       hydro 3 d 6.2
  #  "Third tier" - improvements: -2.43 meV to -0.60 meV
  #     hydro 2 p 5.6
  #     hydro 2 s 1.4
  #     hydro 3 d 4.9
  #     hydro 4 f 11.2
  #  "Fourth tier" - improvements: -0.39 meV to -0.18 meV
  #     hydro 2 p 2.1
  #     hydro 5 g 16.4
  #     hydro 4 d 13.2
  #     hydro 3 s 13.6
  #     hydro 4 f 17.6
  #  Further basis functions - improvements: -0.08 meV and below
  #     hydro 3 s 2
  #     hydro 3 p 6
  #     hydro 4 d 20
  ################################################################################
  #
  # For methods that use the localized form of the "resolution of identity" for
  # the two-electron Coulomb operator (RI_method LVL), particularly Hartree-Fock and
  # hybrid density functional calculations, the highest accuracy can be obtained by
  # uncommenting the line beginning with "for_aux"  below, thus adding an extra g radial
  # function to the construction of the product basis set for the expansion.
  # See Ref. New J. Phys. 17, 093020 (2015) for more information, particularly Figs. 1 and 6.
  #
  ################################################################################
  #
  # for_aux hydro 5 g 6.0
  ################################################################################
  #
  #  FHI-aims code project
  # Volker Blum, Fritz Haber Institute Berlin, 2009
  #
  #  Suggested "tight" defaults for N atom (to be pasted into control.in file)
  #
  ################################################################################
    species        N
  #     global species definitions
      nucleus             7
      mass                14.0067
  #
      l_hartree           6
  #
      cut_pot             4.0  2.0  1.0
      basis_dep_cutoff    1e-4
  #
      radial_base         35 7.0
      radial_multiplier   2
      angular_grids       specified
        division   0.1841   50
        division   0.3514  110
        division   0.5126  194
        division   0.6292  302
        division   0.6939  434
  #      division   0.7396  590
  #      division   0.7632  770
  #      division   0.8122  974
  #      division   1.1604 1202
  #      outer_grid  974
        outer_grid  434
  ################################################################################
  #
  #  Definition of "minimal" basis
  #
  ################################################################################
  #     valence basis states
      valence      2  s   2.
      valence      2  p   3.
  #     ion occupancy
      ion_occ      2  s   1.
      ion_occ      2  p   2.
  ################################################################################
  #
  #  Suggested additional basis functions. For production calculations,
  #  uncomment them one after another (the most important basis functions are
  #  listed first).
  #
  #  Constructed for dimers: 1.0 A, 1.1 A, 1.5 A, 2.0 A, 3.0 A
  #
  ################################################################################
  #  "First tier" - improvements: -1193.42 meV to -220.60 meV
       hydro 2 p 1.8
       hydro 3 d 6.8
       hydro 3 s 5.8
  #  "Second tier" - improvements: -80.21 meV to -6.86 meV
       hydro 4 f 10.8
       hydro 3 p 5.8
       hydro 1 s 0.8
       hydro 5 g 16
       hydro 3 d 4.9
  #  "Third tier" - improvements: -4.29 meV to -0.53 meV
  #     hydro 3 s 16
  #     ionic 2 p auto
  #     hydro 3 d 6.6
  #     hydro 4 f 11.6
  #  "Fourth tier" - improvements: -0.75 meV to -0.25 meV
  #     hydro 2 p 4.5
  #     hydro 2 s 2.4
  #     hydro 5 g 14.4
  #     hydro 4 d 14.4
  #     hydro 4 f 16.8
  # Further basis functions - -0.21 meV and below
  #     hydro 3 p 14.8
  #     hydro 3 s 4.4
  #     hydro 3 d 19.6
  #     hydro 5 g 12.8
  ################################################################################
  #
  # For methods that use the localized form of the "resolution of identity" for
  # the two-electron Coulomb operator (RI_method LVL), particularly Hartree-Fock and
  # hybrid density functional calculations, the highest accuracy can be obtained by
  # uncommenting the line beginning with "for_aux"  below, thus adding an extra g radial
  # function to the construction of the product basis set for the expansion.
  # See Ref. New J. Phys. 17, 093020 (2015) for more information, particularly Figs. 1 and 6.
  #
  ################################################################################
  #
  # for_aux hydro 5 g 6.0
  ################################################################################
  #
  #  FHI-aims code project
  # Volker Blum, Fritz Haber Institute Berlin, 2009
  #
  #  Suggested "tight" defaults for O atom (to be pasted into control.in file)
  #
  ################################################################################
    species        O
  #     global species definitions
      nucleus             8
      mass                15.9994
  #
      l_hartree           6
  #
      cut_pot             4.0  2.0  1.0
      basis_dep_cutoff    1e-4
  #
      radial_base         36 7.0
      radial_multiplier   2
       angular_grids specified
        division   0.1817   50
        division   0.3417  110
        division   0.4949  194
        division   0.6251  302
        division   0.8014  434
  #      division   0.8507  590
  #      division   0.8762  770
  #      division   0.9023  974
  #      division   1.2339 1202
  #      outer_grid 974
        outer_grid  434
  ################################################################################
  #
  #  Definition of "minimal" basis
  #
  ################################################################################
  #     valence basis states
      valence      2  s   2.
      valence      2  p   4.
  #     ion occupancy
      ion_occ      2  s   1.
      ion_occ      2  p   3.
  ################################################################################
  #
  #  Suggested additional basis functions. For production calculations,
  #  uncomment them one after another (the most important basis functions are
  #  listed first).
  #
  #  Constructed for dimers: 1.0 A, 1.208 A, 1.5 A, 2.0 A, 3.0 A
  #
  ################################################################################
  #  "First tier" - improvements: -699.05 meV to -159.38 meV
       hydro 2 p 1.8
       hydro 3 d 7.6
       hydro 3 s 6.4
  #  "Second tier" - improvements: -49.91 meV to -5.39 meV
       hydro 4 f 11.6
       hydro 3 p 6.2
       hydro 3 d 5.6
       hydro 5 g 17.6
       hydro 1 s 0.75
  #  "Third tier" - improvements: -2.83 meV to -0.50 meV
  #     ionic 2 p auto
  #     hydro 4 f 10.8
  #     hydro 4 d 4.7
  #     hydro 2 s 6.8
  #  "Fourth tier" - improvements: -0.40 meV to -0.12 meV
  #     hydro 3 p 5
  #     hydro 3 s 3.3
  #     hydro 5 g 15.6
  #     hydro 4 f 17.6
  #     hydro 4 d 14
  # Further basis functions - -0.08 meV and below
  #     hydro 3 s 2.1
  #     hydro 4 d 11.6
  #     hydro 3 p 16
  #     hydro 2 s 17.2
  ################################################################################
  #
  # For methods that use the localized form of the "resolution of identity" for
  # the two-electron Coulomb operator (RI_method LVL), particularly Hartree-Fock and
  # hybrid density functional calculations, the highest accuracy can be obtained by
  # uncommenting the line beginning with "for_aux"  below, thus adding an extra g radial
  # function to the construction of the product basis set for the expansion.
  # See Ref. New J. Phys. 17, 093020 (2015) for more information, particularly Figs. 1 and 6.
  #
  ################################################################################
  #
  # for_aux hydro 5 g 6.0
  
  -----------------------------------------------------------------------
  Completed first pass over input file control.in .
  -----------------------------------------------------------------------
  
  
  -----------------------------------------------------------------------
  Parsing geometry.in (first pass over file, find array dimensions only).
  The contents of geometry.in will be repeated verbatim below
  unless switched off by setting 'verbatim_writeout .false.' .
  in the first line of geometry.in .
  -----------------------------------------------------------------------
  
  #
  # This is the geometry file that corresponds to the current relaxation step.
  # If you do not want this file to be written, set the "write_restart_geometry" flag to .false.
  #
  atom      -0.79166325      0.89202686     -0.33393371 C
  atom      -0.10201478      0.15115773      0.79044718 C
  atom       0.91442469     -0.51624374      0.62495971 O
  atom      -0.40790327      0.50274785     -1.28065249 H
  atom      -0.56000825      1.96744696     -0.27809629 H
  atom      -1.88438615      0.78587533     -0.30874847 H
  atom      -0.63487929      0.28744416      2.06285246 N
  atom      -1.89879661      0.89574561      2.45649019 C
  atom      -1.87571219      2.43857907      2.52065779 C
  atom      -2.92668806      3.08013286      2.54882227 O
  atom      -0.14902904     -0.27763122      2.75484437 H
  atom      -2.67523735      0.66314629      1.71180320 H
  atom      -2.34846774      0.33936946      3.81099348 C
  atom      -3.28388009      0.82052198      4.11706394 H
  atom      -1.59213356      0.53662159      4.58442265 H
  atom      -2.51408849     -0.74387577      3.74800980 H
  atom      -0.64309128      3.00725592      2.57751753 N
  atom      -0.47953617      4.44782254      2.45604518 C
  atom      -0.66997302      4.85279055      0.97534991 C
  atom      -0.00268407      4.31132693      0.09211633 O
  atom       0.15104841      2.40900392      2.36498910 H
  atom      -1.25392347      4.90401114      3.08380352 H
  atom       0.90651092      4.87780349      2.93287471 C
  atom       1.00877439      5.96908165      2.87637686 H
  atom       1.68662821      4.43491408      2.29928578 H
  atom       1.06751183      4.56799117      3.97325035 H
  atom      -1.57145006      5.83328227      0.70395001 N
  atom      -2.55518086      6.41672084      1.60878595 C
  atom      -1.64452606      6.04927116     -0.28572032 H
  atom      -3.24996130      7.01940090      1.01429473 H
  atom      -2.09054331      7.08218430      2.35120375 H
  atom      -3.13046378      5.63537214      2.12407454 H
  
  -----------------------------------------------------------------------
  Completed first pass over input file geometry.in .
  -----------------------------------------------------------------------
  

  Basic array size parameters:
  | Number of species                 :        4
  | Number of atoms                   :       32
  | Max. basis fn. angular momentum   :        4
  | Max. atomic/ionic basis occupied n:        2
  | Max. number of basis fn. types    :        2
  | Max. radial fns per species/type  :        8
  | Max. logarithmic grid size        :     1301
  | Max. radial integration grid size :       73
  | Max. angular integration grid size:      434
  | Max. angular grid division number :        8
  | Radial grid for Hartree potential :     1301
  | Number of spin channels           :        1

------------------------------------------------------------
          Reading file control.in.
------------------------------------------------------------
  XC: Using PBE gradient-corrected functionals.
  Self-consistent screening and van der Waals energy (TS, TS+SCS,MBD) module
  Spin treatment: No spin polarisation.
  Charge =   0.000000E+00: Neutral system requested explicitly.
  Occupation type: Gaussian broadening, width =   0.500000E-01 eV.
  Using pulay charge density mixing.
  Pulay mixing - number of memorized iterations:   10
  Charge density mixing - mixing parameter:     0.5000
  Convergence accuracy of self-consistent charge density:  0.1000E-03
  Convergence accuracy of sum of eigenvalues:  0.1000E-01
  Convergence accuracy of total energy:  0.1000E-04
  Convergence accuracy of forces:  0.1000E-03
  Maximum number of s.-c. iterations  :  1000
  Fitting ESP-charges to Potential. 
  | Esp charge output options: 
  | ESP Grid method: 3, cubic grid
  | Number of points in x, ,y, z:  0080 0080 0080
  |
 
  Reading configuration options for species H                   .
  | Found nuclear charge :   1.0000
  | Found atomic mass :    1.00794000000000      amu
  | Found l_max for Hartree potential  :   6
  | Found cutoff potl. onset [A], width [A], scale factor :    4.00000    2.00000    1.00000
  | Threshold for basis-dependent cutoff potential is   0.100000E-03
  | Found data for basic radial integration grid :    24 points, outermost radius =    7.000 A
  | Found multiplier for basic radial grid :   2
  | Found angular grid specification: user-specified.
  | Specified grid contains     6 separate shells.
  | Check grid settings after all constraints further below.
  | Found free-atom valence shell :  1 s   1.000
  | No ionic wave fns used. Skipping ion_occ.
  | Found hydrogenic basis function :  2 s   2.100
  | Found hydrogenic basis function :  2 p   3.500
  | Found hydrogenic basis function :  1 s   0.850
  | Found hydrogenic basis function :  2 p   3.700
  | Found hydrogenic basis function :  2 s   1.200
  | Found hydrogenic basis function :  3 d   7.000
  Species H                   : Missing cutoff potential type.
  Defaulting to exp(1/x)/(1-x)^2 type cutoff potential.
  Species H : No 'logarithmic' tag. Using default grid for free atom:
  | Default logarithmic grid data [bohr] : 0.1000E-03 0.1000E+03 0.1012E+01
  Species H : On-site basis accuracy parameter (for Gram-Schmidt orthonormalisation) not specified.
  Using default value basis_acc =  0.1000000E-03.
  Species H                   : Using default innermost maximum threshold i_radial=  2 for radial functions.
  Species H                   : Default cutoff onset for free atom density etc. : 0.40000000E+01 AA.
  Species H                   : Basic radial grid will be enhanced according to radial_multiplier =   2, to contain    49 grid points.
 
  Reading configuration options for species C                   .
  | Found nuclear charge :   6.0000
  | Found atomic mass :    12.0107000000000      amu
  | Found l_max for Hartree potential  :   6
  | Found cutoff potl. onset [A], width [A], scale factor :    4.00000    2.00000    1.00000
  | Threshold for basis-dependent cutoff potential is   0.100000E-03
  | Found data for basic radial integration grid :    34 points, outermost radius =    7.000 A
  | Found multiplier for basic radial grid :   2
  | Found angular grid specification: user-specified.
  | Specified grid contains     6 separate shells.
  | Check grid settings after all constraints further below.
  | Found free-atom valence shell :  2 s   2.000
  | Found free-atom valence shell :  2 p   2.000
  | No ionic wave fns used. Skipping ion_occ.
  | No ionic wave fns used. Skipping ion_occ.
  | Found hydrogenic basis function :  2 p   1.700
  | Found hydrogenic basis function :  3 d   6.000
  | Found hydrogenic basis function :  2 s   4.900
  | Found hydrogenic basis function :  4 f   9.800
  | Found hydrogenic basis function :  3 p   5.200
  | Found hydrogenic basis function :  3 s   4.300
  | Found hydrogenic basis function :  5 g  14.400
  | Found hydrogenic basis function :  3 d   6.200
  Species C                   : Missing cutoff potential type.
  Defaulting to exp(1/x)/(1-x)^2 type cutoff potential.
  Species C : No 'logarithmic' tag. Using default grid for free atom:
  | Default logarithmic grid data [bohr] : 0.1000E-03 0.1000E+03 0.1012E+01
  Species C : On-site basis accuracy parameter (for Gram-Schmidt orthonormalisation) not specified.
  Using default value basis_acc =  0.1000000E-03.
  Species C                   : Using default innermost maximum threshold i_radial=  2 for radial functions.
  Species C                   : Default cutoff onset for free atom density etc. : 0.40000000E+01 AA.
  Species C                   : Basic radial grid will be enhanced according to radial_multiplier =   2, to contain    69 grid points.
 
  Reading configuration options for species N                   .
  | Found nuclear charge :   7.0000
  | Found atomic mass :    14.0067000000000      amu
  | Found l_max for Hartree potential  :   6
  | Found cutoff potl. onset [A], width [A], scale factor :    4.00000    2.00000    1.00000
  | Threshold for basis-dependent cutoff potential is   0.100000E-03
  | Found data for basic radial integration grid :    35 points, outermost radius =    7.000 A
  | Found multiplier for basic radial grid :   2
  | Found angular grid specification: user-specified.
  | Specified grid contains     6 separate shells.
  | Check grid settings after all constraints further below.
  | Found free-atom valence shell :  2 s   2.000
  | Found free-atom valence shell :  2 p   3.000
  | No ionic wave fns used. Skipping ion_occ.
  | No ionic wave fns used. Skipping ion_occ.
  | Found hydrogenic basis function :  2 p   1.800
  | Found hydrogenic basis function :  3 d   6.800
  | Found hydrogenic basis function :  3 s   5.800
  | Found hydrogenic basis function :  4 f  10.800
  | Found hydrogenic basis function :  3 p   5.800
  | Found hydrogenic basis function :  1 s   0.800
  | Found hydrogenic basis function :  5 g  16.000
  | Found hydrogenic basis function :  3 d   4.900
  Species N                   : Missing cutoff potential type.
  Defaulting to exp(1/x)/(1-x)^2 type cutoff potential.
  Species N : No 'logarithmic' tag. Using default grid for free atom:
  | Default logarithmic grid data [bohr] : 0.1000E-03 0.1000E+03 0.1012E+01
  Species N : On-site basis accuracy parameter (for Gram-Schmidt orthonormalisation) not specified.
  Using default value basis_acc =  0.1000000E-03.
  Species N                   : Using default innermost maximum threshold i_radial=  2 for radial functions.
  Species N                   : Default cutoff onset for free atom density etc. : 0.40000000E+01 AA.
  Species N                   : Basic radial grid will be enhanced according to radial_multiplier =   2, to contain    71 grid points.
 
  Reading configuration options for species O                   .
  | Found nuclear charge :   8.0000
  | Found atomic mass :    15.9994000000000      amu
  | Found l_max for Hartree potential  :   6
  | Found cutoff potl. onset [A], width [A], scale factor :    4.00000    2.00000    1.00000
  | Threshold for basis-dependent cutoff potential is   0.100000E-03
  | Found data for basic radial integration grid :    36 points, outermost radius =    7.000 A
  | Found multiplier for basic radial grid :   2
  | Found angular grid specification: user-specified.
  | Specified grid contains     6 separate shells.
  | Check grid settings after all constraints further below.
  | Found free-atom valence shell :  2 s   2.000
  | Found free-atom valence shell :  2 p   4.000
  | No ionic wave fns used. Skipping ion_occ.
  | No ionic wave fns used. Skipping ion_occ.
  | Found hydrogenic basis function :  2 p   1.800
  | Found hydrogenic basis function :  3 d   7.600
  | Found hydrogenic basis function :  3 s   6.400
  | Found hydrogenic basis function :  4 f  11.600
  | Found hydrogenic basis function :  3 p   6.200
  | Found hydrogenic basis function :  3 d   5.600
  | Found hydrogenic basis function :  5 g  17.600
  | Found hydrogenic basis function :  1 s   0.750
  Species O                   : Missing cutoff potential type.
  Defaulting to exp(1/x)/(1-x)^2 type cutoff potential.
  Species O : No 'logarithmic' tag. Using default grid for free atom:
  | Default logarithmic grid data [bohr] : 0.1000E-03 0.1000E+03 0.1012E+01
  Species O : On-site basis accuracy parameter (for Gram-Schmidt orthonormalisation) not specified.
  Using default value basis_acc =  0.1000000E-03.
  Species O                   : Using default innermost maximum threshold i_radial=  2 for radial functions.
  Species O                   : Default cutoff onset for free atom density etc. : 0.40000000E+01 AA.
  Species O                   : Basic radial grid will be enhanced according to radial_multiplier =   2, to contain    73 grid points.
 
  Finished reading input file 'control.in'. Consistency checks are next.
 
  Target number of points in a grid batch is not set. Defaulting to  100
  Method for grid partitioning is not set. Defaulting to parallel hash+maxmin partitioning.
  Batch size limit is not set. Defaulting to    200
  By default, will store active basis functions for each batch.
  If in need of memory, prune_basis_once .false. can be used to disable this option.
  communication_type for Hartree potential was not specified.
  Defaulting to calc_hartree .
  Pulay mixer: Number of initial linear mixing iterations not set.
  Defaulting to    0 iterations.
  Work space size for distributed Hartree potential not set.
  Defaulting to   0.200000E+03 MB.
  Algorithm-dependent basis array size parameters:
  | n_max_pulay                         :       10
  Geometry relaxation not requested: no relaxation will be performed.
  Handling of forces: Unphysical translation and rotation will be removed from forces.
  No accuracy limit for integral partition fn. given. Defaulting to  0.1000E-14.
  No threshold value for u(r) in integrations given. Defaulting to  0.1000E-05.
  No accuracy for occupation numbers given. Defaulting to  0.1000E-07.
  No threshold value for occupation numbers given. Defaulting to  0.0000E+00.
  No accuracy for fermi level given. Defaulting to  0.1000E-19.
  Maximum # of iterations to find E_F not set. Defaulting to  200.
  Preferred method for the eigenvalue solver ('KS_method') not specified in 'control.in'.
  Calling blacs routine to test compilation state
  Since scalapack support is enabled, defaulting to 'elpa'.
  Preferred method for the MBD eigenvalue solver ('mbd_eigensolver') not specified in 'control.in'.
  Calling blacs routine to test compilation state
  Since scalapack support is enabled, defaulting to 'scaLAPACK'.
  Will not use alltoall communication since running on < 1024 CPUs.
  Threshold for basis singularities not set.
  Default threshold for basis singularities:  0.1000E-04
  partition_type (choice of integration weights) for integrals was not specified.
  | Using a version of the partition function of Stratmann and coworkers ('stratmann_smoother').
  | At each grid point, the set of atoms used to build the partition table is smoothly restricted to
  | only those atoms whose free-atom density would be non-zero at that grid point.
  Partitioning for Hartree potential was not defined. Using partition_type for integrals.
  | Adjusted default value of keyword multip_moments_threshold to:       0.10000000E-11
  | This value may affect high angular momentum components of the Hartree potential in periodic systems.
  No q(lm)/r^(l+1) cutoff set for long-range Hartree potential.
  | Using default value of  0.100000E-09 .
  | Verify using the multipole_threshold keyword.
  Defaulting to new monopole extrapolation.
  Density update method: automatic selection selected.
------------------------------------------------------------


------------------------------------------------------------
          Reading geometry description geometry.in.
------------------------------------------------------------
 * Warning! You did not set the 'relativistic' flag in input file 'control.in'.
 * Since you are not attempting to treat any elements beyond Ca(Z=20), FHI-aims
 * will default to 'relativistic none'.
 * You must ensure that this is really what you want!!
 * For example, DO NOT compute total-energy differences between results from
 * different settings of the 'relativistic' flag.
  Input structure read successfully.
  The structure contains       32 atoms,  and a total of        116.000 electrons.

  Input geometry:
  | No unit cell requested.
  | Atomic structure:
  |       Atom                x [A]            y [A]            z [A]
  |    1: Species C             -0.791663         0.892027        -0.333934
  |    2: Species C             -0.102015         0.151158         0.790447
  |    3: Species O              0.914425        -0.516244         0.624960
  |    4: Species H             -0.407903         0.502748        -1.280652
  |    5: Species H             -0.560008         1.967447        -0.278096
  |    6: Species H             -1.884386         0.785875        -0.308748
  |    7: Species N             -0.634879         0.287444         2.062852
  |    8: Species C             -1.898797         0.895746         2.456490
  |    9: Species C             -1.875712         2.438579         2.520658
  |   10: Species O             -2.926688         3.080133         2.548822
  |   11: Species H             -0.149029        -0.277631         2.754844
  |   12: Species H             -2.675237         0.663146         1.711803
  |   13: Species C             -2.348468         0.339369         3.810993
  |   14: Species H             -3.283880         0.820522         4.117064
  |   15: Species H             -1.592134         0.536622         4.584423
  |   16: Species H             -2.514088        -0.743876         3.748010
  |   17: Species N             -0.643091         3.007256         2.577518
  |   18: Species C             -0.479536         4.447823         2.456045
  |   19: Species C             -0.669973         4.852791         0.975350
  |   20: Species O             -0.002684         4.311327         0.092116
  |   21: Species H              0.151048         2.409004         2.364989
  |   22: Species H             -1.253923         4.904011         3.083804
  |   23: Species C              0.906511         4.877803         2.932875
  |   24: Species H              1.008774         5.969082         2.876377
  |   25: Species H              1.686628         4.434914         2.299286
  |   26: Species H              1.067512         4.567991         3.973250
  |   27: Species N             -1.571450         5.833282         0.703950
  |   28: Species C             -2.555181         6.416721         1.608786
  |   29: Species H             -1.644526         6.049271        -0.285720
  |   30: Species H             -3.249961         7.019401         1.014295
  |   31: Species H             -2.090543         7.082184         2.351204
  |   32: Species H             -3.130464         5.635372         2.124075
  |

  | The smallest distance between any two atoms is         1.01559769 AA.
  |
  | The first atom of this pair is atom number                     27 .
  | The second atom of this pair is atom number                    29 .

  Number of empty states per atom not set in control.in - providing a guess from actual geometry.
  | Total number of empty states used during s.c.f. cycle:       71
  If you use a very high smearing, use empty_states (per atom!) in control.in to increase this value.

  Structure-dependent array size parameters: 
  | Maximum number of distinct radial functions  :       40
  | Maximum number of basis functions            :      840
  | Number of Kohn-Sham states (occupied + empty):      129
------------------------------------------------------------

------------------------------------------------------------
          Preparing all fixed parts of the calculation.
------------------------------------------------------------
  Determining machine precision:
    2.225073858507201E-308
  Setting up grids for atomic and cluster calculations.

  Creating wave function, potential, and density for free atoms.

  Species: H

  List of occupied orbitals and eigenvalues:
    n    l              occ      energy [Ha]    energy [eV]
    1    0           1.0000        -0.238382        -6.4867


  Species: C

  List of occupied orbitals and eigenvalues:
    n    l              occ      energy [Ha]    energy [eV]
    1    0           2.0000       -10.041232      -273.2358
    2    0           2.0000        -0.504327       -13.7234
    2    1           2.0000        -0.193750        -5.2722


  Species: N

  List of occupied orbitals and eigenvalues:
    n    l              occ      energy [Ha]    energy [eV]
    1    0           2.0000       -14.129007      -384.4699
    2    0           2.0000        -0.681802       -18.5528
    2    1           3.0000        -0.260543        -7.0897


  Species: O

  List of occupied orbitals and eigenvalues:
    n    l              occ      energy [Ha]    energy [eV]
    1    0           2.0000       -18.898576      -514.2564
    2    0           2.0000        -0.878795       -23.9132
    2    1           4.0000        -0.332075        -9.0362

  Creating fixed part of basis set: Ionic, confined, hydrogenic.
 
  H                    hydrogenic:
 
  List of hydrogenic basis orbitals: 
    n    l      effective z      eigenvalue [eV]  inner max. [A]     outer max. [A]     outer radius [A]   
    2    0         2.100000       -14.9965           0.193243           1.317208           5.373006
    2    1         3.500000       -41.6672           0.602369           0.602369           4.056063
    1    0         0.850000        -9.8292           0.624871           0.624871           5.373006
    2    1         3.700000       -46.5653           0.573622           0.573622           3.910002
    2    0         1.200000        -4.5995           0.334980           2.228188           5.505995
    3    2         7.000000       -74.0753           0.680699           0.680699           3.769201
 
 
  C                    hydrogenic:
 
  List of hydrogenic basis orbitals: 
    n    l      effective z      eigenvalue [eV]  inner max. [A]     outer max. [A]     outer radius [A]   
    2    1         1.700000        -9.8152           1.245706           1.245706           5.401630
    3    2         6.000000       -54.4226           0.792453           0.792453           4.178599
    2    0         4.900000       -81.6681           0.082559           0.562749           3.353238
    4    3         9.800000       -81.6681           0.863254           0.863254           4.028125
    3    1         5.200000       -40.8774           0.305389           1.215618           4.898362
    3    0         4.300000       -27.9508           0.091041           1.610311           5.401630
    5    4        14.400000      -112.8510           0.917666           0.917666           3.883070
    3    2         6.200000       -58.1113           0.763917           0.763917           4.077671
 
 
  N                    hydrogenic:
 
  List of hydrogenic basis orbitals: 
    n    l      effective z      eigenvalue [eV]  inner max. [A]     outer max. [A]     outer radius [A]   
    2    1         1.800000       -11.0118           1.177451           1.177451           5.427479
    3    2         6.800000       -69.9029           0.704619           0.704619           3.854246
    3    0         5.800000       -50.8549           0.067388           1.191934           4.629968
    4    3        10.800000       -99.1854           0.786571           0.786571           3.761152
    3    1         5.800000       -50.8549           0.274880           1.094176           4.518138
    1    0         0.800000        -8.7059           0.662839           0.662839           5.361532
    5    4        16.000000      -139.3222           0.825990           0.825990           3.625711
    3    2         4.900000       -36.2967           0.968267           0.968267           4.862000
 
 
  O                    hydrogenic:
 
  List of hydrogenic basis orbitals: 
    n    l      effective z      eigenvalue [eV]  inner max. [A]     outer max. [A]     outer radius [A]   
    2    1         1.800000       -11.0118           1.178562           1.178562           5.432602
    3    2         7.600000       -87.3182           0.624125           0.624125           3.541477
    3    0         6.400000       -61.9209           0.061167           1.081902           4.306578
    4    3        11.600000      -114.4238           0.731631           0.731631           3.585037
    3    1         6.200000       -58.1113           0.255680           1.030270           4.306578
    3    2         5.600000       -47.4081           0.847233           0.847233           4.413171
    5    4        17.600000      -168.5799           0.749740           0.749740           3.372465
    1    0         0.750000        -7.6499           0.705284           0.705284           5.366593
 

  Adding cutoff potential to free-atom effective potential.
  Creating atomic-like basis functions for current effective potential.

  Species H                   :

  List of atomic basis orbitals and eigenvalues:
    n    l      energy [Ha]    energy [eV]    outer radius [A]
    1    0        -0.238382        -6.4867       5.373006


  Species C                   :

  List of atomic basis orbitals and eigenvalues:
    n    l      energy [Ha]    energy [eV]    outer radius [A]
    1    0       -10.041232      -273.2358       1.934409
    2    0        -0.504327       -13.7234       5.271162
    2    1        -0.193750        -5.2722       5.401630


  Species N                   :

  List of atomic basis orbitals and eigenvalues:
    n    l      energy [Ha]    energy [eV]    outer radius [A]
    1    0       -14.129007      -384.4699       1.637919
    2    0        -0.681802       -18.5528       5.168461
    2    1        -0.260543        -7.0897       5.361532


  Species O                   :

  List of atomic basis orbitals and eigenvalues:
    n    l      energy [Ha]    energy [eV]    outer radius [A]
    1    0       -18.898576      -514.2564       1.415765
    2    0        -0.878795       -23.9132       5.048385
    2    1        -0.332075        -9.0362       5.301386

  Assembling full basis from fixed parts.
  | Species H :   atomic orbital   1 s accepted.
  | Species H :    hydro orbital   2 s accepted.
  | Species H :    hydro orbital   1 s accepted.
  | Species H :    hydro orbital   2 s accepted.
  | Species H :    hydro orbital   2 p accepted.
  | Species H :    hydro orbital   2 p accepted.
  | Species H :    hydro orbital   3 d accepted.
  | Species C :   atomic orbital   1 s accepted.
  | Species C :    hydro orbital   2 s accepted.
  | Species C :   atomic orbital   2 s accepted.
  | Species C :    hydro orbital   3 s accepted.
  | Species C :    hydro orbital   3 p accepted.
  | Species C :   atomic orbital   2 p accepted.
  | Species C :    hydro orbital   2 p accepted.
  | Species C :    hydro orbital   3 d accepted.
  | Species C :    hydro orbital   3 d accepted.
  | Species C :    hydro orbital   4 f accepted.
  | Species C :    hydro orbital   5 g accepted.
  | Species N :   atomic orbital   1 s accepted.
  | Species N :    hydro orbital   3 s accepted.
  | Species N :   atomic orbital   2 s accepted.
  | Species N :    hydro orbital   1 s accepted.
  | Species N :    hydro orbital   3 p accepted.
  | Species N :   atomic orbital   2 p accepted.
  | Species N :    hydro orbital   2 p accepted.
  | Species N :    hydro orbital   3 d accepted.
  | Species N :    hydro orbital   3 d accepted.
  | Species N :    hydro orbital   4 f accepted.
  | Species N :    hydro orbital   5 g accepted.
  | Species O :   atomic orbital   1 s accepted.
  | Species O :    hydro orbital   3 s accepted.
  | Species O :   atomic orbital   2 s accepted.
  | Species O :    hydro orbital   1 s accepted.
  | Species O :    hydro orbital   3 p accepted.
  | Species O :   atomic orbital   2 p accepted.
  | Species O :    hydro orbital   2 p accepted.
  | Species O :    hydro orbital   3 d accepted.
  | Species O :    hydro orbital   3 d accepted.
  | Species O :    hydro orbital   4 f accepted.
  | Species O :    hydro orbital   5 g accepted.
 
  Basis size parameters after reduction:
  | Total number of radial functions:       40
  | Total number of basis functions :      840
 
  Testing on-site integration grid accuracy.
  |  Species  Function  <phi|h_atom|phi> (log., in eV)  <phi|h_atom|phi> (rad., in eV)
           1        1                 -6.4869821809                 -6.4870742227
           1        2                 13.5044133542                 13.5041049177
           1        3                 32.7854418792                 32.7779770519
           1        4                 33.7995553101                 33.7152624900 ***
           1        5                 28.8558651799                 28.8558652046
           1        6                 59.6361831893                 59.6362535845
           1        7                 60.2733718049                 60.2733715484
           2        8               -273.2358277112               -273.2358261765
           2        9                -10.7624923123                -10.7625144012
           2       10                 17.4634079027                 17.4634252127
           2       11                 53.0363661832                 53.0366180446
           2       12                 15.0981351967                 15.0981317714
           2       13                  3.8522181899                  3.8522770949
           2       14                 12.1181835661                 12.1206868578
           2       15                 29.4320778347                 29.4320780959
           2       16                 54.8753777694                 54.8752901936
           2       17                 59.3533975461                 59.3533974833
           2       18                 93.4537491195                 93.4537492066
           3       19               -384.4698526889               -384.4698499465
           3       20                 12.5691022037                 12.5690910168
           3       21                -15.7489097511                -15.7489165588
           3       22                 27.0978334940                 27.0985589490
           3       23                 18.5949116966                 18.5949125562
           3       24                  1.2212828291                  1.2212855301
           3       25                 13.4428926797                 13.4434051125
           3       26                 35.9380614500                 35.9380613666
           3       27                 39.9231532098                 39.9231654735
           3       28                 72.9957335806                 72.9957336833
           3       29                116.4231321147                116.4231321431
           4       30               -514.2564144315               -514.2564099626
           4       31                 15.1726678541                 15.1726530877
           4       32                -21.5447785304                -21.5447874973
           4       33                 14.4944558459                 14.4944698284
           4       34                 20.8882174564                 20.8882178906
           4       35                 -2.4850315908                 -2.4850322289
           4       36                 13.8600193195                 13.8599826966
           4       37                 45.8243383616                 45.8243383675
           4       38                 52.1840606465                 52.1840622440
           4       39                 85.4074185510                 85.4074185819
           4       40                142.0983717302                142.0983717339
 * Note: Onsite integrals marked "***" above are less accurate than
 * onsite_accuracy_threshold =    0.03000 eV. Usually, this is harmless.
 * When in doubt, tighten the "radial" and/or "radial_multiplier" flags to check.

  Preparing densities etc. for the partition functions (integrals / Hartree potential).

  Preparations completed.
  max(cpu_time)          :      0.240 s.
  Wall clock time (cpu1) :      0.243 s.
------------------------------------------------------------

------------------------------------------------------------
          Begin self-consistency loop: Initialization.

          Date     :  20170309, Time     :  181611.504
------------------------------------------------------------

  Initializing index lists of integration centers etc. from given atomic structure:
  | Number of centers in hartree potential         :        32
  | Number of centers in hartree multipole         :        32
  | Number of centers in electron density summation:        32
  | Number of centers in basis integrals           :        32
  | Number of centers in integrals                 :        32
  | Number of centers in hamiltonian               :        32
  Using modified Scalapack Eigenvalue solver (ELPA)
  * Using 32 tasks for Scalapack Eigenvalue solver.
  Detailed listing of tasks and assigned k-points:
  (for non-periodic systems, the "k-point" denotes an internal label only)
   Task     0 k-point     1 on eos297
   Task     1 k-point     1 on eos297
   Task     2 k-point     1 on eos297
   Task     3 k-point     1 on eos297
   Task     4 k-point     1 on eos297
   Task     5 k-point     1 on eos297
   Task     6 k-point     1 on eos297
   Task     7 k-point     1 on eos297
   Task     8 k-point     1 on eos297
   Task     9 k-point     1 on eos297
   Task    10 k-point     1 on eos297
   Task    11 k-point     1 on eos297
   Task    12 k-point     1 on eos297
   Task    13 k-point     1 on eos297
   Task    14 k-point     1 on eos297
   Task    15 k-point     1 on eos297
   Task    16 k-point     1 on eos297
   Task    17 k-point     1 on eos297
   Task    18 k-point     1 on eos297
   Task    19 k-point     1 on eos297
   Task    20 k-point     1 on eos297
   Task    21 k-point     1 on eos297
   Task    22 k-point     1 on eos297
   Task    23 k-point     1 on eos297
   Task    24 k-point     1 on eos297
   Task    25 k-point     1 on eos297
   Task    26 k-point     1 on eos297
   Task    27 k-point     1 on eos297
   Task    28 k-point     1 on eos297
   Task    29 k-point     1 on eos297
   Task    30 k-point     1 on eos297
   Task    31 k-point     1 on eos297
  Tasks:    32 split into      8 X      4 BLACS grid
  Calculating blocksize based on n_basis =          840 max_nprow =            8 max_npcol =            4
  Scalapack blocksize set to:           16
  Required Scalapack workspace - INTEGER:            1 REAL:             1
  Partitioning the integration grid into batches with parallel hashing+maxmin method.
  | Number of batches:     4860
  | Maximal batch size:     200
  | Minimal batch size:      49
  | Average batch size:     108.586
  | Standard deviation of batch sizes:      29.375

  Integration load balanced across    32 MPI tasks.
  Work distribution over tasks is as follows:
  Task     0 has      16526 integration points.
  Task     1 has      16412 integration points.
  Task     2 has      16400 integration points.
  Task     3 has      16400 integration points.
  Task     4 has      16492 integration points.
  Task     5 has      16541 integration points.
  Task     6 has      16546 integration points.
  Task     7 has      16398 integration points.
  Task     8 has      16542 integration points.
  Task     9 has      16451 integration points.
  Task    10 has      16517 integration points.
  Task    11 has      16529 integration points.
  Task    12 has      16395 integration points.
  Task    13 has      16524 integration points.
  Task    14 has      16532 integration points.
  Task    15 has      16532 integration points.
  Task    16 has      16516 integration points.
  Task    17 has      16515 integration points.
  Task    18 has      16535 integration points.
  Task    19 has      16497 integration points.
  Task    20 has      16535 integration points.
  Task    21 has      16525 integration points.
  Task    22 has      16447 integration points.
  Task    23 has      16522 integration points.
  Task    24 has      16527 integration points.
  Task    25 has      16532 integration points.
  Task    26 has      16465 integration points.
  Task    27 has      16464 integration points.
  Task    28 has      16458 integration points.
  Task    29 has      16527 integration points.
  Task    30 has      16527 integration points.
  Task    31 has      16399 integration points.
  Initializing partition tables, free-atom densities, potentials, etc. across the integration grid (initialize_grid_storage).
  | initialize_grid_storage: Actual outermost partition radius vs. multipole_radius_free
  | (-- VB: in principle, multipole_radius_free should be larger, hence this output)
  | Species        1: Confinement radius =              6.000000000000000 AA, multipole_radius_free =              6.071692442739658 AA.
  | Species        1: outer_partition_radius set to              6.071692442739658 AA .
  | Species        2: Confinement radius =              6.000000000000000 AA, multipole_radius_free =              6.029870734432609 AA.
  | Species        2: outer_partition_radius set to              6.029870734432609 AA .
  | Species        3: Confinement radius =              6.000000000000000 AA, multipole_radius_free =              6.058726835495003 AA.
  | Species        3: outer_partition_radius set to              6.058726835495003 AA .
  | Species        4: Confinement radius =              6.000000000000000 AA, multipole_radius_free =              6.064445521808699 AA.
  | Species        4: outer_partition_radius set to              6.064445521808699 AA .
  | Original list of interatomic distances with          32 x         32 entries is created.
  | Net number of integration points:   527728
  | of which are non-zero points    :   413980
  Obtaining max. number of non-zero basis functions in each batch (get_n_compute_maxes).
  | Maximal number of non-zero basis functions:      798 in task     0
  | Maximal number of non-zero basis functions:      789 in task     1
  | Maximal number of non-zero basis functions:      779 in task     2
  | Maximal number of non-zero basis functions:      773 in task     3
  | Maximal number of non-zero basis functions:      784 in task     4
  | Maximal number of non-zero basis functions:      787 in task     5
  | Maximal number of non-zero basis functions:      776 in task     6
  | Maximal number of non-zero basis functions:      772 in task     7
  | Maximal number of non-zero basis functions:      779 in task     8
  | Maximal number of non-zero basis functions:      755 in task     9
  | Maximal number of non-zero basis functions:      783 in task    10
  | Maximal number of non-zero basis functions:      780 in task    11
  | Maximal number of non-zero basis functions:      797 in task    12
  | Maximal number of non-zero basis functions:      775 in task    13
  | Maximal number of non-zero basis functions:      792 in task    14
  | Maximal number of non-zero basis functions:      796 in task    15
  | Maximal number of non-zero basis functions:      786 in task    16
  | Maximal number of non-zero basis functions:      789 in task    17
  | Maximal number of non-zero basis functions:      780 in task    18
  | Maximal number of non-zero basis functions:      787 in task    19
  | Maximal number of non-zero basis functions:      789 in task    20
  | Maximal number of non-zero basis functions:      797 in task    21
  | Maximal number of non-zero basis functions:      785 in task    22
  | Maximal number of non-zero basis functions:      780 in task    23
  | Maximal number of non-zero basis functions:      790 in task    24
  | Maximal number of non-zero basis functions:      786 in task    25
  | Maximal number of non-zero basis functions:      782 in task    26
  | Maximal number of non-zero basis functions:      778 in task    27
  | Maximal number of non-zero basis functions:      786 in task    28
  | Maximal number of non-zero basis functions:      784 in task    29
  | Maximal number of non-zero basis functions:      794 in task    30
  | Maximal number of non-zero basis functions:      766 in task    31
  Selecting the method for density update.
  Loop over occupied states selected for charge density update.
  Integrating Hamiltonian matrix: batch-based integration.
  Time summed over all CPUs for integration: real work       21.443 s, elapsed       22.780 s
  Integrating overlap matrix.
  Time summed over all CPUs for integration: real work       12.950 s, elapsed       13.584 s
  Deallocating overlap matrix.

  Updating Kohn-Sham eigenvalues, eigenvectors, occupation numbers, and Fermi level.
  Solving generalized eigenproblem
  Solving real symmetric generalised eigenvalue problem by standard ScaLAPACK.
  Transforming overlap matrix with ScaLAPACK and checking for singularities.
  : Overlap matrix is nonsingular, using Cholesky decomposition
  | Lowest eigenvalue:  0.891501E-04
  Factoring overlap matrix with Cholesky decomposition
  Using Cholesky factor for transformation
  Using 1-stage real ELPA solver
  Determining occupation numbers for Kohn-Sham eigenstates.
  | Chemical potential (Fermi level) in eV                 : -.95523427E+01
  | Error in electron count due to remaining E_F inaccuracy: 0.00000000E+00
  | Maximum occupation number of highest empty state:  0.00E+00

  Writing Kohn-Sham eigenvalues.

  State    Occupation    Eigenvalue [Ha]    Eigenvalue [eV]
      1       2.00000         -18.974352         -516.31838
      2       2.00000         -18.973641         -516.29905
      3       2.00000         -18.973353         -516.29121
      4       2.00000         -14.256283         -387.93319
      5       2.00000         -14.255348         -387.90776
      6       2.00000         -14.251804         -387.81131
      7       2.00000         -10.171185         -276.77201
      8       2.00000         -10.171172         -276.77167
      9       2.00000         -10.171029         -276.76778
     10       2.00000         -10.166360         -276.64074
     11       2.00000         -10.149700         -276.18738
     12       2.00000         -10.148741         -276.16131
     13       2.00000         -10.135099         -275.79007
     14       2.00000         -10.135024         -275.78805
     15       2.00000         -10.134315         -275.76873
     16       2.00000          -1.133615          -30.84724
     17       2.00000          -1.131381          -30.78645
     18       2.00000          -1.127321          -30.67597
     19       2.00000          -1.023753          -27.85774
     20       2.00000          -1.012269          -27.54525
     21       2.00000          -1.005142          -27.35131
     22       2.00000          -0.887215          -24.14235
     23       2.00000          -0.874335          -23.79187
     24       2.00000          -0.846618          -23.03765
     25       2.00000          -0.816550          -22.21947
     26       2.00000          -0.779799          -21.21941
     27       2.00000          -0.754408          -20.52848
     28       2.00000          -0.704996          -19.18391
     29       2.00000          -0.688817          -18.74366
     30       2.00000          -0.675398          -18.37851
     31       2.00000          -0.636967          -17.33275
     32       2.00000          -0.624464          -16.99252
     33       2.00000          -0.611775          -16.64726
     34       2.00000          -0.609365          -16.58167
     35       2.00000          -0.600547          -16.34171
     36       2.00000          -0.581043          -15.81098
     37       2.00000          -0.567325          -15.43771
     38       2.00000          -0.558938          -15.20949
     39       2.00000          -0.555424          -15.11385
     40       2.00000          -0.550972          -14.99272
     41       2.00000          -0.544066          -14.80479
     42       2.00000          -0.540925          -14.71933
     43       2.00000          -0.537140          -14.61632
     44       2.00000          -0.526296          -14.32124
     45       2.00000          -0.520949          -14.17574
     46       2.00000          -0.518695          -14.11441
     47       2.00000          -0.510439          -13.88974
     48       2.00000          -0.502785          -13.68149
     49       2.00000          -0.492492          -13.40138
     50       2.00000          -0.488634          -13.29641
     51       2.00000          -0.484639          -13.18771
     52       2.00000          -0.474492          -12.91158
     53       2.00000          -0.415724          -11.31243
     54       2.00000          -0.410824          -11.17909
     55       2.00000          -0.402601          -10.95532
     56       2.00000          -0.385435          -10.48821
     57       2.00000          -0.381208          -10.37319
     58       2.00000          -0.376316          -10.24008
     59       0.00000          -0.169465           -4.61137
     60       0.00000          -0.159568           -4.34207
     61       0.00000          -0.157518           -4.28629
     62       0.00000          -0.077288           -2.10312
     63       0.00000          -0.065923           -1.79387
     64       0.00000          -0.054974           -1.49591
     65       0.00000          -0.050226           -1.36673
     66       0.00000          -0.048446           -1.31827
     67       0.00000          -0.038617           -1.05083
     68       0.00000          -0.035403           -0.96336
     69       0.00000          -0.028829           -0.78447
     70       0.00000          -0.024703           -0.67220
     71       0.00000          -0.018383           -0.50022
     72       0.00000          -0.017315           -0.47118
     73       0.00000          -0.015352           -0.41774
     74       0.00000          -0.008438           -0.22960
     75       0.00000          -0.003621           -0.09854
     76       0.00000          -0.002221           -0.06043
     77       0.00000           0.003715            0.10108
     78       0.00000           0.006723            0.18294
     79       0.00000           0.008761            0.23840
     80       0.00000           0.021594            0.58761
     81       0.00000           0.023407            0.63693
     82       0.00000           0.031847            0.86660
     83       0.00000           0.035677            0.97082
     84       0.00000           0.037968            1.03316
     85       0.00000           0.042713            1.16228
     86       0.00000           0.045639            1.24189
     87       0.00000           0.056522            1.53803
     88       0.00000           0.057159            1.55538
     89       0.00000           0.066074            1.79795
     90       0.00000           0.071279            1.93961
     91       0.00000           0.074538            2.02829
     92       0.00000           0.080566            2.19232
     93       0.00000           0.085062            2.31466
     94       0.00000           0.089610            2.43841
     95       0.00000           0.094475            2.57080
     96       0.00000           0.101744            2.76861
     97       0.00000           0.108258            2.94586
     98       0.00000           0.109048            2.96734
     99       0.00000           0.118734            3.23091
    100       0.00000           0.125580            3.41721
    101       0.00000           0.130957            3.56353
    102       0.00000           0.133471            3.63193
    103       0.00000           0.135756            3.69410
    104       0.00000           0.141346            3.84623
    105       0.00000           0.144676            3.93682
    106       0.00000           0.148718            4.04682
    107       0.00000           0.159072            4.32858
    108       0.00000           0.161682            4.39960
    109       0.00000           0.167573            4.55989
    110       0.00000           0.172847            4.70341
    111       0.00000           0.179759            4.89150
    112       0.00000           0.182231            4.95877
    113       0.00000           0.183919            5.00469
    114       0.00000           0.189290            5.15085
    115       0.00000           0.193119            5.25502
    116       0.00000           0.200406            5.45334
    117       0.00000           0.203563            5.53923
    118       0.00000           0.207745            5.65302
    119       0.00000           0.211974            5.76809
    120       0.00000           0.216012            5.87798
    121       0.00000           0.222884            6.06499
    122       0.00000           0.224081            6.09756
    123       0.00000           0.230562            6.27391
    124       0.00000           0.234919            6.39247
    125       0.00000           0.242583            6.60102
    126       0.00000           0.248954            6.77437
    127       0.00000           0.254648            6.92933
    128       0.00000           0.264850            7.20693
    129       0.00000           0.269850            7.34299

  Highest occupied state (VBM) at    -10.24008421 eV
  | Occupation number:      2.00000000

  Lowest unoccupied state (CBM) at    -4.61137004 eV
  | Occupation number:      0.00000000

  Overall HOMO-LUMO gap:      5.62871416 eV.
  Calculating total energy contributions from superposition of free atom densities.

  Total energy components:
  | Sum of eigenvalues            :        -437.87900822 Ha      -11915.29405704 eV
  | XC energy correction          :         -98.81987620 Ha       -2689.02564756 eV
  | XC potential correction       :         127.02077022 Ha        3456.41101791 eV
  | Free-atom electrostatic energy:        -333.61057770 Ha       -9078.00570298 eV
  | Hartree energy correction     :           0.00000000 Ha           0.00000000 eV
  | MBD@rsSCS energy              :           0.00000000 Ha           0.00000000 eV
  | Entropy correction            :          -0.00000000 Ha          -0.00000000 eV
  | ---------------------------
  | Total energy                  :        -743.28869190 Ha      -20225.91438967 eV
  | Total energy, T -> 0          :        -743.28869190 Ha      -20225.91438967 eV  <-- do not rely on this value for anything but (periodic) metals
  | Electronic free energy        :        -743.28869190 Ha      -20225.91438967 eV

  Derived energy quantities:
  | Kinetic energy                :         735.16012032 Ha       20004.72470299 eV
  | Electrostatic energy          :       -1379.62893601 Ha      -37541.61344510 eV
  | Energy correction for multipole
  | error in Hartree potential    :           0.00000000 Ha           0.00000000 eV
  | Sum of eigenvalues per atom                           :        -372.35293928 eV
  | Total energy (T->0) per atom                          :        -632.05982468 eV  <-- do not rely on this value for anything but (periodic) metals
  | Electronic free energy per atom                       :        -632.05982468 eV
  Initialize hartree_potential_storage
  Max. number of atoms included in rho_multipole:           32

  End scf initialization - timings             :  max(cpu_time)    wall_clock(cpu1)
  | Time for scf. initialization               :        1.896 s           1.895 s
  | Boundary condition initialization          :        0.004 s           0.000 s
  | Integration                                :        1.160 s           1.158 s
  | Solution of K.-S. eqns.                    :        0.076 s           0.075 s
  | Grid partitioning                          :        0.304 s           0.300 s
  | Preloading free-atom quantities on grid    :        0.028 s           0.027 s
  | Free-atom superposition energy             :        0.044 s           0.041 s
  | Total energy evaluation                    :        0.000 s           0.000 s
------------------------------------------------------------

------------------------------------------------------------
          Begin self-consistency iteration #    1

  Date     :  20170309, Time     :  181613.400
------------------------------------------------------------
  Evaluating new KS density.
  Integration grid: deviation in total charge (<rho> - N_e) =  -2.842171E-14
  Pulay mixing of updated and previous charge densities.

  Evaluating partitioned Hartree potential by multipole expansion.
  | Analytical far-field extrapolation by fixed multipoles:
  | Hartree multipole sum: apparent total charge =   0.439118E-04
  Summing up the Hartree potential.
  Time summed over all CPUs for potential: real work        9.575 s, elapsed       10.191 s
  | RMS charge density error from multipole expansion :   0.108041E-01

  Integrating Hamiltonian matrix: batch-based integration.
  Time summed over all CPUs for integration: real work       21.297 s, elapsed       22.547 s

  Updating Kohn-Sham eigenvalues, eigenvectors, occupation numbers, and Fermi level.
  Solving generalized eigenproblem
  Solving real symmetric generalised eigenvalue problem by standard ScaLAPACK.
  Using Cholesky factor for transformation
  Using 2-stage real ELPA solver
  K-Point:    1, Trafo times: 1-stage=     0.021 s, 2-stage=     0.019 s ==> Using 2-stage solver
  Determining occupation numbers for Kohn-Sham eigenstates.
  | Chemical potential (Fermi level) in eV                 : -.37498231E+01
  | Error in electron count due to remaining E_F inaccuracy: 0.00000000E+00
  | Maximum occupation number of highest empty state:  0.00E+00

  Writing Kohn-Sham eigenvalues.

  State    Occupation    Eigenvalue [Ha]    Eigenvalue [eV]
      1       2.00000         -18.626687         -506.85794
      2       2.00000         -18.615081         -506.54213
      3       2.00000         -18.607597         -506.33848
      4       2.00000         -13.992929         -380.76697
      5       2.00000         -13.991161         -380.71887
      6       2.00000         -13.985897         -380.57562
      7       2.00000         -10.055310         -273.61890
      8       2.00000         -10.051299         -273.50977
      9       2.00000         -10.046894         -273.38988
     10       2.00000          -9.969562         -271.28558
     11       2.00000          -9.955242         -270.89593
     12       2.00000          -9.892263         -269.18216
     13       2.00000          -9.846308         -267.93167
     14       2.00000          -9.838906         -267.73024
     15       2.00000          -9.838750         -267.72600
     16       2.00000          -0.970103          -26.39784
     17       2.00000          -0.956413          -26.02531
     18       2.00000          -0.953415          -25.94375
     19       2.00000          -0.874512          -23.79668
     20       2.00000          -0.859518          -23.38867
     21       2.00000          -0.856769          -23.31386
     22       2.00000          -0.740739          -20.15654
     23       2.00000          -0.720612          -19.60885
     24       2.00000          -0.690028          -18.77662
     25       2.00000          -0.671419          -18.27023
     26       2.00000          -0.636010          -17.30671
     27       2.00000          -0.619712          -16.86322
     28       2.00000          -0.571146          -15.54167
     29       2.00000          -0.559254          -15.21807
     30       2.00000          -0.547585          -14.90056
     31       2.00000          -0.504822          -13.73691
     32       2.00000          -0.486421          -13.23619
     33       2.00000          -0.479142          -13.03811
     34       2.00000          -0.462242          -12.57825
     35       2.00000          -0.448173          -12.19541
     36       2.00000          -0.439499          -11.95938
     37       2.00000          -0.430340          -11.71014
     38       2.00000          -0.419470          -11.41437
     39       2.00000          -0.406841          -11.07071
     40       2.00000          -0.394303          -10.72952
     41       2.00000          -0.394043          -10.72246
     42       2.00000          -0.388723          -10.57769
     43       2.00000          -0.381211          -10.37327
     44       2.00000          -0.378326          -10.29476
     45       2.00000          -0.375020          -10.20483
     46       2.00000          -0.368564          -10.02913
     47       2.00000          -0.360846           -9.81912
     48       2.00000          -0.354911           -9.65761
     49       2.00000          -0.351724           -9.57089
     50       2.00000          -0.343986           -9.36035
     51       2.00000          -0.337885           -9.19432
     52       2.00000          -0.331835           -9.02968
     53       2.00000          -0.247315           -6.72978
     54       2.00000          -0.243925           -6.63753
     55       2.00000          -0.227882           -6.20097
     56       2.00000          -0.214848           -5.84632
     57       2.00000          -0.210739           -5.73451
     58       2.00000          -0.203647           -5.54152
     59       0.00000          -0.055550           -1.51158
     60       0.00000          -0.044842           -1.22022
     61       0.00000          -0.038473           -1.04690
     62       0.00000          -0.029582           -0.80498
     63       0.00000          -0.022406           -0.60970
     64       0.00000          -0.011811           -0.32138
     65       0.00000          -0.004787           -0.13027
     66       0.00000          -0.002275           -0.06189
     67       0.00000           0.009629            0.26201
     68       0.00000           0.016899            0.45986
     69       0.00000           0.024381            0.66345
     70       0.00000           0.029989            0.81604
     71       0.00000           0.036447            0.99176
     72       0.00000           0.041778            1.13685
     73       0.00000           0.043326            1.17897
     74       0.00000           0.049169            1.33794
     75       0.00000           0.062005            1.68725
     76       0.00000           0.062827            1.70960
     77       0.00000           0.068273            1.85781
     78       0.00000           0.075171            2.04551
     79       0.00000           0.080151            2.18102
     80       0.00000           0.083694            2.27744
     81       0.00000           0.090700            2.46808
     82       0.00000           0.092620            2.52032
     83       0.00000           0.100344            2.73051
     84       0.00000           0.102979            2.80220
     85       0.00000           0.110607            3.00976
     86       0.00000           0.116413            3.16776
     87       0.00000           0.122200            3.32523
     88       0.00000           0.125804            3.42329
     89       0.00000           0.132971            3.61833
     90       0.00000           0.137199            3.73337
     91       0.00000           0.148840            4.05014
     92       0.00000           0.150313            4.09021
     93       0.00000           0.153813            4.18546
     94       0.00000           0.160811            4.37589
     95       0.00000           0.163931            4.46078
     96       0.00000           0.168399            4.58238
     97       0.00000           0.176734            4.80918
     98       0.00000           0.183001            4.97971
     99       0.00000           0.186104            5.06415
    100       0.00000           0.191346            5.20678
    101       0.00000           0.195310            5.31466
    102       0.00000           0.198981            5.41456
    103       0.00000           0.201602            5.48587
    104       0.00000           0.204984            5.57790
    105       0.00000           0.206378            5.61584
    106       0.00000           0.212349            5.77831
    107       0.00000           0.217982            5.93159
    108       0.00000           0.223164            6.07259
    109       0.00000           0.231066            6.28764
    110       0.00000           0.234326            6.37634
    111       0.00000           0.241481            6.57105
    112       0.00000           0.243162            6.61678
    113       0.00000           0.246050            6.69535
    114       0.00000           0.251537            6.84467
    115       0.00000           0.255731            6.95880
    116       0.00000           0.258958            7.04661
    117       0.00000           0.266659            7.25615
    118       0.00000           0.271888            7.39845
    119       0.00000           0.278666            7.58289
    120       0.00000           0.282183            7.67860
    121       0.00000           0.288458            7.84934
    122       0.00000           0.293578            7.98867
    123       0.00000           0.302223            8.22390
    124       0.00000           0.307354            8.36354
    125       0.00000           0.311836            8.48549
    126       0.00000           0.318583            8.66910
    127       0.00000           0.321848            8.75792
    128       0.00000           0.334880            9.11254
    129       0.00000           0.345662            9.40594

  Highest occupied state (VBM) at     -5.54152258 eV
  | Occupation number:      2.00000000

  Lowest unoccupied state (CBM) at    -1.51158163 eV
  | Occupation number:      0.00000000

  Overall HOMO-LUMO gap:      4.02994095 eV.

  Total energy components:
  | Sum of eigenvalues            :        -417.45560370 Ha      -11359.54494400 eV
  | XC energy correction          :        -100.75533105 Ha       -2741.69205365 eV
  | XC potential correction       :         129.53095332 Ha        3524.71657554 eV
  | Free-atom electrostatic energy:        -333.61057770 Ha       -9078.00570298 eV
  | Hartree energy correction     :         -20.42949529 Ha        -555.91485159 eV
  | MBD@rsSCS energy              :           0.00000000 Ha           0.00000000 eV
  | Entropy correction            :           0.00000000 Ha           0.00000000 eV
  | ---------------------------
  | Total energy                  :        -742.72005442 Ha      -20210.44097667 eV
  | Total energy, T -> 0          :        -742.72005442 Ha      -20210.44097667 eV  <-- do not rely on this value for anything but (periodic) metals
  | Electronic free energy        :        -742.72005442 Ha      -20210.44097667 eV

  Derived energy quantities:
  | Kinetic energy                :         744.05319253 Ha       20246.71751030 eV
  | Electrostatic energy          :       -1386.01791590 Ha      -37715.46643332 eV
  | Energy correction for multipole
  | error in Hartree potential    :          -0.04134110 Ha          -1.12494862 eV
  | Sum of eigenvalues per atom                           :        -354.98577950 eV
  | Total energy (T->0) per atom                          :        -631.57628052 eV  <-- do not rely on this value for anything but (periodic) metals
  | Electronic free energy per atom                       :        -631.57628052 eV

  Self-consistency convergence accuracy:
  | Change of charge density      :  0.9025E+00
  | Change of sum of eigenvalues  :  0.5557E+03 eV
  | Change of total energy        :  0.1547E+02 eV

  End self-consistency iteration #     1       :  max(cpu_time)    wall_clock(cpu1)
  | Time for this iteration                    :        1.580 s           1.577 s
[...]
   Multipole                     : -0.283363E+00  0.235637E+00  0.434737E+00
   Pulay + GGA                   : -0.724512E+01  0.570492E+01  0.934515E+01
   MBD@rsSCS                     : -0.803872E-02 -0.132493E-01  0.203414E-01
   ----------------------------------------------------------------
   Total forces(  20)            :  0.834461E-02 -0.757106E-02  0.265954E-01
  atom #   21
   Hellmann-Feynman              : -0.500104E-01  0.144887E-01 -0.187569E-01
   Ionic forces                  :  0.000000E+00  0.000000E+00  0.000000E+00
   Multipole                     :  0.162781E-01  0.373245E-01  0.110223E-01
   Pulay + GGA                   :  0.420617E-01 -0.404189E-01  0.540147E-04
   MBD@rsSCS                     :  0.157906E-02 -0.163423E-02 -0.789938E-02
   ----------------------------------------------------------------
   Total forces(  21)            :  0.990847E-02  0.976001E-02 -0.155800E-01
  atom #   22
   Hellmann-Feynman              :  0.255658E-01 -0.525034E-01 -0.158522E-01
   Ionic forces                  :  0.000000E+00  0.000000E+00  0.000000E+00
   Multipole                     :  0.896831E-02  0.163027E-01 -0.773573E-02
   Pulay + GGA                   : -0.372249E-01  0.452087E-01  0.227314E-01
   MBD@rsSCS                     : -0.605263E-02  0.239326E-02 -0.465347E-02
   ----------------------------------------------------------------
   Total forces(  22)            : -0.874343E-02  0.114013E-01 -0.551004E-02
  atom #   23
   Hellmann-Feynman              :  0.107283E+01  0.813011E-01  0.275553E+00
   Ionic forces                  :  0.000000E+00  0.000000E+00  0.000000E+00
   Multipole                     : -0.315591E+00 -0.388424E-03 -0.161266E-01
   Pulay + GGA                   : -0.741256E+00 -0.828292E-01 -0.262550E+00
   MBD@rsSCS                     : -0.123521E-01 -0.634507E-02 -0.768650E-02
   ----------------------------------------------------------------
   Total forces(  23)            :  0.362953E-02 -0.826158E-02 -0.108102E-01
  atom #   24
   Hellmann-Feynman              : -0.242984E-01 -0.450151E-01 -0.996763E-02
   Ionic forces                  :  0.000000E+00  0.000000E+00  0.000000E+00
   Multipole                     :  0.270089E-01 -0.184098E-01  0.115750E-01
   Pulay + GGA                   : -0.311480E-03  0.641773E-01  0.108337E-02
   MBD@rsSCS                     : -0.103192E-01 -0.118971E-02 -0.582541E-02
   ----------------------------------------------------------------
   Total forces(  24)            : -0.792017E-02 -0.437303E-03 -0.313465E-02
  atom #   25
   Hellmann-Feynman              : -0.562137E-01  0.158468E-01 -0.212027E-01
   Ionic forces                  :  0.000000E+00  0.000000E+00  0.000000E+00
   Multipole                     : -0.836184E-03  0.113190E-01  0.279776E-01
   Pulay + GGA                   :  0.465659E-01 -0.326153E-01 -0.136247E-01
   MBD@rsSCS                     : -0.104367E-01 -0.633059E-02 -0.573969E-02
   ----------------------------------------------------------------
   Total forces(  25)            : -0.209207E-01 -0.117801E-01 -0.125894E-01
  atom #   26
   Hellmann-Feynman              : -0.402379E-01 -0.169512E-02 -0.335932E-01
   Ionic forces                  :  0.000000E+00  0.000000E+00  0.000000E+00
   Multipole                     :  0.255838E-01  0.147943E-01 -0.217855E-01
   Pulay + GGA                   :  0.120715E-01 -0.137141E-01  0.573915E-01
   MBD@rsSCS                     : -0.888338E-02 -0.541505E-02 -0.454112E-02
   ----------------------------------------------------------------
   Total forces(  26)            : -0.114660E-01 -0.603000E-02 -0.252834E-02
  atom #   27
   Hellmann-Feynman              :  0.162388E+01  0.318001E-01 -0.550369E+00
   Ionic forces                  :  0.000000E+00  0.000000E+00  0.000000E+00
   Multipole                     :  0.138880E+00 -0.103914E+00 -0.437684E-01
   Pulay + GGA                   : -0.176986E+01  0.929353E-01  0.584788E+00
   MBD@rsSCS                     :  0.979344E-02 -0.198754E-01  0.154168E-01
   ----------------------------------------------------------------
   Total forces(  27)            :  0.269251E-02  0.946344E-03  0.606741E-02
  atom #   28
   Hellmann-Feynman              : -0.173534E+01  0.740522E+00  0.133408E+01
   Ionic forces                  :  0.000000E+00  0.000000E+00  0.000000E+00
   Multipole                     :  0.514823E-01 -0.340444E-01 -0.672835E-01
   Pulay + GGA                   :  0.167725E+01 -0.693640E+00 -0.126522E+01
   MBD@rsSCS                     :  0.717356E-02 -0.163471E-01  0.490891E-02
   ----------------------------------------------------------------
   Total forces(  28)            :  0.570245E-03 -0.350930E-02  0.648418E-02
  atom #   29
   Hellmann-Feynman              :  0.356669E-01 -0.478934E-01  0.306863E-01
   Ionic forces                  :  0.000000E+00  0.000000E+00  0.000000E+00
   Multipole                     : -0.244738E-01  0.272838E-01  0.226161E-01
   Pulay + GGA                   : -0.134872E-01  0.258110E-01 -0.634425E-01
   MBD@rsSCS                     : -0.557426E-03 -0.151599E-02  0.693223E-02
   ----------------------------------------------------------------
   Total forces(  29)            : -0.285156E-02  0.368538E-02 -0.320779E-02
  atom #   30
   Hellmann-Feynman              :  0.396076E-01 -0.294144E-01 -0.782500E-02
   Ionic forces                  :  0.000000E+00  0.000000E+00  0.000000E+00
   Multipole                     : -0.566234E-02 -0.340850E-02  0.449963E-01
   Pulay + GGA                   : -0.375659E-01  0.381803E-01 -0.411168E-01
   MBD@rsSCS                     :  0.487306E-02 -0.408161E-02 -0.978157E-03
   ----------------------------------------------------------------
   Total forces(  30)            :  0.125238E-02  0.127583E-02 -0.492368E-02
  atom #   31
   Hellmann-Feynman              :  0.778728E-02 -0.225446E-01 -0.469772E-01
   Ionic forces                  :  0.000000E+00  0.000000E+00  0.000000E+00
   Multipole                     : -0.252511E-01 -0.196767E-01 -0.526431E-02
   Pulay + GGA                   :  0.172398E-01  0.405658E-01  0.525536E-01
   MBD@rsSCS                     :  0.867448E-02 -0.932019E-02  0.783822E-03
   ----------------------------------------------------------------
   Total forces(  31)            :  0.845046E-02 -0.109757E-01  0.109589E-02
  atom #   32
   Hellmann-Feynman              :  0.284305E-01 -0.264472E-01 -0.440766E-01
   Ionic forces                  :  0.000000E+00  0.000000E+00  0.000000E+00
   Multipole                     :  0.118042E-01  0.332367E-01  0.491160E-02
   Pulay + GGA                   : -0.332843E-01 -0.864777E-02  0.390186E-01
   MBD@rsSCS                     :  0.116746E-01 -0.125537E-01  0.115258E-02
   ----------------------------------------------------------------
   Total forces(  32)            :  0.186250E-01 -0.144119E-01  0.100619E-02

  Removing unitary transformations (pure translations, rotations) from forces on atoms.
  Atomic forces before filtering:
  | Net force on center of mass :  -0.704953E-03  0.218950E-03  0.526226E-03 eV/A
  | Net torque on center of mass:   0.230041E-02 -0.295711E-02 -0.760526E-03 eV
  Atomic forces after filtering:
  | Net force on center of mass :  -0.139380E-16  0.557519E-17  0.940814E-17 eV/A
  | Net torque on center of mass:   0.590053E-17  0.195455E-16 -0.236021E-16 eV

  Energy and forces in a compact form:
  | Total energy uncorrected      :         -0.202091554521153E+05 eV
  | Total energy corrected        :         -0.202091554521153E+05 eV  <-- do not rely on this value for anything but (periodic) metals
  | Electronic free energy        :         -0.202091554521153E+05 eV
  Total atomic forces (unitary forces cleaned) [eV/Ang]:
  |   1         -0.131950409413346E-01         -0.294499233984985E-02          0.192411572207775E-01
  |   2         -0.115975156167528E-01          0.155940126109594E-01          0.151809575978763E-01
  |   3         -0.509079407668255E-03          0.877847775968621E-03         -0.630829340948237E-02
  |   4          0.451567868907070E-02         -0.477664074513579E-02         -0.632862078163352E-03
  |   5          0.411176482043764E-02          0.613296977571993E-02          0.247280541685501E-01
  |   6         -0.230563820771678E-02         -0.473154059613740E-02          0.180619772868050E-01
  |   7         -0.103276770510949E-01          0.968485286321842E-02         -0.311391370009224E-02
  |   8          0.752222708306652E-02          0.307410969192609E-02         -0.200513766267667E-01
  |   9          0.198329774821070E-01         -0.421550892700246E-02         -0.578029679229764E-02
  |  10          0.759769202160196E-02         -0.368014435222964E-02          0.793616210183203E-02
  |  11         -0.104604681714581E-01          0.468930010094173E-02          0.131127209342974E-01
  |  12          0.522983236940750E-02         -0.261655861470828E-02         -0.512712417175470E-02
  |  13         -0.374902125697977E-02          0.794635739769454E-02         -0.114605770259561E-03
  |  14          0.177211033133425E-02          0.119287820464402E-01         -0.149064492495605E-01
  |  15          0.941960488451627E-02          0.102851411057715E-02         -0.149186102114057E-01
  |  16          0.124652798081231E-01          0.341458746010963E-02         -0.148386358578018E-01
  |  17          0.799631098312975E-02         -0.112146372923967E-01         -0.135569016127461E-01
  |  18         -0.230167281598511E-01          0.187275428184825E-01         -0.414697633425807E-02
  |  19         -0.708439697905489E-02         -0.129360831693666E-01          0.228487993165135E-01
  |  20          0.832148348762975E-02         -0.759104929804608E-02          0.265414218302231E-01
  |  21          0.994266560890479E-02          0.976082394222843E-02         -0.156204384630595E-01
  |  22         -0.869966194919958E-02          0.114046599889289E-01         -0.554068667689584E-02
  |  23          0.366991760101109E-02         -0.825358414617783E-02         -0.108900672952004E-01
  |  24         -0.788409037370485E-02         -0.429533424399364E-03         -0.322667852739914E-02
  |  25         -0.208935646987327E-01         -0.117756554388030E-01         -0.126831741644461E-01
  |  26         -0.114008966044295E-01         -0.601223553072983E-02         -0.260915222432970E-02
  |  27          0.267920219500258E-02          0.927510539419213E-03          0.603570326291881E-02
  |  28          0.576051154937315E-03         -0.352274075642555E-02          0.646977714655500E-02
  |  29         -0.288813649672393E-02          0.365747419279889E-02         -0.323975930744848E-02
  |  30          0.124290725996529E-02          0.125513997502109E-02         -0.492757158803067E-02
  |  31          0.847143314928529E-02         -0.109812241323139E-01          0.106487593022126E-02
  |  32          0.186447769851709E-01         -0.144223565267124E-01          0.101196726482862E-02

  ------------------------------------ 
  Start decomposition of the XC Energy 
  ------------------------------------ 
  Hartree-Fock part   :          0.000000000 Ha              0.000000000 eV
  ------------------------------------ 
  X Energy            :        -96.988631603 Ha          -2639.194946680 eV
  C Energy GGA        :         -3.868769054 Ha           -105.274562267 eV
  Total XC Energy     :       -100.857400657 Ha          -2744.469508947 eV
  LDA X and C from self-consistent density 
  X Energy LDA        :        -88.005224960 Ha          -2394.744014402 eV
  C Energy LDA        :         -7.532080328 Ha           -204.958333890 eV
  ------------------------------------ 
  End decomposition of the XC Energy 
  ------------------------------------ 
   
  ESP charge fitting starts.
  | Calculation :  00000001  of  00000001
  | Full density
  Computing multipole expansion for total density.
  Generating points for esp charges.
  Partitioning the integration grid into batches with parallel hashing+maxmin method.
  | Number of batches:     3858
  | Maximal batch size:     200
  | Minimal batch size:      51
  | Average batch size:     126.047
  | Standard deviation of batch sizes:      19.117

  Integration load balanced across    32 MPI tasks.
  Work distribution over tasks is as follows:
  Initializing partition tables, free-atom densities, potentials, etc. across the integration grid (initialize_grid_storage).
  | Original list of interatomic distances with          32 x         32 entries is created.
  | Net number of integration points:   486290
  | of which are non-zero points    :   486290
  Summing up potential from multipole expanded  density.
  Summing up the Hartree potential.
  Time summed over all CPUs for potential: real work        6.407 s, elapsed        6.816 s
  Fitting esp charges to potential.
  |
  | ESP charges fitted to the electrostatic potential :
  |
  | Atom         1: C, ESP charge:      0.41277925
  |
  | Atom         2: C, ESP charge:     -0.62576467
  |
  | Atom         3: O, ESP charge:      0.54765648
  |
  | Atom         4: H, ESP charge:     -0.12958572
  |
  | Atom         5: H, ESP charge:     -0.14813085
  |
  | Atom         6: H, ESP charge:     -0.10724982
  |
  | Atom         7: N, ESP charge:      0.55919297
  |
  | Atom         8: C, ESP charge:     -0.32561718
  |
  | Atom         9: C, ESP charge:     -0.61746120
  |
  | Atom        10: O, ESP charge:      0.60614944
  |
  | Atom        11: H, ESP charge:     -0.28977471
  |
  | Atom        12: H, ESP charge:     -0.03046612
  |
  | Atom        13: C, ESP charge:      0.60797995
  |
  | Atom        14: H, ESP charge:     -0.17384729
  |
  | Atom        15: H, ESP charge:     -0.16234808
  |
  | Atom        16: H, ESP charge:     -0.17044357
  |
  | Atom        17: N, ESP charge:      0.65336541
  |
  | Atom        18: C, ESP charge:     -0.59136183
  |
  | Atom        19: C, ESP charge:     -0.07934904
  |
  | Atom        20: O, ESP charge:      0.45624875
  |
  | Atom        21: H, ESP charge:     -0.29498033
  |
  | Atom        22: H, ESP charge:     -0.03769512
  |
  | Atom        23: C, ESP charge:      0.74130739
  |
  | Atom        24: H, ESP charge:     -0.19872340
  |
  | Atom        25: H, ESP charge:     -0.23699667
  |
  | Atom        26: H, ESP charge:     -0.17418238
  |
  | Atom        27: N, ESP charge:      0.11626021
  |
  | Atom        28: C, ESP charge:      0.51182545
  |
  | Atom        29: H, ESP charge:     -0.27852981
  |
  | Atom        30: H, ESP charge:     -0.18298835
  |
  | Atom        31: H, ESP charge:     -0.14148337
  |
  | Atom        32: H, ESP charge:     -0.21578580

  RRMS:       0.00451138

  Done.

------------------------------------------------------------------------------
  Final output of selected total energy values:

  The following output summarizes some interesting total energy values
  at the end of a run (AFTER all relaxation, molecular dynamics, etc.).

  | Total energy of the DFT / Hartree-Fock s.c.f. calculation      :         -20209.155452115 eV
  | Final zero-broadening corrected energy (caution - metals only) :         -20209.155452115 eV
  | For reference only, the value of 1 Hartree used in FHI-aims is :             27.211384500 eV

  Before relying on these values, please be sure to understand exactly which
  total energy value is referred to by a given number. Different objects may
  all carry the same name 'total energy'. Definitions:

  Total energy of the DFT / Hartree-Fock s.c.f. calculation:
  | Note that this energy does not include ANY quantities calculated after the
  | s.c.f. cycle, in particular not ANY RPA, MP2, etc. many-body perturbation terms.

  Final zero-broadening corrected energy:
  | For metallic systems only, a broadening of the occupation numbers at the Fermi
  | level can be extrapolated back to zero broadening by an electron-gas inspired
  | formula. For all systems that are not real metals, this value can be
  | meaningless and should be avoided.

------------------------------------------------------------------------------
  Methods described in the following list of references were used in this FHI-aims run.
  If you publish the results, please make sure to cite these reference if they apply.
  FHI-aims is an academic code, and for our developers (often, Ph.D. students
  and postdocs), scientific credit in the community is essential.
  Thank you for helping us!

  For any use of FHI-aims, please cite:

    Volker Blum, Ralf Gehrke, Felix Hanke, Paula Havu, Ville Havu,
    Xinguo Ren, Karsten Reuter, and Matthias Scheffler
    'Ab initio molecular simulations with numeric atom-centered orbitals'
    Computer Physics Communications 180, 2175-2196 (2009)
    http://dx.doi.org/10.1016/j.cpc.2009.06.022


  The scalable eigensolver library ELPA was used in your run.
  ELPA is essential especially for large systems on hundreds or thousands of CPUs.
  For ELPA, please cite:

    Andreas Marek, Volker Blum, Rainer Johanni, Ville Havu, Bruno Lang,
    Thomas Auckenthaler, Alexander Heinecke, Hans-Joachim Bungartz, and Hermann Lederer,
    'The ELPA Library - Scalable Parallel Eigenvalue Solutions
    for Electronic Structure Theory and Computational Science'
    The Journal of Physics: Condensed Matter 26, 213201 (2014).
    http://dx.doi.org/10.1088/0953-8984/26/21/213201


  For ELPA's efficient two-stage tridiagonalization used in your run, please cite:

    T. Auckenthaler, V. Blum, H.-J. Bungartz, T. Huckle, R. Johanni, L. Kraemer,
    B. Lang, H. Lederer, and P. R. Willems,
    'Parallel solution of partial symmetric eigenvalue problems'
    'from  electronic structure calculations'
    Parallel Computing 37, 783-794 (2011).
    http://dx.doi.org/10.1016/j.parco.2011.05.002


  For the real-space grid partitioning and parallelization used in this calculation, please cite:

    Ville Havu, Volker Blum, Paula Havu, and Matthias Scheffler,
    'Efficient O(N) integration for all-electron electronic structure calculation'
    'using numerically tabulated basis functions'
    Journal of Computational Physics 228, 8367-8379 (2009).
    http://dx.doi.org/10.1016/j.jcp.2009.08.008

  Of course, there are many other important community references, e.g., those cited in the
  above references. Our list is limited to references that describe implementations in the
  FHI-aims code. The reason is purely practical (length of this list) - please credit others as well.

------------------------------------------------------------
          Leaving FHI-aims.
          Date     :  20170309, Time     :  181644.650

          Computational steps:
          | Number of self-consistency cycles          :           14

          Detailed time accounting                     :  max(cpu_time)    wall_clock(cpu1)
          | Total time                                 :       34.014 s          34.204 s
          | Preparation time                           :        0.240 s           0.243 s
          | Grid partitioning                          :        0.304 s           0.300 s
          | Preloading free-atom quantities on grid    :        0.028 s           0.027 s
          | Free-atom superposition energy             :        0.044 s           0.041 s
          | Total time for integrations                :       11.233 s          11.222 s
          | Total time for solution of K.-S. equations :        0.528 s           0.496 s
          | Total time for density & force components  :        9.957 s           9.940 s
          | Total time for mixing                      :        0.124 s           0.106 s
          | Total time for Hartree multipole update    :        0.080 s           0.057 s
          | Total time for Hartree multipole sum       :        6.572 s           6.562 s
          | Total time for total energy evaluation     :        0.032 s           0.023 s

          Have a nice day.
------------------------------------------------------------
