  MPI-parallelism will be employed.
------------------------------------------------------------
          Invoking FHI-aims ...
          Version 150427
          Git rev.: 9dd23e0 BL: Update Version stamp
          Compiled on 2015/11/03 at 22:05:20 on host eos03.

          When using FHI-aims, please cite the following reference:

          Volker Blum, Ralf Gehrke, Felix Hanke, Paula Havu,
          Ville Havu, Xinguo Ren, Karsten Reuter, and Matthias Scheffler,
          'Ab Initio Molecular Simulations with Numeric Atom-Centered Orbitals: FHI-aims',
          Computer Physics Communications 180, 2175-2196 (2009)

          For any questions about FHI-aims, please visit the aimsclub website
          with its forums and wiki. Contributions to both the forums and the
          wiki are warmly encouraged - they are for you, and everyone is welcome there.

------------------------------------------------------------

  Date     :  20170309, Time     :  184655.439
  Time zero on CPU 1             :   0.420026000000000E+00  s.
  Internal wall clock time zero  :           258317215.439  s.

  Using       32 parallel tasks.
  Task        0 on host eos366 reporting.
  Task        1 on host eos366 reporting.
  Task        2 on host eos366 reporting.
  Task        3 on host eos366 reporting.
  Task        4 on host eos366 reporting.
  Task        5 on host eos366 reporting.
  Task        6 on host eos366 reporting.
  Task        7 on host eos366 reporting.
  Task        8 on host eos366 reporting.
  Task        9 on host eos366 reporting.
  Task       10 on host eos366 reporting.
  Task       11 on host eos366 reporting.
  Task       12 on host eos366 reporting.
  Task       13 on host eos366 reporting.
  Task       14 on host eos366 reporting.
  Task       15 on host eos366 reporting.
  Task       16 on host eos366 reporting.
  Task       17 on host eos366 reporting.
  Task       18 on host eos366 reporting.
  Task       19 on host eos366 reporting.
  Task       20 on host eos366 reporting.
  Task       21 on host eos366 reporting.
  Task       22 on host eos366 reporting.
  Task       23 on host eos366 reporting.
  Task       24 on host eos366 reporting.
  Task       25 on host eos366 reporting.
  Task       26 on host eos366 reporting.
  Task       27 on host eos366 reporting.
  Task       28 on host eos366 reporting.
  Task       29 on host eos366 reporting.
  Task       30 on host eos366 reporting.
  Task       31 on host eos366 reporting.

  Performing system and environment tests:
  | Environment variable OMP_NUM_THREADS correctly set to 1.
  | Stacksize not measured: no C compiler
  | Checking for scalapack...
  | Testing pdtran()...
  | All pdtran() tests passed.

  Obtaining array dimensions for all initial allocations:
  
  -----------------------------------------------------------------------
  Parsing control.in (first pass over file, find array dimensions only).
  The contents of control.in will be repeated verbatim below
  unless switched off by setting 'verbatim_writeout .false.' .
  in the first line of control.in .
  -----------------------------------------------------------------------
  
  #########################################################################################
  #
  # Input for System
  #
  #########################################################################################
  #
  #
  #  Physical model
  #
    xc                 pbe
    many_body_dispersion
    spin               none
    charge             0.
  #
  #  SCF convergence
  #
    occupation_type    gaussian 0.05
    mixer              pulay
      n_max_pulay        10
      charge_mix_param   0.5
    sc_accuracy_rho    1E-4
    sc_accuracy_eev    1E-2
    sc_accuracy_etot   1E-5
    sc_accuracy_forces 1E-4
    sc_iter_limit      1000
  #
  #  ESP charge
  #
    output esp
    esp equal_grid_n 80 80 80
  #
  #
  ################################################################################
  #
  #  FHI-aims code project
  # Volker Blum, Fritz Haber Institute Berlin, 2009
  #
  #  Suggested "tight" defaults for H atom (to be pasted into control.in file)
  #
  ################################################################################
    species        H
  #     global species definitions
      nucleus             1
      mass                1.00794
  #
      l_hartree           6
  #
      cut_pot             4.0  2.0  1.0
      basis_dep_cutoff    1e-4
  #
      radial_base         24 7.0
      radial_multiplier   2
      angular_grids       specified
        division   0.1930   50
        division   0.3175  110
        division   0.4293  194
        division   0.5066  302
        division   0.5626  434
  #      division   0.5922  590
  #      division   0.6227  974
  #      division   0.6868 1202
  #      outer_grid  770
        outer_grid  434
  ################################################################################
  #
  #  Definition of "minimal" basis
  #
  ################################################################################
  #     valence basis states
      valence      1  s   1.
  #     ion occupancy
      ion_occ      1  s   0.5
  ################################################################################
  #
  #  Suggested additional basis functions. For production calculations,
  #  uncomment them one after another (the most important basis functions are
  #  listed first).
  #
  #  Basis constructed for dimers: 0.5 A, 0.7 A, 1.0 A, 1.5 A, 2.5 A
  #
  ################################################################################
  #  "First tier" - improvements: -1014.90 meV to -62.69 meV
       hydro 2 s 2.1
       hydro 2 p 3.5
  #  "Second tier" - improvements: -12.89 meV to -1.83 meV
       hydro 1 s 0.85
       hydro 2 p 3.7
       hydro 2 s 1.2
       hydro 3 d 7
  #  "Third tier" - improvements: -0.25 meV to -0.12 meV
  #     hydro 4 f 11.2
  #     hydro 3 p 4.8
  #     hydro 4 d 9
  #     hydro 3 s 3.2
  ################################################################################
  #
  # For methods that use the localized form of the "resolution of identity" for
  # the two-electron Coulomb operator (RI_method LVL), particularly Hartree-Fock and
  # hybrid density functional calculations, the highest accuracy can be obtained by
  # uncommenting the line beginning with "for_aux"  below, thus adding an extra g radial
  # function to the construction of the product basis set for the expansion.
  # See Ref. New J. Phys. 17, 093020 (2015) for more information, particularly Figs. 1 and 6.
  #
  ################################################################################
  #
  # for_aux hydro 5 g 6.0
  ################################################################################
  #
  #  FHI-aims code project
  # Volker Blum, Fritz Haber Institute Berlin, 2009
  #
  #  Suggested "tight" defaults for C atom (to be pasted into control.in file)
  #
  ################################################################################
    species        C
  #     global species definitions
      nucleus             6
      mass                12.0107
  #
      l_hartree           6
  #
      cut_pot             4.0  2.0  1.0
      basis_dep_cutoff    1e-4
  #
      radial_base         34 7.0
      radial_multiplier   2
      angular_grids specified
        division   0.2187   50
        division   0.4416  110
        division   0.6335  194
        division   0.7727  302
        division   0.8772  434
  #      division   0.9334  590
  #      division   0.9924  770
  #      division   1.0230  974
  #      division   1.5020 1202
  #     outer_grid  974
        outer_grid  434
  ################################################################################
  #
  #  Definition of "minimal" basis
  #
  ################################################################################
  #     valence basis states
      valence      2  s   2.
      valence      2  p   2.
  #     ion occupancy
      ion_occ      2  s   1.
      ion_occ      2  p   1.
  ################################################################################
  #
  #  Suggested additional basis functions. For production calculations,
  #  uncomment them one after another (the most important basis functions are
  #  listed first).
  #
  #  Constructed for dimers: 1.0 A, 1.25 A, 1.5 A, 2.0 A, 3.0 A
  #
  ################################################################################
  #  "First tier" - improvements: -1214.57 meV to -155.61 meV
       hydro 2 p 1.7
       hydro 3 d 6
       hydro 2 s 4.9
  #  "Second tier" - improvements: -67.75 meV to -5.23 meV
       hydro 4 f 9.8
       hydro 3 p 5.2
       hydro 3 s 4.3
       hydro 5 g 14.4
       hydro 3 d 6.2
  #  "Third tier" - improvements: -2.43 meV to -0.60 meV
  #     hydro 2 p 5.6
  #     hydro 2 s 1.4
  #     hydro 3 d 4.9
  #     hydro 4 f 11.2
  #  "Fourth tier" - improvements: -0.39 meV to -0.18 meV
  #     hydro 2 p 2.1
  #     hydro 5 g 16.4
  #     hydro 4 d 13.2
  #     hydro 3 s 13.6
  #     hydro 4 f 17.6
  #  Further basis functions - improvements: -0.08 meV and below
  #     hydro 3 s 2
  #     hydro 3 p 6
  #     hydro 4 d 20
  ################################################################################
  #
  # For methods that use the localized form of the "resolution of identity" for
  # the two-electron Coulomb operator (RI_method LVL), particularly Hartree-Fock and
  # hybrid density functional calculations, the highest accuracy can be obtained by
  # uncommenting the line beginning with "for_aux"  below, thus adding an extra g radial
  # function to the construction of the product basis set for the expansion.
  # See Ref. New J. Phys. 17, 093020 (2015) for more information, particularly Figs. 1 and 6.
  #
  ################################################################################
  #
  # for_aux hydro 5 g 6.0
  ################################################################################
  #
  #  FHI-aims code project
  # Volker Blum, Fritz Haber Institute Berlin, 2009
  #
  #  Suggested "tight" defaults for N atom (to be pasted into control.in file)
  #
  ################################################################################
    species        N
  #     global species definitions
      nucleus             7
      mass                14.0067
  #
      l_hartree           6
  #
      cut_pot             4.0  2.0  1.0
      basis_dep_cutoff    1e-4
  #
      radial_base         35 7.0
      radial_multiplier   2
      angular_grids       specified
        division   0.1841   50
        division   0.3514  110
        division   0.5126  194
        division   0.6292  302
        division   0.6939  434
  #      division   0.7396  590
  #      division   0.7632  770
  #      division   0.8122  974
  #      division   1.1604 1202
  #      outer_grid  974
        outer_grid  434
  ################################################################################
  #
  #  Definition of "minimal" basis
  #
  ################################################################################
  #     valence basis states
      valence      2  s   2.
      valence      2  p   3.
  #     ion occupancy
      ion_occ      2  s   1.
      ion_occ      2  p   2.
  ################################################################################
  #
  #  Suggested additional basis functions. For production calculations,
  #  uncomment them one after another (the most important basis functions are
  #  listed first).
  #
  #  Constructed for dimers: 1.0 A, 1.1 A, 1.5 A, 2.0 A, 3.0 A
  #
  ################################################################################
  #  "First tier" - improvements: -1193.42 meV to -220.60 meV
       hydro 2 p 1.8
       hydro 3 d 6.8
       hydro 3 s 5.8
  #  "Second tier" - improvements: -80.21 meV to -6.86 meV
       hydro 4 f 10.8
       hydro 3 p 5.8
       hydro 1 s 0.8
       hydro 5 g 16
       hydro 3 d 4.9
  #  "Third tier" - improvements: -4.29 meV to -0.53 meV
  #     hydro 3 s 16
  #     ionic 2 p auto
  #     hydro 3 d 6.6
  #     hydro 4 f 11.6
  #  "Fourth tier" - improvements: -0.75 meV to -0.25 meV
  #     hydro 2 p 4.5
  #     hydro 2 s 2.4
  #     hydro 5 g 14.4
  #     hydro 4 d 14.4
  #     hydro 4 f 16.8
  # Further basis functions - -0.21 meV and below
  #     hydro 3 p 14.8
  #     hydro 3 s 4.4
  #     hydro 3 d 19.6
  #     hydro 5 g 12.8
  ################################################################################
  #
  # For methods that use the localized form of the "resolution of identity" for
  # the two-electron Coulomb operator (RI_method LVL), particularly Hartree-Fock and
  # hybrid density functional calculations, the highest accuracy can be obtained by
  # uncommenting the line beginning with "for_aux"  below, thus adding an extra g radial
  # function to the construction of the product basis set for the expansion.
  # See Ref. New J. Phys. 17, 093020 (2015) for more information, particularly Figs. 1 and 6.
  #
  ################################################################################
  #
  # for_aux hydro 5 g 6.0
  ################################################################################
  #
  #  FHI-aims code project
  # Volker Blum, Fritz Haber Institute Berlin, 2009
  #
  #  Suggested "tight" defaults for O atom (to be pasted into control.in file)
  #
  ################################################################################
    species        O
  #     global species definitions
      nucleus             8
      mass                15.9994
  #
      l_hartree           6
  #
      cut_pot             4.0  2.0  1.0
      basis_dep_cutoff    1e-4
  #
      radial_base         36 7.0
      radial_multiplier   2
       angular_grids specified
        division   0.1817   50
        division   0.3417  110
        division   0.4949  194
        division   0.6251  302
        division   0.8014  434
  #      division   0.8507  590
  #      division   0.8762  770
  #      division   0.9023  974
  #      division   1.2339 1202
  #      outer_grid 974
        outer_grid  434
  ################################################################################
  #
  #  Definition of "minimal" basis
  #
  ################################################################################
  #     valence basis states
      valence      2  s   2.
      valence      2  p   4.
  #     ion occupancy
      ion_occ      2  s   1.
      ion_occ      2  p   3.
  ################################################################################
  #
  #  Suggested additional basis functions. For production calculations,
  #  uncomment them one after another (the most important basis functions are
  #  listed first).
  #
  #  Constructed for dimers: 1.0 A, 1.208 A, 1.5 A, 2.0 A, 3.0 A
  #
  ################################################################################
  #  "First tier" - improvements: -699.05 meV to -159.38 meV
       hydro 2 p 1.8
       hydro 3 d 7.6
       hydro 3 s 6.4
  #  "Second tier" - improvements: -49.91 meV to -5.39 meV
       hydro 4 f 11.6
       hydro 3 p 6.2
       hydro 3 d 5.6
       hydro 5 g 17.6
       hydro 1 s 0.75
  #  "Third tier" - improvements: -2.83 meV to -0.50 meV
  #     ionic 2 p auto
  #     hydro 4 f 10.8
  #     hydro 4 d 4.7
  #     hydro 2 s 6.8
  #  "Fourth tier" - improvements: -0.40 meV to -0.12 meV
  #     hydro 3 p 5
  #     hydro 3 s 3.3
  #     hydro 5 g 15.6
  #     hydro 4 f 17.6
  #     hydro 4 d 14
  # Further basis functions - -0.08 meV and below
  #     hydro 3 s 2.1
  #     hydro 4 d 11.6
  #     hydro 3 p 16
  #     hydro 2 s 17.2
  ################################################################################
  #
  # For methods that use the localized form of the "resolution of identity" for
  # the two-electron Coulomb operator (RI_method LVL), particularly Hartree-Fock and
  # hybrid density functional calculations, the highest accuracy can be obtained by
  # uncommenting the line beginning with "for_aux"  below, thus adding an extra g radial
  # function to the construction of the product basis set for the expansion.
  # See Ref. New J. Phys. 17, 093020 (2015) for more information, particularly Figs. 1 and 6.
  #
  ################################################################################
  #
  # for_aux hydro 5 g 6.0
  
  -----------------------------------------------------------------------
  Completed first pass over input file control.in .
  -----------------------------------------------------------------------
  
  
  -----------------------------------------------------------------------
  Parsing geometry.in (first pass over file, find array dimensions only).
  The contents of geometry.in will be repeated verbatim below
  unless switched off by setting 'verbatim_writeout .false.' .
  in the first line of geometry.in .
  -----------------------------------------------------------------------
  
  #
  # This is the geometry file that corresponds to the current relaxation step.
  # If you do not want this file to be written, set the "write_restart_geometry" flag to .false.
  #
  atom       0.12482738     -1.42699974      0.65095785 C
  atom       0.02038851     -0.92023917      2.08181392 C
  atom       0.96921665     -0.97698844      2.85981341 O
  atom       1.11929095     -1.86191205      0.52169983 H
  atom       0.00155775     -0.60761142     -0.07239953 H
  atom      -0.63186663     -2.19011026      0.42254636 H
  atom      -1.17738599     -0.37570887      2.46519614 N
  atom      -2.40249998     -0.25577008      1.70036202 C
  atom      -3.16522820      0.96264966      2.25809150 C
  atom      -3.09004982      1.27968817      3.44167795 O
  atom      -1.22494512     -0.01349529      3.41738900 H
  atom      -2.15405788     -0.07005897      0.64400810 H
  atom      -3.30249230     -1.50397305      1.80499861 C
  atom      -4.21876859     -1.39226728      1.20845967 H
  atom      -3.58695732     -1.67248685      2.85129666 H
  atom      -2.76584263     -2.39136618      1.44720929 H
  atom      -3.93905942      1.62358750      1.34949523 N
  atom      -4.93264441      2.63056054      1.75419654 C
  atom      -5.98392687      2.81773503      0.64771928 C
  atom      -7.17782960      2.70618409      0.90735760 O
  atom      -4.05255003      1.19991749      0.43458155 H
  atom      -5.50270742      2.22221290      2.59996864 H
  atom      -4.30803677      3.95925039      2.20794766 C
  atom      -3.69077678      4.42196575      1.42919761 H
  atom      -3.68204784      3.78420238      3.08955386 H
  atom      -5.10677951      4.66022822      2.48283913 H
  atom      -5.56687292      3.06914188     -0.64007169 N
  atom      -4.29455883      3.59495020     -1.12083355 C
  atom      -6.36397836      3.19414957     -1.25996023 H
  atom      -4.14592347      3.27833400     -2.16074556 H
  atom      -3.46002248      3.20569764     -0.52971556 H
  atom      -4.25714007      4.69523526     -1.08410429 H
  
  -----------------------------------------------------------------------
  Completed first pass over input file geometry.in .
  -----------------------------------------------------------------------
  

  Basic array size parameters:
  | Number of species                 :        4
  | Number of atoms                   :       32
  | Max. basis fn. angular momentum   :        4
  | Max. atomic/ionic basis occupied n:        2
  | Max. number of basis fn. types    :        2
  | Max. radial fns per species/type  :        8
  | Max. logarithmic grid size        :     1301
  | Max. radial integration grid size :       73
  | Max. angular integration grid size:      434
  | Max. angular grid division number :        8
  | Radial grid for Hartree potential :     1301
  | Number of spin channels           :        1

------------------------------------------------------------
          Reading file control.in.
------------------------------------------------------------
  XC: Using PBE gradient-corrected functionals.
  Self-consistent screening and van der Waals energy (TS, TS+SCS,MBD) module
  Spin treatment: No spin polarisation.
  Charge =   0.000000E+00: Neutral system requested explicitly.
  Occupation type: Gaussian broadening, width =   0.500000E-01 eV.
  Using pulay charge density mixing.
  Pulay mixing - number of memorized iterations:   10
  Charge density mixing - mixing parameter:     0.5000
  Convergence accuracy of self-consistent charge density:  0.1000E-03
  Convergence accuracy of sum of eigenvalues:  0.1000E-01
  Convergence accuracy of total energy:  0.1000E-04
  Convergence accuracy of forces:  0.1000E-03
  Maximum number of s.-c. iterations  :  1000
  Fitting ESP-charges to Potential. 
  | Esp charge output options: 
  | ESP Grid method: 3, cubic grid
  | Number of points in x, ,y, z:  0080 0080 0080
  |
 
  Reading configuration options for species H                   .
  | Found nuclear charge :   1.0000
  | Found atomic mass :    1.00794000000000      amu
  | Found l_max for Hartree potential  :   6
  | Found cutoff potl. onset [A], width [A], scale factor :    4.00000    2.00000    1.00000
  | Threshold for basis-dependent cutoff potential is   0.100000E-03
  | Found data for basic radial integration grid :    24 points, outermost radius =    7.000 A
  | Found multiplier for basic radial grid :   2
  | Found angular grid specification: user-specified.
  | Specified grid contains     6 separate shells.
  | Check grid settings after all constraints further below.
  | Found free-atom valence shell :  1 s   1.000
  | No ionic wave fns used. Skipping ion_occ.
  | Found hydrogenic basis function :  2 s   2.100
  | Found hydrogenic basis function :  2 p   3.500
  | Found hydrogenic basis function :  1 s   0.850
  | Found hydrogenic basis function :  2 p   3.700
  | Found hydrogenic basis function :  2 s   1.200
  | Found hydrogenic basis function :  3 d   7.000
  Species H                   : Missing cutoff potential type.
  Defaulting to exp(1/x)/(1-x)^2 type cutoff potential.
  Species H : No 'logarithmic' tag. Using default grid for free atom:
  | Default logarithmic grid data [bohr] : 0.1000E-03 0.1000E+03 0.1012E+01
  Species H : On-site basis accuracy parameter (for Gram-Schmidt orthonormalisation) not specified.
  Using default value basis_acc =  0.1000000E-03.
  Species H                   : Using default innermost maximum threshold i_radial=  2 for radial functions.
  Species H                   : Default cutoff onset for free atom density etc. : 0.40000000E+01 AA.
  Species H                   : Basic radial grid will be enhanced according to radial_multiplier =   2, to contain    49 grid points.
 
  Reading configuration options for species C                   .
  | Found nuclear charge :   6.0000
  | Found atomic mass :    12.0107000000000      amu
  | Found l_max for Hartree potential  :   6
  | Found cutoff potl. onset [A], width [A], scale factor :    4.00000    2.00000    1.00000
  | Threshold for basis-dependent cutoff potential is   0.100000E-03
  | Found data for basic radial integration grid :    34 points, outermost radius =    7.000 A
  | Found multiplier for basic radial grid :   2
  | Found angular grid specification: user-specified.
  | Specified grid contains     6 separate shells.
  | Check grid settings after all constraints further below.
  | Found free-atom valence shell :  2 s   2.000
  | Found free-atom valence shell :  2 p   2.000
  | No ionic wave fns used. Skipping ion_occ.
  | No ionic wave fns used. Skipping ion_occ.
  | Found hydrogenic basis function :  2 p   1.700
  | Found hydrogenic basis function :  3 d   6.000
  | Found hydrogenic basis function :  2 s   4.900
  | Found hydrogenic basis function :  4 f   9.800
  | Found hydrogenic basis function :  3 p   5.200
  | Found hydrogenic basis function :  3 s   4.300
  | Found hydrogenic basis function :  5 g  14.400
  | Found hydrogenic basis function :  3 d   6.200
  Species C                   : Missing cutoff potential type.
  Defaulting to exp(1/x)/(1-x)^2 type cutoff potential.
  Species C : No 'logarithmic' tag. Using default grid for free atom:
  | Default logarithmic grid data [bohr] : 0.1000E-03 0.1000E+03 0.1012E+01
  Species C : On-site basis accuracy parameter (for Gram-Schmidt orthonormalisation) not specified.
  Using default value basis_acc =  0.1000000E-03.
  Species C                   : Using default innermost maximum threshold i_radial=  2 for radial functions.
  Species C                   : Default cutoff onset for free atom density etc. : 0.40000000E+01 AA.
  Species C                   : Basic radial grid will be enhanced according to radial_multiplier =   2, to contain    69 grid points.
 
  Reading configuration options for species N                   .
  | Found nuclear charge :   7.0000
  | Found atomic mass :    14.0067000000000      amu
  | Found l_max for Hartree potential  :   6
  | Found cutoff potl. onset [A], width [A], scale factor :    4.00000    2.00000    1.00000
  | Threshold for basis-dependent cutoff potential is   0.100000E-03
  | Found data for basic radial integration grid :    35 points, outermost radius =    7.000 A
  | Found multiplier for basic radial grid :   2
  | Found angular grid specification: user-specified.
  | Specified grid contains     6 separate shells.
  | Check grid settings after all constraints further below.
  | Found free-atom valence shell :  2 s   2.000
  | Found free-atom valence shell :  2 p   3.000
  | No ionic wave fns used. Skipping ion_occ.
  | No ionic wave fns used. Skipping ion_occ.
  | Found hydrogenic basis function :  2 p   1.800
  | Found hydrogenic basis function :  3 d   6.800
  | Found hydrogenic basis function :  3 s   5.800
  | Found hydrogenic basis function :  4 f  10.800
  | Found hydrogenic basis function :  3 p   5.800
  | Found hydrogenic basis function :  1 s   0.800
  | Found hydrogenic basis function :  5 g  16.000
  | Found hydrogenic basis function :  3 d   4.900
  Species N                   : Missing cutoff potential type.
  Defaulting to exp(1/x)/(1-x)^2 type cutoff potential.
  Species N : No 'logarithmic' tag. Using default grid for free atom:
  | Default logarithmic grid data [bohr] : 0.1000E-03 0.1000E+03 0.1012E+01
  Species N : On-site basis accuracy parameter (for Gram-Schmidt orthonormalisation) not specified.
  Using default value basis_acc =  0.1000000E-03.
  Species N                   : Using default innermost maximum threshold i_radial=  2 for radial functions.
  Species N                   : Default cutoff onset for free atom density etc. : 0.40000000E+01 AA.
  Species N                   : Basic radial grid will be enhanced according to radial_multiplier =   2, to contain    71 grid points.
 
  Reading configuration options for species O                   .
  | Found nuclear charge :   8.0000
  | Found atomic mass :    15.9994000000000      amu
  | Found l_max for Hartree potential  :   6
  | Found cutoff potl. onset [A], width [A], scale factor :    4.00000    2.00000    1.00000
  | Threshold for basis-dependent cutoff potential is   0.100000E-03
  | Found data for basic radial integration grid :    36 points, outermost radius =    7.000 A
  | Found multiplier for basic radial grid :   2
  | Found angular grid specification: user-specified.
  | Specified grid contains     6 separate shells.
  | Check grid settings after all constraints further below.
  | Found free-atom valence shell :  2 s   2.000
  | Found free-atom valence shell :  2 p   4.000
  | No ionic wave fns used. Skipping ion_occ.
  | No ionic wave fns used. Skipping ion_occ.
  | Found hydrogenic basis function :  2 p   1.800
  | Found hydrogenic basis function :  3 d   7.600
  | Found hydrogenic basis function :  3 s   6.400
  | Found hydrogenic basis function :  4 f  11.600
  | Found hydrogenic basis function :  3 p   6.200
  | Found hydrogenic basis function :  3 d   5.600
  | Found hydrogenic basis function :  5 g  17.600
  | Found hydrogenic basis function :  1 s   0.750
  Species O                   : Missing cutoff potential type.
  Defaulting to exp(1/x)/(1-x)^2 type cutoff potential.
  Species O : No 'logarithmic' tag. Using default grid for free atom:
  | Default logarithmic grid data [bohr] : 0.1000E-03 0.1000E+03 0.1012E+01
  Species O : On-site basis accuracy parameter (for Gram-Schmidt orthonormalisation) not specified.
  Using default value basis_acc =  0.1000000E-03.
  Species O                   : Using default innermost maximum threshold i_radial=  2 for radial functions.
  Species O                   : Default cutoff onset for free atom density etc. : 0.40000000E+01 AA.
  Species O                   : Basic radial grid will be enhanced according to radial_multiplier =   2, to contain    73 grid points.
 
  Finished reading input file 'control.in'. Consistency checks are next.
 
  Target number of points in a grid batch is not set. Defaulting to  100
  Method for grid partitioning is not set. Defaulting to parallel hash+maxmin partitioning.
  Batch size limit is not set. Defaulting to    200
  By default, will store active basis functions for each batch.
  If in need of memory, prune_basis_once .false. can be used to disable this option.
  communication_type for Hartree potential was not specified.
  Defaulting to calc_hartree .
  Pulay mixer: Number of initial linear mixing iterations not set.
  Defaulting to    0 iterations.
  Work space size for distributed Hartree potential not set.
  Defaulting to   0.200000E+03 MB.
  Algorithm-dependent basis array size parameters:
  | n_max_pulay                         :       10
  Geometry relaxation not requested: no relaxation will be performed.
  Handling of forces: Unphysical translation and rotation will be removed from forces.
  No accuracy limit for integral partition fn. given. Defaulting to  0.1000E-14.
  No threshold value for u(r) in integrations given. Defaulting to  0.1000E-05.
  No accuracy for occupation numbers given. Defaulting to  0.1000E-07.
  No threshold value for occupation numbers given. Defaulting to  0.0000E+00.
  No accuracy for fermi level given. Defaulting to  0.1000E-19.
  Maximum # of iterations to find E_F not set. Defaulting to  200.
  Preferred method for the eigenvalue solver ('KS_method') not specified in 'control.in'.
  Calling blacs routine to test compilation state
  Since scalapack support is enabled, defaulting to 'elpa'.
  Preferred method for the MBD eigenvalue solver ('mbd_eigensolver') not specified in 'control.in'.
  Calling blacs routine to test compilation state
  Since scalapack support is enabled, defaulting to 'scaLAPACK'.
  Will not use alltoall communication since running on < 1024 CPUs.
  Threshold for basis singularities not set.
  Default threshold for basis singularities:  0.1000E-04
  partition_type (choice of integration weights) for integrals was not specified.
  | Using a version of the partition function of Stratmann and coworkers ('stratmann_smoother').
  | At each grid point, the set of atoms used to build the partition table is smoothly restricted to
  | only those atoms whose free-atom density would be non-zero at that grid point.
  Partitioning for Hartree potential was not defined. Using partition_type for integrals.
  | Adjusted default value of keyword multip_moments_threshold to:       0.10000000E-11
  | This value may affect high angular momentum components of the Hartree potential in periodic systems.
  No q(lm)/r^(l+1) cutoff set for long-range Hartree potential.
  | Using default value of  0.100000E-09 .
  | Verify using the multipole_threshold keyword.
  Defaulting to new monopole extrapolation.
  Density update method: automatic selection selected.
------------------------------------------------------------


------------------------------------------------------------
          Reading geometry description geometry.in.
------------------------------------------------------------
 * Warning! You did not set the 'relativistic' flag in input file 'control.in'.
 * Since you are not attempting to treat any elements beyond Ca(Z=20), FHI-aims
 * will default to 'relativistic none'.
 * You must ensure that this is really what you want!!
 * For example, DO NOT compute total-energy differences between results from
 * different settings of the 'relativistic' flag.
  Input structure read successfully.
  The structure contains       32 atoms,  and a total of        116.000 electrons.

  Input geometry:
  | No unit cell requested.
  | Atomic structure:
  |       Atom                x [A]            y [A]            z [A]
  |    1: Species C              0.124827        -1.427000         0.650958
  |    2: Species C              0.020389        -0.920239         2.081814
  |    3: Species O              0.969217        -0.976988         2.859813
  |    4: Species H              1.119291        -1.861912         0.521700
  |    5: Species H              0.001558        -0.607611        -0.072400
  |    6: Species H             -0.631867        -2.190110         0.422546
  |    7: Species N             -1.177386        -0.375709         2.465196
  |    8: Species C             -2.402500        -0.255770         1.700362
  |    9: Species C             -3.165228         0.962650         2.258091
  |   10: Species O             -3.090050         1.279688         3.441678
  |   11: Species H             -1.224945        -0.013495         3.417389
  |   12: Species H             -2.154058        -0.070059         0.644008
  |   13: Species C             -3.302492        -1.503973         1.804999
  |   14: Species H             -4.218769        -1.392267         1.208460
  |   15: Species H             -3.586957        -1.672487         2.851297
  |   16: Species H             -2.765843        -2.391366         1.447209
  |   17: Species N             -3.939059         1.623587         1.349495
  |   18: Species C             -4.932644         2.630561         1.754197
  |   19: Species C             -5.983927         2.817735         0.647719
  |   20: Species O             -7.177830         2.706184         0.907358
  |   21: Species H             -4.052550         1.199917         0.434582
  |   22: Species H             -5.502707         2.222213         2.599969
  |   23: Species C             -4.308037         3.959250         2.207948
  |   24: Species H             -3.690777         4.421966         1.429198
  |   25: Species H             -3.682048         3.784202         3.089554
  |   26: Species H             -5.106780         4.660228         2.482839
  |   27: Species N             -5.566873         3.069142        -0.640072
  |   28: Species C             -4.294559         3.594950        -1.120834
  |   29: Species H             -6.363978         3.194150        -1.259960
  |   30: Species H             -4.145923         3.278334        -2.160746
  |   31: Species H             -3.460022         3.205698        -0.529716
  |   32: Species H             -4.257140         4.695235        -1.084104
  |

  | The smallest distance between any two atoms is         1.01461492 AA.
  |
  | The first atom of this pair is atom number                     17 .
  | The second atom of this pair is atom number                    21 .

  Number of empty states per atom not set in control.in - providing a guess from actual geometry.
  | Total number of empty states used during s.c.f. cycle:       71
  If you use a very high smearing, use empty_states (per atom!) in control.in to increase this value.

  Structure-dependent array size parameters: 
  | Maximum number of distinct radial functions  :       40
  | Maximum number of basis functions            :      840
  | Number of Kohn-Sham states (occupied + empty):      129
------------------------------------------------------------

------------------------------------------------------------
          Preparing all fixed parts of the calculation.
------------------------------------------------------------
  Determining machine precision:
    2.225073858507201E-308
  Setting up grids for atomic and cluster calculations.

  Creating wave function, potential, and density for free atoms.

  Species: H

  List of occupied orbitals and eigenvalues:
    n    l              occ      energy [Ha]    energy [eV]
    1    0           1.0000        -0.238382        -6.4867


  Species: C

  List of occupied orbitals and eigenvalues:
    n    l              occ      energy [Ha]    energy [eV]
    1    0           2.0000       -10.041232      -273.2358
    2    0           2.0000        -0.504327       -13.7234
    2    1           2.0000        -0.193750        -5.2722


  Species: N

  List of occupied orbitals and eigenvalues:
    n    l              occ      energy [Ha]    energy [eV]
    1    0           2.0000       -14.129007      -384.4699
    2    0           2.0000        -0.681802       -18.5528
    2    1           3.0000        -0.260543        -7.0897


  Species: O

  List of occupied orbitals and eigenvalues:
    n    l              occ      energy [Ha]    energy [eV]
    1    0           2.0000       -18.898576      -514.2564
    2    0           2.0000        -0.878795       -23.9132
    2    1           4.0000        -0.332075        -9.0362

  Creating fixed part of basis set: Ionic, confined, hydrogenic.
 
  H                    hydrogenic:
 
  List of hydrogenic basis orbitals: 
    n    l      effective z      eigenvalue [eV]  inner max. [A]     outer max. [A]     outer radius [A]   
    2    0         2.100000       -14.9965           0.193243           1.317208           5.373006
    2    1         3.500000       -41.6672           0.602369           0.602369           4.056063
    1    0         0.850000        -9.8292           0.624871           0.624871           5.373006
    2    1         3.700000       -46.5653           0.573622           0.573622           3.910002
    2    0         1.200000        -4.5995           0.334980           2.228188           5.505995
    3    2         7.000000       -74.0753           0.680699           0.680699           3.769201
 
 
  C                    hydrogenic:
 
  List of hydrogenic basis orbitals: 
    n    l      effective z      eigenvalue [eV]  inner max. [A]     outer max. [A]     outer radius [A]   
    2    1         1.700000        -9.8152           1.245706           1.245706           5.401630
    3    2         6.000000       -54.4226           0.792453           0.792453           4.178599
    2    0         4.900000       -81.6681           0.082559           0.562749           3.353238
    4    3         9.800000       -81.6681           0.863254           0.863254           4.028125
    3    1         5.200000       -40.8774           0.305389           1.215618           4.898362
    3    0         4.300000       -27.9508           0.091041           1.610311           5.401630
    5    4        14.400000      -112.8510           0.917666           0.917666           3.883070
    3    2         6.200000       -58.1113           0.763917           0.763917           4.077671
 
 
  N                    hydrogenic:
 
  List of hydrogenic basis orbitals: 
    n    l      effective z      eigenvalue [eV]  inner max. [A]     outer max. [A]     outer radius [A]   
    2    1         1.800000       -11.0118           1.177451           1.177451           5.427479
    3    2         6.800000       -69.9029           0.704619           0.704619           3.854246
    3    0         5.800000       -50.8549           0.067388           1.191934           4.629968
    4    3        10.800000       -99.1854           0.786571           0.786571           3.761152
    3    1         5.800000       -50.8549           0.274880           1.094176           4.518138
    1    0         0.800000        -8.7059           0.662839           0.662839           5.361532
    5    4        16.000000      -139.3222           0.825990           0.825990           3.625711
    3    2         4.900000       -36.2967           0.968267           0.968267           4.862000
 
 
  O                    hydrogenic:
 
  List of hydrogenic basis orbitals: 
    n    l      effective z      eigenvalue [eV]  inner max. [A]     outer max. [A]     outer radius [A]   
    2    1         1.800000       -11.0118           1.178562           1.178562           5.432602
    3    2         7.600000       -87.3182           0.624125           0.624125           3.541477
    3    0         6.400000       -61.9209           0.061167           1.081902           4.306578
    4    3        11.600000      -114.4238           0.731631           0.731631           3.585037
    3    1         6.200000       -58.1113           0.255680           1.030270           4.306578
    3    2         5.600000       -47.4081           0.847233           0.847233           4.413171
    5    4        17.600000      -168.5799           0.749740           0.749740           3.372465
    1    0         0.750000        -7.6499           0.705284           0.705284           5.366593
 

  Adding cutoff potential to free-atom effective potential.
  Creating atomic-like basis functions for current effective potential.

  Species H                   :

  List of atomic basis orbitals and eigenvalues:
    n    l      energy [Ha]    energy [eV]    outer radius [A]
    1    0        -0.238382        -6.4867       5.373006


  Species C                   :

  List of atomic basis orbitals and eigenvalues:
    n    l      energy [Ha]    energy [eV]    outer radius [A]
    1    0       -10.041232      -273.2358       1.934409
    2    0        -0.504327       -13.7234       5.271162
    2    1        -0.193750        -5.2722       5.401630


  Species N                   :

  List of atomic basis orbitals and eigenvalues:
    n    l      energy [Ha]    energy [eV]    outer radius [A]
    1    0       -14.129007      -384.4699       1.637919
    2    0        -0.681802       -18.5528       5.168461
    2    1        -0.260543        -7.0897       5.361532


  Species O                   :

  List of atomic basis orbitals and eigenvalues:
    n    l      energy [Ha]    energy [eV]    outer radius [A]
    1    0       -18.898576      -514.2564       1.415765
    2    0        -0.878795       -23.9132       5.048385
    2    1        -0.332075        -9.0362       5.301386

  Assembling full basis from fixed parts.
  | Species H :   atomic orbital   1 s accepted.
  | Species H :    hydro orbital   2 s accepted.
  | Species H :    hydro orbital   1 s accepted.
  | Species H :    hydro orbital   2 s accepted.
  | Species H :    hydro orbital   2 p accepted.
  | Species H :    hydro orbital   2 p accepted.
  | Species H :    hydro orbital   3 d accepted.
  | Species C :   atomic orbital   1 s accepted.
  | Species C :    hydro orbital   2 s accepted.
  | Species C :   atomic orbital   2 s accepted.
  | Species C :    hydro orbital   3 s accepted.
  | Species C :    hydro orbital   3 p accepted.
  | Species C :   atomic orbital   2 p accepted.
  | Species C :    hydro orbital   2 p accepted.
  | Species C :    hydro orbital   3 d accepted.
  | Species C :    hydro orbital   3 d accepted.
  | Species C :    hydro orbital   4 f accepted.
  | Species C :    hydro orbital   5 g accepted.
  | Species N :   atomic orbital   1 s accepted.
  | Species N :    hydro orbital   3 s accepted.
  | Species N :   atomic orbital   2 s accepted.
  | Species N :    hydro orbital   1 s accepted.
  | Species N :    hydro orbital   3 p accepted.
  | Species N :   atomic orbital   2 p accepted.
  | Species N :    hydro orbital   2 p accepted.
  | Species N :    hydro orbital   3 d accepted.
  | Species N :    hydro orbital   3 d accepted.
  | Species N :    hydro orbital   4 f accepted.
  | Species N :    hydro orbital   5 g accepted.
  | Species O :   atomic orbital   1 s accepted.
  | Species O :    hydro orbital   3 s accepted.
  | Species O :   atomic orbital   2 s accepted.
  | Species O :    hydro orbital   1 s accepted.
  | Species O :    hydro orbital   3 p accepted.
  | Species O :   atomic orbital   2 p accepted.
  | Species O :    hydro orbital   2 p accepted.
  | Species O :    hydro orbital   3 d accepted.
  | Species O :    hydro orbital   3 d accepted.
  | Species O :    hydro orbital   4 f accepted.
  | Species O :    hydro orbital   5 g accepted.
 
  Basis size parameters after reduction:
  | Total number of radial functions:       40
  | Total number of basis functions :      840
 
  Testing on-site integration grid accuracy.
  |  Species  Function  <phi|h_atom|phi> (log., in eV)  <phi|h_atom|phi> (rad., in eV)
           1        1                 -6.4869821809                 -6.4870742227
           1        2                 13.5044133542                 13.5041049177
           1        3                 32.7854418792                 32.7779770519
           1        4                 33.7995553101                 33.7152624900 ***
           1        5                 28.8558651799                 28.8558652046
           1        6                 59.6361831893                 59.6362535845
           1        7                 60.2733718049                 60.2733715484
           2        8               -273.2358277112               -273.2358261765
           2        9                -10.7624923123                -10.7625144012
           2       10                 17.4634079027                 17.4634252127
           2       11                 53.0363661832                 53.0366180446
           2       12                 15.0981351967                 15.0981317714
           2       13                  3.8522181899                  3.8522770949
           2       14                 12.1181835661                 12.1206868578
           2       15                 29.4320778347                 29.4320780959
           2       16                 54.8753777694                 54.8752901936
           2       17                 59.3533975461                 59.3533974833
           2       18                 93.4537491195                 93.4537492066
           3       19               -384.4698526889               -384.4698499465
           3       20                 12.5691022037                 12.5690910168
           3       21                -15.7489097511                -15.7489165588
           3       22                 27.0978334940                 27.0985589490
           3       23                 18.5949116966                 18.5949125562
           3       24                  1.2212828291                  1.2212855301
           3       25                 13.4428926797                 13.4434051125
           3       26                 35.9380614500                 35.9380613666
           3       27                 39.9231532098                 39.9231654735
           3       28                 72.9957335806                 72.9957336833
           3       29                116.4231321147                116.4231321431
           4       30               -514.2564144315               -514.2564099626
           4       31                 15.1726678541                 15.1726530877
           4       32                -21.5447785304                -21.5447874973
           4       33                 14.4944558459                 14.4944698284
           4       34                 20.8882174564                 20.8882178906
           4       35                 -2.4850315908                 -2.4850322289
           4       36                 13.8600193195                 13.8599826966
           4       37                 45.8243383616                 45.8243383675
           4       38                 52.1840606465                 52.1840622440
           4       39                 85.4074185510                 85.4074185819
           4       40                142.0983717302                142.0983717339
 * Note: Onsite integrals marked "***" above are less accurate than
 * onsite_accuracy_threshold =    0.03000 eV. Usually, this is harmless.
 * When in doubt, tighten the "radial" and/or "radial_multiplier" flags to check.

  Preparing densities etc. for the partition functions (integrals / Hartree potential).

  Preparations completed.
  max(cpu_time)          :      0.236 s.
  Wall clock time (cpu1) :      0.233 s.
------------------------------------------------------------

------------------------------------------------------------
          Begin self-consistency loop: Initialization.

          Date     :  20170309, Time     :  184656.489
------------------------------------------------------------

  Initializing index lists of integration centers etc. from given atomic structure:
  | Number of centers in hartree potential         :        32
  | Number of centers in hartree multipole         :        32
  | Number of centers in electron density summation:        32
  | Number of centers in basis integrals           :        32
  | Number of centers in integrals                 :        32
  | Number of centers in hamiltonian               :        32
  Using modified Scalapack Eigenvalue solver (ELPA)
  * Using 32 tasks for Scalapack Eigenvalue solver.
  Detailed listing of tasks and assigned k-points:
  (for non-periodic systems, the "k-point" denotes an internal label only)
   Task     0 k-point     1 on eos366
   Task     1 k-point     1 on eos366
   Task     2 k-point     1 on eos366
   Task     3 k-point     1 on eos366
   Task     4 k-point     1 on eos366
   Task     5 k-point     1 on eos366
   Task     6 k-point     1 on eos366
   Task     7 k-point     1 on eos366
   Task     8 k-point     1 on eos366
   Task     9 k-point     1 on eos366
   Task    10 k-point     1 on eos366
   Task    11 k-point     1 on eos366
   Task    12 k-point     1 on eos366
   Task    13 k-point     1 on eos366
   Task    14 k-point     1 on eos366
   Task    15 k-point     1 on eos366
   Task    16 k-point     1 on eos366
   Task    17 k-point     1 on eos366
   Task    18 k-point     1 on eos366
   Task    19 k-point     1 on eos366
   Task    20 k-point     1 on eos366
   Task    21 k-point     1 on eos366
   Task    22 k-point     1 on eos366
   Task    23 k-point     1 on eos366
   Task    24 k-point     1 on eos366
   Task    25 k-point     1 on eos366
   Task    26 k-point     1 on eos366
   Task    27 k-point     1 on eos366
   Task    28 k-point     1 on eos366
   Task    29 k-point     1 on eos366
   Task    30 k-point     1 on eos366
   Task    31 k-point     1 on eos366
  Tasks:    32 split into      8 X      4 BLACS grid
  Calculating blocksize based on n_basis =          840 max_nprow =            8 max_npcol =            4
  Scalapack blocksize set to:           16
  Required Scalapack workspace - INTEGER:            1 REAL:             1
  Partitioning the integration grid into batches with parallel hashing+maxmin method.
  | Number of batches:     4806
  | Maximal batch size:     197
  | Minimal batch size:       7
  | Average batch size:     109.806
  | Standard deviation of batch sizes:      30.345

  Integration load balanced across    32 MPI tasks.
  Work distribution over tasks is as follows:
  Task     0 has      16411 integration points.
  Task     1 has      16506 integration points.
  Task     2 has      16514 integration points.
  Task     3 has      16415 integration points.
  Task     4 has      16520 integration points.
  Task     5 has      16466 integration points.
  Task     6 has      16478 integration points.
  Task     7 has      16502 integration points.
  Task     8 has      16519 integration points.
  Task     9 has      16499 integration points.
  Task    10 has      16503 integration points.
  Task    11 has      16511 integration points.
  Task    12 has      16519 integration points.
  Task    13 has      16535 integration points.
  Task    14 has      16502 integration points.
  Task    15 has      16480 integration points.
  Task    16 has      16413 integration points.
  Task    17 has      16510 integration points.
  Task    18 has      16532 integration points.
  Task    19 has      16505 integration points.
  Task    20 has      16513 integration points.
  Task    21 has      16468 integration points.
  Task    22 has      16417 integration points.
  Task    23 has      16507 integration points.
  Task    24 has      16506 integration points.
  Task    25 has      16509 integration points.
  Task    26 has      16453 integration points.
  Task    27 has      16506 integration points.
  Task    28 has      16531 integration points.
  Task    29 has      16490 integration points.
  Task    30 has      16498 integration points.
  Task    31 has      16490 integration points.
  Initializing partition tables, free-atom densities, potentials, etc. across the integration grid (initialize_grid_storage).
  | initialize_grid_storage: Actual outermost partition radius vs. multipole_radius_free
  | (-- VB: in principle, multipole_radius_free should be larger, hence this output)
  | Species        1: Confinement radius =              6.000000000000000 AA, multipole_radius_free =              6.071692442739658 AA.
  | Species        1: outer_partition_radius set to              6.071692442739658 AA .
  | Species        2: Confinement radius =              6.000000000000000 AA, multipole_radius_free =              6.029870734432609 AA.
  | Species        2: outer_partition_radius set to              6.029870734432609 AA .
  | Species        3: Confinement radius =              6.000000000000000 AA, multipole_radius_free =              6.058726835495003 AA.
  | Species        3: outer_partition_radius set to              6.058726835495003 AA .
  | Species        4: Confinement radius =              6.000000000000000 AA, multipole_radius_free =              6.064445521808699 AA.
  | Species        4: outer_partition_radius set to              6.064445521808699 AA .
  | Original list of interatomic distances with          32 x         32 entries is created.
  | Net number of integration points:   527728
  | of which are non-zero points    :   415932
  Obtaining max. number of non-zero basis functions in each batch (get_n_compute_maxes).
  | Maximal number of non-zero basis functions:      738 in task     0
  | Maximal number of non-zero basis functions:      732 in task     1
  | Maximal number of non-zero basis functions:      748 in task     2
  | Maximal number of non-zero basis functions:      753 in task     3
  | Maximal number of non-zero basis functions:      717 in task     4
  | Maximal number of non-zero basis functions:      751 in task     5
  | Maximal number of non-zero basis functions:      738 in task     6
  | Maximal number of non-zero basis functions:      743 in task     7
  | Maximal number of non-zero basis functions:      731 in task     8
  | Maximal number of non-zero basis functions:      738 in task     9
  | Maximal number of non-zero basis functions:      721 in task    10
  | Maximal number of non-zero basis functions:      728 in task    11
  | Maximal number of non-zero basis functions:      745 in task    12
  | Maximal number of non-zero basis functions:      725 in task    13
  | Maximal number of non-zero basis functions:      710 in task    14
  | Maximal number of non-zero basis functions:      739 in task    15
  | Maximal number of non-zero basis functions:      723 in task    16
  | Maximal number of non-zero basis functions:      755 in task    17
  | Maximal number of non-zero basis functions:      729 in task    18
  | Maximal number of non-zero basis functions:      738 in task    19
  | Maximal number of non-zero basis functions:      731 in task    20
  | Maximal number of non-zero basis functions:      742 in task    21
  | Maximal number of non-zero basis functions:      748 in task    22
  | Maximal number of non-zero basis functions:      748 in task    23
  | Maximal number of non-zero basis functions:      737 in task    24
  | Maximal number of non-zero basis functions:      720 in task    25
  | Maximal number of non-zero basis functions:      748 in task    26
  | Maximal number of non-zero basis functions:      745 in task    27
  | Maximal number of non-zero basis functions:      751 in task    28
  | Maximal number of non-zero basis functions:      704 in task    29
  | Maximal number of non-zero basis functions:      731 in task    30
  | Maximal number of non-zero basis functions:      741 in task    31
  Selecting the method for density update.
  Loop over occupied states selected for charge density update.
  Integrating Hamiltonian matrix: batch-based integration.
  Time summed over all CPUs for integration: real work       19.333 s, elapsed       20.097 s
  Integrating overlap matrix.
  Time summed over all CPUs for integration: real work       11.426 s, elapsed       11.845 s
  Deallocating overlap matrix.

  Updating Kohn-Sham eigenvalues, eigenvectors, occupation numbers, and Fermi level.
  Solving generalized eigenproblem
  Solving real symmetric generalised eigenvalue problem by standard ScaLAPACK.
  Transforming overlap matrix with ScaLAPACK and checking for singularities.
  : Overlap matrix is nonsingular, using Cholesky decomposition
  | Lowest eigenvalue:  0.851353E-04
  Factoring overlap matrix with Cholesky decomposition
  Using Cholesky factor for transformation
  Using 1-stage real ELPA solver
  Determining occupation numbers for Kohn-Sham eigenstates.
  | Chemical potential (Fermi level) in eV                 : -.89533117E+01
  | Error in electron count due to remaining E_F inaccuracy: 0.00000000E+00
  | Maximum occupation number of highest empty state:  0.00E+00

  Writing Kohn-Sham eigenvalues.

  State    Occupation    Eigenvalue [Ha]    Eigenvalue [eV]
      1       2.00000         -18.975024         -516.33667
      2       2.00000         -18.974612         -516.32545
      3       2.00000         -18.973970         -516.30799
      4       2.00000         -14.254268         -387.87836
      5       2.00000         -14.253846         -387.86688
      6       2.00000         -14.252216         -387.82254
      7       2.00000         -10.170760         -276.76046
      8       2.00000         -10.170588         -276.75578
      9       2.00000         -10.169779         -276.73377
     10       2.00000         -10.166369         -276.64097
     11       2.00000         -10.148710         -276.16046
     12       2.00000         -10.147824         -276.13635
     13       2.00000         -10.135638         -275.80473
     14       2.00000         -10.135192         -275.79260
     15       2.00000         -10.133980         -275.75963
     16       2.00000          -1.135182          -30.88989
     17       2.00000          -1.132437          -30.81517
     18       2.00000          -1.129704          -30.74081
     19       2.00000          -1.018133          -27.70480
     20       2.00000          -1.013934          -27.59055
     21       2.00000          -1.002581          -27.28161
     22       2.00000          -0.888221          -24.16973
     23       2.00000          -0.867730          -23.61213
     24       2.00000          -0.846411          -23.03201
     25       2.00000          -0.815428          -22.18891
     26       2.00000          -0.783005          -21.30665
     27       2.00000          -0.759116          -20.65659
     28       2.00000          -0.691755          -18.82360
     29       2.00000          -0.690228          -18.78205
     30       2.00000          -0.678632          -18.46651
     31       2.00000          -0.645206          -17.55694
     32       2.00000          -0.613124          -16.68394
     33       2.00000          -0.612016          -16.65380
     34       2.00000          -0.605441          -16.47489
     35       2.00000          -0.584845          -15.91444
     36       2.00000          -0.575307          -15.65490
     37       2.00000          -0.571457          -15.55013
     38       2.00000          -0.567337          -15.43802
     39       2.00000          -0.556997          -15.15667
     40       2.00000          -0.552274          -15.02813
     41       2.00000          -0.547711          -14.90397
     42       2.00000          -0.545044          -14.83140
     43       2.00000          -0.537076          -14.61457
     44       2.00000          -0.527335          -14.34951
     45       2.00000          -0.523531          -14.24601
     46       2.00000          -0.520072          -14.15189
     47       2.00000          -0.512542          -13.94697
     48       2.00000          -0.501062          -13.63460
     49       2.00000          -0.490828          -13.35612
     50       2.00000          -0.487154          -13.25615
     51       2.00000          -0.481703          -13.10781
     52       2.00000          -0.473794          -12.89259
     53       2.00000          -0.408348          -11.11171
     54       2.00000          -0.402644          -10.95649
     55       2.00000          -0.398323          -10.83893
     56       2.00000          -0.390476          -10.62540
     57       2.00000          -0.385192          -10.48162
     58       2.00000          -0.380954          -10.36629
     59       0.00000          -0.173184           -4.71257
     60       0.00000          -0.161467           -4.39374
     61       0.00000          -0.151060           -4.11054
     62       0.00000          -0.083737           -2.27860
     63       0.00000          -0.065259           -1.77578
     64       0.00000          -0.059149           -1.60954
     65       0.00000          -0.051179           -1.39266
     66       0.00000          -0.044438           -1.20922
     67       0.00000          -0.040069           -1.09032
     68       0.00000          -0.034071           -0.92711
     69       0.00000          -0.032710           -0.89008
     70       0.00000          -0.025089           -0.68272
     71       0.00000          -0.019139           -0.52079
     72       0.00000          -0.011434           -0.31113
     73       0.00000          -0.010097           -0.27476
     74       0.00000          -0.008042           -0.21883
     75       0.00000          -0.005136           -0.13975
     76       0.00000          -0.000517           -0.01407
     77       0.00000           0.000961            0.02616
     78       0.00000           0.005827            0.15856
     79       0.00000           0.011395            0.31008
     80       0.00000           0.013714            0.37317
     81       0.00000           0.014981            0.40765
     82       0.00000           0.023520            0.64000
     83       0.00000           0.025879            0.70420
     84       0.00000           0.029396            0.79990
     85       0.00000           0.044204            1.20286
     86       0.00000           0.050201            1.36605
     87       0.00000           0.054023            1.47004
     88       0.00000           0.059440            1.61743
     89       0.00000           0.064809            1.76355
     90       0.00000           0.078290            2.13038
     91       0.00000           0.082680            2.24983
     92       0.00000           0.084546            2.30060
     93       0.00000           0.086883            2.36421
     94       0.00000           0.089873            2.44557
     95       0.00000           0.099683            2.71251
     96       0.00000           0.101602            2.76473
     97       0.00000           0.106519            2.89852
     98       0.00000           0.116094            3.15909
     99       0.00000           0.119819            3.26043
    100       0.00000           0.125212            3.40720
    101       0.00000           0.125826            3.42391
    102       0.00000           0.129188            3.51538
    103       0.00000           0.134132            3.64991
    104       0.00000           0.140774            3.83067
    105       0.00000           0.145951            3.97152
    106       0.00000           0.151004            4.10903
    107       0.00000           0.154538            4.20519
    108       0.00000           0.157585            4.28809
    109       0.00000           0.163476            4.44840
    110       0.00000           0.167602            4.56067
    111       0.00000           0.173007            4.70776
    112       0.00000           0.175499            4.77557
    113       0.00000           0.180405            4.90906
    114       0.00000           0.182850            4.97559
    115       0.00000           0.193911            5.27660
    116       0.00000           0.202991            5.52367
    117       0.00000           0.203585            5.53982
    118       0.00000           0.208364            5.66988
    119       0.00000           0.216547            5.89254
    120       0.00000           0.221460            6.02625
    121       0.00000           0.222560            6.05615
    122       0.00000           0.224348            6.10481
    123       0.00000           0.227821            6.19932
    124       0.00000           0.235240            6.40119
    125       0.00000           0.237209            6.45479
    126       0.00000           0.248200            6.75387
    127       0.00000           0.248628            6.76552
    128       0.00000           0.258031            7.02137
    129       0.00000           0.258879            7.04444

  Highest occupied state (VBM) at    -10.36628764 eV
  | Occupation number:      2.00000000

  Lowest unoccupied state (CBM) at    -4.71256739 eV
  | Occupation number:      0.00000000

  Overall HOMO-LUMO gap:      5.65372024 eV.
  Calculating total energy contributions from superposition of free atom densities.

  Total energy components:
  | Sum of eigenvalues            :        -437.82612551 Ha      -11913.85504533 eV
  | XC energy correction          :         -98.80845226 Ha       -2688.71478628 eV
  | XC potential correction       :         127.00509140 Ha        3455.98437565 eV
  | Free-atom electrostatic energy:        -333.65188673 Ha       -9079.12977893 eV
  | Hartree energy correction     :           0.00000000 Ha           0.00000000 eV
  | MBD@rsSCS energy              :           0.00000000 Ha           0.00000000 eV
  | Entropy correction            :           0.00000000 Ha           0.00000000 eV
  | ---------------------------
  | Total energy                  :        -743.28137309 Ha      -20225.71523490 eV
  | Total energy, T -> 0          :        -743.28137309 Ha      -20225.71523490 eV  <-- do not rely on this value for anything but (periodic) metals
  | Electronic free energy        :        -743.28137309 Ha      -20225.71523490 eV

  Derived energy quantities:
  | Kinetic energy                :         735.13924827 Ha       20004.15674559 eV
  | Electrostatic energy          :       -1379.61216910 Ha      -37541.15719421 eV
  | Energy correction for multipole
  | error in Hartree potential    :           0.00000000 Ha           0.00000000 eV
  | Sum of eigenvalues per atom                           :        -372.30797017 eV
  | Total energy (T->0) per atom                          :        -632.05360109 eV  <-- do not rely on this value for anything but (periodic) metals
  | Electronic free energy per atom                       :        -632.05360109 eV
  Initialize hartree_potential_storage
  Max. number of atoms included in rho_multipole:           32

  End scf initialization - timings             :  max(cpu_time)    wall_clock(cpu1)
  | Time for scf. initialization               :        1.760 s           1.760 s
  | Boundary condition initialization          :        0.000 s           0.001 s
  | Integration                                :        1.020 s           1.020 s
  | Solution of K.-S. eqns.                    :        0.076 s           0.074 s
  | Grid partitioning                          :        0.344 s           0.340 s
  | Preloading free-atom quantities on grid    :        0.032 s           0.027 s
  | Free-atom superposition energy             :        0.040 s           0.037 s
  | Total energy evaluation                    :        0.000 s           0.001 s
------------------------------------------------------------

------------------------------------------------------------
          Begin self-consistency iteration #    1

  Date     :  20170309, Time     :  184658.249
------------------------------------------------------------
  Evaluating new KS density.
  Integration grid: deviation in total charge (<rho> - N_e) =   2.842171E-14
  Pulay mixing of updated and previous charge densities.

  Evaluating partitioned Hartree potential by multipole expansion.
  | Analytical far-field extrapolation by fixed multipoles:
  | Hartree multipole sum: apparent total charge =  -0.567859E-04
  Summing up the Hartree potential.
  Time summed over all CPUs for potential: real work        9.462 s, elapsed        9.639 s
  | RMS charge density error from multipole expansion :   0.105538E-01

  Integrating Hamiltonian matrix: batch-based integration.
  Time summed over all CPUs for integration: real work       19.171 s, elapsed       19.950 s

  Updating Kohn-Sham eigenvalues, eigenvectors, occupation numbers, and Fermi level.
  Solving generalized eigenproblem
  Solving real symmetric generalised eigenvalue problem by standard ScaLAPACK.
  Using Cholesky factor for transformation
  Using 2-stage real ELPA solver
  K-Point:    1, Trafo times: 1-stage=     0.021 s, 2-stage=     0.019 s ==> Using 2-stage solver
  Determining occupation numbers for Kohn-Sham eigenstates.
  | Chemical potential (Fermi level) in eV                 : -.28536806E+01
  | Error in electron count due to remaining E_F inaccuracy: 0.00000000E+00
  | Maximum occupation number of highest empty state:  0.00E+00

  Writing Kohn-Sham eigenvalues.

  State    Occupation    Eigenvalue [Ha]    Eigenvalue [eV]
      1       2.00000         -18.633336         -507.03888
      2       2.00000         -18.624497         -506.79836
      3       2.00000         -18.598472         -506.09017
      4       2.00000         -14.013331         -381.32214
      5       2.00000         -13.998398         -380.91579
      6       2.00000         -13.976516         -380.32036
      7       2.00000         -10.067843         -273.95995
      8       2.00000         -10.067443         -273.94906
      9       2.00000         -10.044206         -273.31676
     10       2.00000          -9.975280         -271.44119
     11       2.00000          -9.965414         -271.17272
     12       2.00000          -9.909802         -269.65942
     13       2.00000          -9.847997         -267.97763
     14       2.00000          -9.845556         -267.91122
     15       2.00000          -9.834331         -267.60575
     16       2.00000          -0.978774          -26.63379
     17       2.00000          -0.970026          -26.39574
     18       2.00000          -0.945983          -25.74152
     19       2.00000          -0.884581          -24.07067
     20       2.00000          -0.865844          -23.56081
     21       2.00000          -0.858754          -23.36790
     22       2.00000          -0.750190          -20.41372
     23       2.00000          -0.717861          -19.53399
     24       2.00000          -0.694948          -18.91050
     25       2.00000          -0.686766          -18.68784
     26       2.00000          -0.643485          -17.51012
     27       2.00000          -0.624291          -16.98781
     28       2.00000          -0.575535          -15.66110
     29       2.00000          -0.567099          -15.43156
     30       2.00000          -0.553751          -15.06834
     31       2.00000          -0.523115          -14.23468
     32       2.00000          -0.479592          -13.05036
     33       2.00000          -0.477910          -13.00460
     34       2.00000          -0.469095          -12.76473
     35       2.00000          -0.449308          -12.22629
     36       2.00000          -0.443897          -12.07905
     37       2.00000          -0.437613          -11.90806
     38       2.00000          -0.427792          -11.64080
     39       2.00000          -0.424429          -11.54931
     40       2.00000          -0.411312          -11.19238
     41       2.00000          -0.405755          -11.04116
     42       2.00000          -0.392424          -10.67841
     43       2.00000          -0.391362          -10.64951
     44       2.00000          -0.384621          -10.46608
     45       2.00000          -0.379454          -10.32548
     46       2.00000          -0.371991          -10.12240
     47       2.00000          -0.366093           -9.96189
     48       2.00000          -0.358734           -9.76166
     49       2.00000          -0.348709           -9.48886
     50       2.00000          -0.347915           -9.46725
     51       2.00000          -0.340528           -9.26623
     52       2.00000          -0.332376           -9.04442
     53       2.00000          -0.254352           -6.92128
     54       2.00000          -0.244088           -6.64198
     55       2.00000          -0.230674           -6.27695
     56       2.00000          -0.221002           -6.01377
     57       2.00000          -0.214702           -5.84234
     58       2.00000          -0.198269           -5.39517
     59       0.00000          -0.064741           -1.76168
     60       0.00000          -0.054855           -1.49269
     61       0.00000          -0.050440           -1.37254
     62       0.00000          -0.034652           -0.94293
     63       0.00000          -0.028196           -0.76726
     64       0.00000          -0.016784           -0.45672
     65       0.00000          -0.009857           -0.26823
     66       0.00000          -0.004413           -0.12007
     67       0.00000           0.005672            0.15433
     68       0.00000           0.009309            0.25332
     69       0.00000           0.024398            0.66391
     70       0.00000           0.028506            0.77568
     71       0.00000           0.030803            0.83819
     72       0.00000           0.035881            0.97638
     73       0.00000           0.040656            1.10632
     74       0.00000           0.043804            1.19198
     75       0.00000           0.050516            1.37460
     76       0.00000           0.056409            1.53496
     77       0.00000           0.061098            1.66255
     78       0.00000           0.064292            1.74947
     79       0.00000           0.068358            1.86013
     80       0.00000           0.075670            2.05909
     81       0.00000           0.081865            2.22766
     82       0.00000           0.083216            2.26441
     83       0.00000           0.090426            2.46062
     84       0.00000           0.100228            2.72733
     85       0.00000           0.101228            2.75456
     86       0.00000           0.103700            2.82182
     87       0.00000           0.113566            3.09029
     88       0.00000           0.123150            3.35108
     89       0.00000           0.130419            3.54889
     90       0.00000           0.132261            3.59902
     91       0.00000           0.142690            3.88279
     92       0.00000           0.145778            3.96682
     93       0.00000           0.148482            4.04041
     94       0.00000           0.155075            4.21979
     95       0.00000           0.156790            4.26648
     96       0.00000           0.162465            4.42089
     97       0.00000           0.168170            4.57615
     98       0.00000           0.174946            4.76053
     99       0.00000           0.183889            5.00387
    100       0.00000           0.184533            5.02139
    101       0.00000           0.189298            5.15107
    102       0.00000           0.191068            5.19923
    103       0.00000           0.193208            5.25745
    104       0.00000           0.199653            5.43282
    105       0.00000           0.205744            5.59857
    106       0.00000           0.207992            5.65975
    107       0.00000           0.212162            5.77323
    108       0.00000           0.214813            5.84535
    109       0.00000           0.222318            6.04958
    110       0.00000           0.222806            6.06287
    111       0.00000           0.225315            6.13112
    112       0.00000           0.229618            6.24822
    113       0.00000           0.236280            6.42952
    114       0.00000           0.244193            6.64484
    115       0.00000           0.247877            6.74508
    116       0.00000           0.256226            6.97228
    117       0.00000           0.257330            7.00232
    118       0.00000           0.268937            7.31814
    119       0.00000           0.277235            7.54394
    120       0.00000           0.278938            7.59029
    121       0.00000           0.281251            7.65322
    122       0.00000           0.285212            7.76101
    123       0.00000           0.295422            8.03883
    124       0.00000           0.298351            8.11854
    125       0.00000           0.300571            8.17894
    126       0.00000           0.302615            8.23458
    127       0.00000           0.315427            8.58321
    128       0.00000           0.320836            8.73040
    129       0.00000           0.334254            9.09552

  Highest occupied state (VBM) at     -5.39517406 eV
  | Occupation number:      2.00000000

  Lowest unoccupied state (CBM) at    -1.76168466 eV
  | Occupation number:      0.00000000

  Overall HOMO-LUMO gap:      3.63348941 eV.

  Total energy components:
  | Sum of eigenvalues            :        -418.09485406 Ha      -11376.93983124 eV
  | XC energy correction          :        -100.74290531 Ha       -2741.35393192 eV
  | XC potential correction       :         129.51404290 Ha        3524.25641947 eV
  | Free-atom electrostatic energy:        -333.65188673 Ha       -9079.12977893 eV
  | Hartree energy correction     :         -19.73675107 Ha        -537.06432223 eV
  | MBD@rsSCS energy              :           0.00000000 Ha           0.00000000 eV
  | Entropy correction            :          -0.00000000 Ha          -0.00000000 eV
  | ---------------------------
  | Total energy                  :        -742.71235427 Ha      -20210.23144486 eV
  | Total energy, T -> 0          :        -742.71235427 Ha      -20210.23144486 eV  <-- do not rely on this value for anything but (periodic) metals
  | Electronic free energy        :        -742.71235427 Ha      -20210.23144486 eV

  Derived energy quantities:
  | Kinetic energy                :         744.01306385 Ha       20245.62555334 eV
  | Electrostatic energy          :       -1385.98251281 Ha      -37714.50306627 eV
  | Energy correction for multipole
  | error in Hartree potential    :          -0.04053650 Ha          -1.10305421 eV
  | Sum of eigenvalues per atom                           :        -355.52936973 eV
  | Total energy (T->0) per atom                          :        -631.56973265 eV  <-- do not rely on this value for anything but (periodic) metals
  | Electronic free energy per atom                       :        -631.56973265 eV

  Self-consistency convergence accuracy:
  | Change of charge density      :  0.9037E+00
  | Change of sum of eigenvalues  :  0.5369E+03 eV
  | Change of total energy        :  0.1548E+02 eV

  End self-consistency iteration #     1       :  max(cpu_time)    wall_clock(cpu1)
  | Time for this iteration                    :        1.436 s           1.436 s
[...]
   Multipole                     :  0.538798E+00  0.828527E-01 -0.915472E-01
   Pulay + GGA                   :  0.125229E+02  0.132717E+01 -0.355286E+01
   MBD@rsSCS                     :  0.196311E-01  0.143963E-02  0.269154E-02
   ----------------------------------------------------------------
   Total forces(  20)            : -0.288127E-02  0.117028E-02  0.536271E-02
  atom #   21
   Hellmann-Feynman              : -0.105042E-01  0.733594E-02  0.358451E-01
   Ionic forces                  :  0.000000E+00  0.000000E+00  0.000000E+00
   Multipole                     :  0.374104E-02  0.207836E-01  0.319315E-02
   Pulay + GGA                   :  0.653971E-02 -0.249107E-01 -0.479953E-01
   MBD@rsSCS                     :  0.573914E-03  0.211151E-02 -0.268775E-02
   ----------------------------------------------------------------
   Total forces(  21)            :  0.350438E-03  0.532040E-02 -0.116448E-01
  atom #   22
   Hellmann-Feynman              :  0.210325E-01  0.203859E-01 -0.485989E-01
   Ionic forces                  :  0.000000E+00  0.000000E+00  0.000000E+00
   Multipole                     :  0.174506E-01  0.671186E-02  0.833902E-02
   Pulay + GGA                   : -0.306356E-01 -0.252101E-01  0.484083E-01
   MBD@rsSCS                     :  0.668797E-02 -0.865392E-03 -0.141583E-05
   ----------------------------------------------------------------
   Total forces(  22)            :  0.145355E-01  0.102228E-02  0.814708E-02
  atom #   23
   Hellmann-Feynman              :  0.625656E+00  0.961654E+00  0.611850E+00
   Ionic forces                  :  0.000000E+00  0.000000E+00  0.000000E+00
   Multipole                     : -0.170710E+00 -0.342042E+00 -0.577360E-01
   Pulay + GGA                   : -0.450455E+00 -0.634180E+00 -0.557189E+00
   MBD@rsSCS                     :  0.378246E-02 -0.124361E-01 -0.144269E-01
   ----------------------------------------------------------------
   Total forces(  23)            :  0.827357E-02 -0.270038E-01 -0.175015E-01
  atom #   24
   Hellmann-Feynman              : -0.181443E-01 -0.243613E-01  0.153933E-01
   Ionic forces                  :  0.000000E+00  0.000000E+00  0.000000E+00
   Multipole                     : -0.129443E-01 -0.662160E-03  0.239433E-01
   Pulay + GGA                   :  0.268009E-01  0.226224E-01 -0.543194E-01
   MBD@rsSCS                     : -0.397296E-02 -0.116476E-01 -0.123619E-01
   ----------------------------------------------------------------
   Total forces(  24)            : -0.826072E-02 -0.140486E-01 -0.273446E-01
  atom #   25
   Hellmann-Feynman              : -0.343907E-01 -0.631832E-01 -0.153016E-01
   Ionic forces                  :  0.000000E+00  0.000000E+00  0.000000E+00
   Multipole                     :  0.145053E-02  0.340581E-01 -0.215108E-01
   Pulay + GGA                   :  0.345608E-01  0.142302E-01  0.393460E-01
   MBD@rsSCS                     : -0.921889E-03 -0.141571E-01 -0.458350E-02
   ----------------------------------------------------------------
   Total forces(  25)            :  0.698791E-03 -0.290520E-01 -0.204987E-02
  atom #   26
   Hellmann-Feynman              : -0.451729E-02 -0.535878E-01 -0.215862E-02
   Ionic forces                  :  0.000000E+00  0.000000E+00  0.000000E+00
   Multipole                     :  0.386631E-01  0.920767E-02 -0.318578E-02
   Pulay + GGA                   : -0.381481E-01  0.447331E-01  0.108763E-01
   MBD@rsSCS                     : -0.398502E-02 -0.797707E-02 -0.616357E-02
   ----------------------------------------------------------------
   Total forces(  26)            : -0.798730E-02 -0.762410E-02 -0.631696E-03
  atom #   27
   Hellmann-Feynman              : -0.740503E+00 -0.288587E+01 -0.103610E+00
   Ionic forces                  :  0.000000E+00  0.000000E+00  0.000000E+00
   Multipole                     : -0.100838E+00  0.203424E-01  0.110855E+00
   Pulay + GGA                   :  0.850359E+00  0.286052E+01 -0.273841E-02
   MBD@rsSCS                     :  0.862835E-02 -0.227666E-02  0.191021E-01
   ----------------------------------------------------------------
   Total forces(  27)            :  0.176464E-01 -0.728277E-02  0.236090E-01
  atom #   28
   Hellmann-Feynman              :  0.203490E+01  0.732705E+00 -0.867995E+00
   Ionic forces                  :  0.000000E+00  0.000000E+00  0.000000E+00
   Multipole                     : -0.187488E+00 -0.738299E-01  0.387484E-01
   Pulay + GGA                   : -0.184607E+01 -0.666382E+00  0.850727E+00
   MBD@rsSCS                     :  0.239262E-02 -0.100637E-01  0.194395E-01
   ----------------------------------------------------------------
   Total forces(  28)            :  0.373098E-02 -0.175711E-01  0.409196E-01
  atom #   29
   Hellmann-Feynman              :  0.380367E-02 -0.112184E-01  0.655370E-01
   Ionic forces                  :  0.000000E+00  0.000000E+00  0.000000E+00
   Multipole                     :  0.364526E-01  0.780274E-02 -0.234512E-01
   Pulay + GGA                   : -0.422593E-01  0.764007E-02 -0.520602E-01
   MBD@rsSCS                     :  0.739489E-02 -0.337242E-03  0.370349E-02
   ----------------------------------------------------------------
   Total forces(  29)            :  0.539184E-02  0.388715E-02 -0.627100E-02
  atom #   30
   Hellmann-Feynman              : -0.419768E-01 -0.101153E-01  0.341147E-01
   Ionic forces                  :  0.000000E+00  0.000000E+00  0.000000E+00
   Multipole                     :  0.253115E-01  0.278754E-01  0.181350E-01
   Pulay + GGA                   :  0.140953E-01 -0.153465E-01 -0.610906E-01
   MBD@rsSCS                     : -0.396579E-02 -0.255850E-02  0.543455E-02
   ----------------------------------------------------------------
   Total forces(  30)            : -0.653580E-02 -0.144984E-03 -0.340639E-02
  atom #   31
   Hellmann-Feynman              : -0.385717E-01  0.558661E-02  0.793547E-02
   Ionic forces                  :  0.000000E+00  0.000000E+00  0.000000E+00
   Multipole                     : -0.874251E-02  0.245127E-01 -0.207789E-01
   Pulay + GGA                   :  0.375843E-01 -0.289475E-01  0.258090E-01
   MBD@rsSCS                     : -0.609333E-02 -0.623203E-02  0.158743E-01
   ----------------------------------------------------------------
   Total forces(  31)            : -0.158232E-01 -0.508024E-02  0.288398E-01
  atom #   32
   Hellmann-Feynman              : -0.348201E-01 -0.355844E-01  0.914576E-03
   Ionic forces                  :  0.000000E+00  0.000000E+00  0.000000E+00
   Multipole                     :  0.121601E-01 -0.263733E-01 -0.438935E-02
   Pulay + GGA                   :  0.212614E-01  0.640627E-01 -0.334287E-02
   MBD@rsSCS                     : -0.378187E-02 -0.318690E-02  0.103181E-01
   ----------------------------------------------------------------
   Total forces(  32)            : -0.518054E-02 -0.108193E-02  0.350048E-02

  Removing unitary transformations (pure translations, rotations) from forces on atoms.
  Atomic forces before filtering:
  | Net force on center of mass :   0.188939E-03 -0.187501E-03 -0.311970E-03 eV/A
  | Net torque on center of mass:   0.306927E-02  0.915178E-03 -0.510081E-03 eV
  Atomic forces after filtering:
  | Net force on center of mass :   0.139380E-17  0.435562E-17 -0.557519E-17 eV/A
  | Net torque on center of mass:  -0.619555E-16  0.295026E-16 -0.531048E-16 eV

  Energy and forces in a compact form:
  | Total energy uncorrected      :         -0.202087818417858E+05 eV
  | Total energy corrected        :         -0.202087818417858E+05 eV  <-- do not rely on this value for anything but (periodic) metals
  | Electronic free energy        :         -0.202087818417858E+05 eV
  Total atomic forces (unitary forces cleaned) [eV/Ang]:
  |   1         -0.128676578799631E-01          0.530721198606514E-02         -0.916858313516013E-03
  |   2         -0.126374647015832E-01          0.433964966931526E-02         -0.112385693896680E-02
  |   3          0.205072485191072E-02         -0.214970910171831E-02         -0.246956385980210E-02
  |   4          0.304271885470704E-02          0.172397905286000E-02          0.395883967296318E-02
  |   5         -0.143871309948661E-01          0.583881267865799E-02          0.132177592440097E-01
  |   6         -0.225360686960810E-01          0.162240363464085E-01          0.154454520325465E-01
  |   7         -0.557507436446937E-02         -0.214921987117154E-01         -0.152718857191638E-01
  |   8          0.166753941480789E-01         -0.114861492769636E-01         -0.858377346296457E-02
  |   9         -0.236218148633477E-01          0.185298081320869E-01          0.795540118217012E-02
  |  10         -0.118292000769571E-01          0.108942669467192E-01         -0.132048659438536E-01
  |  11         -0.741480030020249E-02          0.117639833854884E-03          0.146782649304799E-03
  |  12          0.113663690389730E-01         -0.171943365997954E-01         -0.920493156073032E-02
  |  13          0.112511833879892E-01          0.218034142304636E-01          0.679208357839730E-02
  |  14          0.329803658396803E-02          0.178990693656976E-01         -0.317623544142048E-02
  |  15          0.684794397268786E-02          0.110356471813136E-01          0.405174507076548E-02
  |  16          0.181719616776178E-01          0.817285849964082E-02         -0.399020703053802E-02
  |  17          0.409868675744639E-02          0.889063195462274E-02         -0.137398666889112E-01
  |  18          0.123753274306219E-01          0.529829945405123E-02         -0.121395143320096E-01
  |  19          0.178477898389831E-01          0.138017030240607E-01         -0.903872077224237E-02
  |  20         -0.288861741875988E-02          0.117048333001383E-02          0.536194559363942E-02
  |  21          0.342253927172494E-03          0.531485790656446E-02         -0.116327263562307E-01
  |  22          0.145334473844683E-01          0.104820812306425E-02          0.814839600288379E-02
  |  23          0.826966931123594E-02         -0.269831970556545E-01         -0.175295261169059E-01
  |  24         -0.826716247842115E-02         -0.140393156241170E-01         -0.273813995077614E-01
  |  25          0.697643926252754E-03         -0.290181444260534E-01         -0.207720711741521E-02
  |  26         -0.799064013909942E-02         -0.759975029018122E-02         -0.667669215956482E-03
  |  27          0.176342494701978E-01         -0.730482529100107E-02          0.235979774661821E-01
  |  28          0.371710973974523E-02         -0.175997373919675E-01          0.408969476910656E-01
  |  29          0.537771443197758E-02          0.385560561951050E-02         -0.628145172447484E-02
  |  30         -0.655270131311121E-02         -0.188973721825625E-03         -0.342483096656441E-02
  |  31         -0.158351598066329E-01         -0.509982023246409E-02          0.288203581505828E-01
  |  32         -0.519473170053949E-02         -0.111002561151410E-02          0.346140273491699E-02

  ------------------------------------ 
  Start decomposition of the XC Energy 
  ------------------------------------ 
  Hartree-Fock part   :          0.000000000 Ha              0.000000000 eV
  ------------------------------------ 
  X Energy            :        -96.978712039 Ha          -2638.925021599 eV
  C Energy GGA        :         -3.866229471 Ha           -105.205456691 eV
  Total XC Energy     :       -100.844941509 Ha          -2744.130478290 eV
  LDA X and C from self-consistent density 
  X Energy LDA        :        -87.991028129 Ha          -2394.357698966 eV
  C Energy LDA        :         -7.530938530 Ha           -204.927263988 eV
  ------------------------------------ 
  End decomposition of the XC Energy 
  ------------------------------------ 
   
  ESP charge fitting starts.
  | Calculation :  00000001  of  00000001
  | Full density
  Computing multipole expansion for total density.
  Generating points for esp charges.
  Partitioning the integration grid into batches with parallel hashing+maxmin method.
  | Number of batches:     3910
  | Maximal batch size:     191
  | Minimal batch size:      52
  | Average batch size:     124.458
  | Standard deviation of batch sizes:      15.197

  Integration load balanced across    32 MPI tasks.
  Work distribution over tasks is as follows:
  Initializing partition tables, free-atom densities, potentials, etc. across the integration grid (initialize_grid_storage).
  | Original list of interatomic distances with          32 x         32 entries is created.
  | Net number of integration points:   486631
  | of which are non-zero points    :   486631
  Summing up potential from multipole expanded  density.
  Summing up the Hartree potential.
  Time summed over all CPUs for potential: real work        6.419 s, elapsed        6.696 s
  Fitting esp charges to potential.
  |
  | ESP charges fitted to the electrostatic potential :
  |
  | Atom         1: C, ESP charge:      0.61127574
  |
  | Atom         2: C, ESP charge:     -0.75268341
  |
  | Atom         3: O, ESP charge:      0.57096327
  |
  | Atom         4: H, ESP charge:     -0.17574820
  |
  | Atom         5: H, ESP charge:     -0.14894225
  |
  | Atom         6: H, ESP charge:     -0.16122704
  |
  | Atom         7: N, ESP charge:      0.60216694
  |
  | Atom         8: C, ESP charge:     -0.30791770
  |
  | Atom         9: C, ESP charge:     -0.28711105
  |
  | Atom        10: O, ESP charge:      0.42665938
  |
  | Atom        11: H, ESP charge:     -0.30174671
  |
  | Atom        12: H, ESP charge:     -0.07215822
  |
  | Atom        13: C, ESP charge:      0.46233170
  |
  | Atom        14: H, ESP charge:     -0.11256878
  |
  | Atom        15: H, ESP charge:     -0.16132085
  |
  | Atom        16: H, ESP charge:     -0.12543150
  |
  | Atom        17: N, ESP charge:      0.32473573
  |
  | Atom        18: C, ESP charge:     -0.49086873
  |
  | Atom        19: C, ESP charge:     -0.33110081
  |
  | Atom        20: O, ESP charge:      0.50783158
  |
  | Atom        21: H, ESP charge:     -0.10907470
  |
  | Atom        22: H, ESP charge:      0.00776062
  |
  | Atom        23: C, ESP charge:      0.51829643
  |
  | Atom        24: H, ESP charge:     -0.13836681
  |
  | Atom        25: H, ESP charge:     -0.14660269
  |
  | Atom        26: H, ESP charge:     -0.13455878
  |
  | Atom        27: N, ESP charge:      0.32291331
  |
  | Atom        28: C, ESP charge:     -0.09259218
  |
  | Atom        29: H, ESP charge:     -0.26133474
  |
  | Atom        30: H, ESP charge:     -0.04574910
  |
  | Atom        31: H, ESP charge:      0.02059673
  |
  | Atom        32: H, ESP charge:     -0.01842714

  RRMS:       0.00245307

  Done.

------------------------------------------------------------------------------
  Final output of selected total energy values:

  The following output summarizes some interesting total energy values
  at the end of a run (AFTER all relaxation, molecular dynamics, etc.).

  | Total energy of the DFT / Hartree-Fock s.c.f. calculation      :         -20208.781841786 eV
  | Final zero-broadening corrected energy (caution - metals only) :         -20208.781841786 eV
  | For reference only, the value of 1 Hartree used in FHI-aims is :             27.211384500 eV

  Before relying on these values, please be sure to understand exactly which
  total energy value is referred to by a given number. Different objects may
  all carry the same name 'total energy'. Definitions:

  Total energy of the DFT / Hartree-Fock s.c.f. calculation:
  | Note that this energy does not include ANY quantities calculated after the
  | s.c.f. cycle, in particular not ANY RPA, MP2, etc. many-body perturbation terms.

  Final zero-broadening corrected energy:
  | For metallic systems only, a broadening of the occupation numbers at the Fermi
  | level can be extrapolated back to zero broadening by an electron-gas inspired
  | formula. For all systems that are not real metals, this value can be
  | meaningless and should be avoided.

------------------------------------------------------------------------------
  Methods described in the following list of references were used in this FHI-aims run.
  If you publish the results, please make sure to cite these reference if they apply.
  FHI-aims is an academic code, and for our developers (often, Ph.D. students
  and postdocs), scientific credit in the community is essential.
  Thank you for helping us!

  For any use of FHI-aims, please cite:

    Volker Blum, Ralf Gehrke, Felix Hanke, Paula Havu, Ville Havu,
    Xinguo Ren, Karsten Reuter, and Matthias Scheffler
    'Ab initio molecular simulations with numeric atom-centered orbitals'
    Computer Physics Communications 180, 2175-2196 (2009)
    http://dx.doi.org/10.1016/j.cpc.2009.06.022


  The scalable eigensolver library ELPA was used in your run.
  ELPA is essential especially for large systems on hundreds or thousands of CPUs.
  For ELPA, please cite:

    Andreas Marek, Volker Blum, Rainer Johanni, Ville Havu, Bruno Lang,
    Thomas Auckenthaler, Alexander Heinecke, Hans-Joachim Bungartz, and Hermann Lederer,
    'The ELPA Library - Scalable Parallel Eigenvalue Solutions
    for Electronic Structure Theory and Computational Science'
    The Journal of Physics: Condensed Matter 26, 213201 (2014).
    http://dx.doi.org/10.1088/0953-8984/26/21/213201


  For ELPA's efficient two-stage tridiagonalization used in your run, please cite:

    T. Auckenthaler, V. Blum, H.-J. Bungartz, T. Huckle, R. Johanni, L. Kraemer,
    B. Lang, H. Lederer, and P. R. Willems,
    'Parallel solution of partial symmetric eigenvalue problems'
    'from  electronic structure calculations'
    Parallel Computing 37, 783-794 (2011).
    http://dx.doi.org/10.1016/j.parco.2011.05.002


  For the real-space grid partitioning and parallelization used in this calculation, please cite:

    Ville Havu, Volker Blum, Paula Havu, and Matthias Scheffler,
    'Efficient O(N) integration for all-electron electronic structure calculation'
    'using numerically tabulated basis functions'
    Journal of Computational Physics 228, 8367-8379 (2009).
    http://dx.doi.org/10.1016/j.jcp.2009.08.008

  Of course, there are many other important community references, e.g., those cited in the
  above references. Our list is limited to references that describe implementations in the
  FHI-aims code. The reason is purely practical (length of this list) - please credit others as well.

------------------------------------------------------------
          Leaving FHI-aims.
          Date     :  20170309, Time     :  184727.152

          Computational steps:
          | Number of self-consistency cycles          :           14

          Detailed time accounting                     :  max(cpu_time)    wall_clock(cpu1)
          | Total time                                 :       31.542 s          31.713 s
          | Preparation time                           :        0.236 s           0.233 s
          | Grid partitioning                          :        0.344 s           0.340 s
          | Preloading free-atom quantities on grid    :        0.032 s           0.027 s
          | Free-atom superposition energy             :        0.040 s           0.037 s
          | Total time for integrations                :        9.885 s           9.865 s
          | Total time for solution of K.-S. equations :        0.528 s           0.491 s
          | Total time for density & force components  :        9.085 s           9.069 s
          | Total time for mixing                      :        0.124 s           0.106 s
          | Total time for Hartree multipole update    :        0.064 s           0.056 s
          | Total time for Hartree multipole sum       :        6.384 s           6.352 s
          | Total time for total energy evaluation     :        0.024 s           0.018 s

          Have a nice day.
------------------------------------------------------------
