  MPI-parallelism will be employed.
------------------------------------------------------------
          Invoking FHI-aims ...
          Version 150427
          Git rev.: 9dd23e0 BL: Update Version stamp
          Compiled on 2015/11/03 at 22:05:20 on host eos03.

          When using FHI-aims, please cite the following reference:

          Volker Blum, Ralf Gehrke, Felix Hanke, Paula Havu,
          Ville Havu, Xinguo Ren, Karsten Reuter, and Matthias Scheffler,
          'Ab Initio Molecular Simulations with Numeric Atom-Centered Orbitals: FHI-aims',
          Computer Physics Communications 180, 2175-2196 (2009)

          For any questions about FHI-aims, please visit the aimsclub website
          with its forums and wiki. Contributions to both the forums and the
          wiki are warmly encouraged - they are for you, and everyone is welcome there.

------------------------------------------------------------

  Date     :  20170309, Time     :  190810.368
  Time zero on CPU 1             :   0.308019000000000E+00  s.
  Internal wall clock time zero  :           258318490.368  s.

  Using       32 parallel tasks.
  Task        0 on host eos069 reporting.
  Task        1 on host eos069 reporting.
  Task        2 on host eos069 reporting.
  Task        3 on host eos069 reporting.
  Task        4 on host eos069 reporting.
  Task        5 on host eos069 reporting.
  Task        6 on host eos069 reporting.
  Task        7 on host eos069 reporting.
  Task        8 on host eos069 reporting.
  Task        9 on host eos069 reporting.
  Task       10 on host eos069 reporting.
  Task       11 on host eos069 reporting.
  Task       12 on host eos069 reporting.
  Task       13 on host eos069 reporting.
  Task       14 on host eos069 reporting.
  Task       15 on host eos069 reporting.
  Task       16 on host eos069 reporting.
  Task       17 on host eos069 reporting.
  Task       18 on host eos069 reporting.
  Task       19 on host eos069 reporting.
  Task       20 on host eos069 reporting.
  Task       21 on host eos069 reporting.
  Task       22 on host eos069 reporting.
  Task       23 on host eos069 reporting.
  Task       24 on host eos069 reporting.
  Task       25 on host eos069 reporting.
  Task       26 on host eos069 reporting.
  Task       27 on host eos069 reporting.
  Task       28 on host eos069 reporting.
  Task       29 on host eos069 reporting.
  Task       30 on host eos069 reporting.
  Task       31 on host eos069 reporting.

  Performing system and environment tests:
  | Environment variable OMP_NUM_THREADS correctly set to 1.
  | Stacksize not measured: no C compiler
  | Checking for scalapack...
  | Testing pdtran()...
  | All pdtran() tests passed.

  Obtaining array dimensions for all initial allocations:
  
  -----------------------------------------------------------------------
  Parsing control.in (first pass over file, find array dimensions only).
  The contents of control.in will be repeated verbatim below
  unless switched off by setting 'verbatim_writeout .false.' .
  in the first line of control.in .
  -----------------------------------------------------------------------
  
  #########################################################################################
  #
  # Input for System
  #
  #########################################################################################
  #
  #
  #  Physical model
  #
    xc                 pbe
    many_body_dispersion
    spin               none
    charge             0.
  #
  #  SCF convergence
  #
    occupation_type    gaussian 0.05
    mixer              pulay
      n_max_pulay        10
      charge_mix_param   0.5
    sc_accuracy_rho    1E-4
    sc_accuracy_eev    1E-2
    sc_accuracy_etot   1E-5
    sc_accuracy_forces 1E-4
    sc_iter_limit      1000
  #
  #  ESP charge
  #
    output esp
    esp equal_grid_n 80 80 80
  #
  #
  ################################################################################
  #
  #  FHI-aims code project
  # Volker Blum, Fritz Haber Institute Berlin, 2009
  #
  #  Suggested "tight" defaults for H atom (to be pasted into control.in file)
  #
  ################################################################################
    species        H
  #     global species definitions
      nucleus             1
      mass                1.00794
  #
      l_hartree           6
  #
      cut_pot             4.0  2.0  1.0
      basis_dep_cutoff    1e-4
  #
      radial_base         24 7.0
      radial_multiplier   2
      angular_grids       specified
        division   0.1930   50
        division   0.3175  110
        division   0.4293  194
        division   0.5066  302
        division   0.5626  434
  #      division   0.5922  590
  #      division   0.6227  974
  #      division   0.6868 1202
  #      outer_grid  770
        outer_grid  434
  ################################################################################
  #
  #  Definition of "minimal" basis
  #
  ################################################################################
  #     valence basis states
      valence      1  s   1.
  #     ion occupancy
      ion_occ      1  s   0.5
  ################################################################################
  #
  #  Suggested additional basis functions. For production calculations,
  #  uncomment them one after another (the most important basis functions are
  #  listed first).
  #
  #  Basis constructed for dimers: 0.5 A, 0.7 A, 1.0 A, 1.5 A, 2.5 A
  #
  ################################################################################
  #  "First tier" - improvements: -1014.90 meV to -62.69 meV
       hydro 2 s 2.1
       hydro 2 p 3.5
  #  "Second tier" - improvements: -12.89 meV to -1.83 meV
       hydro 1 s 0.85
       hydro 2 p 3.7
       hydro 2 s 1.2
       hydro 3 d 7
  #  "Third tier" - improvements: -0.25 meV to -0.12 meV
  #     hydro 4 f 11.2
  #     hydro 3 p 4.8
  #     hydro 4 d 9
  #     hydro 3 s 3.2
  ################################################################################
  #
  # For methods that use the localized form of the "resolution of identity" for
  # the two-electron Coulomb operator (RI_method LVL), particularly Hartree-Fock and
  # hybrid density functional calculations, the highest accuracy can be obtained by
  # uncommenting the line beginning with "for_aux"  below, thus adding an extra g radial
  # function to the construction of the product basis set for the expansion.
  # See Ref. New J. Phys. 17, 093020 (2015) for more information, particularly Figs. 1 and 6.
  #
  ################################################################################
  #
  # for_aux hydro 5 g 6.0
  ################################################################################
  #
  #  FHI-aims code project
  # Volker Blum, Fritz Haber Institute Berlin, 2009
  #
  #  Suggested "tight" defaults for C atom (to be pasted into control.in file)
  #
  ################################################################################
    species        C
  #     global species definitions
      nucleus             6
      mass                12.0107
  #
      l_hartree           6
  #
      cut_pot             4.0  2.0  1.0
      basis_dep_cutoff    1e-4
  #
      radial_base         34 7.0
      radial_multiplier   2
      angular_grids specified
        division   0.2187   50
        division   0.4416  110
        division   0.6335  194
        division   0.7727  302
        division   0.8772  434
  #      division   0.9334  590
  #      division   0.9924  770
  #      division   1.0230  974
  #      division   1.5020 1202
  #     outer_grid  974
        outer_grid  434
  ################################################################################
  #
  #  Definition of "minimal" basis
  #
  ################################################################################
  #     valence basis states
      valence      2  s   2.
      valence      2  p   2.
  #     ion occupancy
      ion_occ      2  s   1.
      ion_occ      2  p   1.
  ################################################################################
  #
  #  Suggested additional basis functions. For production calculations,
  #  uncomment them one after another (the most important basis functions are
  #  listed first).
  #
  #  Constructed for dimers: 1.0 A, 1.25 A, 1.5 A, 2.0 A, 3.0 A
  #
  ################################################################################
  #  "First tier" - improvements: -1214.57 meV to -155.61 meV
       hydro 2 p 1.7
       hydro 3 d 6
       hydro 2 s 4.9
  #  "Second tier" - improvements: -67.75 meV to -5.23 meV
       hydro 4 f 9.8
       hydro 3 p 5.2
       hydro 3 s 4.3
       hydro 5 g 14.4
       hydro 3 d 6.2
  #  "Third tier" - improvements: -2.43 meV to -0.60 meV
  #     hydro 2 p 5.6
  #     hydro 2 s 1.4
  #     hydro 3 d 4.9
  #     hydro 4 f 11.2
  #  "Fourth tier" - improvements: -0.39 meV to -0.18 meV
  #     hydro 2 p 2.1
  #     hydro 5 g 16.4
  #     hydro 4 d 13.2
  #     hydro 3 s 13.6
  #     hydro 4 f 17.6
  #  Further basis functions - improvements: -0.08 meV and below
  #     hydro 3 s 2
  #     hydro 3 p 6
  #     hydro 4 d 20
  ################################################################################
  #
  # For methods that use the localized form of the "resolution of identity" for
  # the two-electron Coulomb operator (RI_method LVL), particularly Hartree-Fock and
  # hybrid density functional calculations, the highest accuracy can be obtained by
  # uncommenting the line beginning with "for_aux"  below, thus adding an extra g radial
  # function to the construction of the product basis set for the expansion.
  # See Ref. New J. Phys. 17, 093020 (2015) for more information, particularly Figs. 1 and 6.
  #
  ################################################################################
  #
  # for_aux hydro 5 g 6.0
  ################################################################################
  #
  #  FHI-aims code project
  # Volker Blum, Fritz Haber Institute Berlin, 2009
  #
  #  Suggested "tight" defaults for N atom (to be pasted into control.in file)
  #
  ################################################################################
    species        N
  #     global species definitions
      nucleus             7
      mass                14.0067
  #
      l_hartree           6
  #
      cut_pot             4.0  2.0  1.0
      basis_dep_cutoff    1e-4
  #
      radial_base         35 7.0
      radial_multiplier   2
      angular_grids       specified
        division   0.1841   50
        division   0.3514  110
        division   0.5126  194
        division   0.6292  302
        division   0.6939  434
  #      division   0.7396  590
  #      division   0.7632  770
  #      division   0.8122  974
  #      division   1.1604 1202
  #      outer_grid  974
        outer_grid  434
  ################################################################################
  #
  #  Definition of "minimal" basis
  #
  ################################################################################
  #     valence basis states
      valence      2  s   2.
      valence      2  p   3.
  #     ion occupancy
      ion_occ      2  s   1.
      ion_occ      2  p   2.
  ################################################################################
  #
  #  Suggested additional basis functions. For production calculations,
  #  uncomment them one after another (the most important basis functions are
  #  listed first).
  #
  #  Constructed for dimers: 1.0 A, 1.1 A, 1.5 A, 2.0 A, 3.0 A
  #
  ################################################################################
  #  "First tier" - improvements: -1193.42 meV to -220.60 meV
       hydro 2 p 1.8
       hydro 3 d 6.8
       hydro 3 s 5.8
  #  "Second tier" - improvements: -80.21 meV to -6.86 meV
       hydro 4 f 10.8
       hydro 3 p 5.8
       hydro 1 s 0.8
       hydro 5 g 16
       hydro 3 d 4.9
  #  "Third tier" - improvements: -4.29 meV to -0.53 meV
  #     hydro 3 s 16
  #     ionic 2 p auto
  #     hydro 3 d 6.6
  #     hydro 4 f 11.6
  #  "Fourth tier" - improvements: -0.75 meV to -0.25 meV
  #     hydro 2 p 4.5
  #     hydro 2 s 2.4
  #     hydro 5 g 14.4
  #     hydro 4 d 14.4
  #     hydro 4 f 16.8
  # Further basis functions - -0.21 meV and below
  #     hydro 3 p 14.8
  #     hydro 3 s 4.4
  #     hydro 3 d 19.6
  #     hydro 5 g 12.8
  ################################################################################
  #
  # For methods that use the localized form of the "resolution of identity" for
  # the two-electron Coulomb operator (RI_method LVL), particularly Hartree-Fock and
  # hybrid density functional calculations, the highest accuracy can be obtained by
  # uncommenting the line beginning with "for_aux"  below, thus adding an extra g radial
  # function to the construction of the product basis set for the expansion.
  # See Ref. New J. Phys. 17, 093020 (2015) for more information, particularly Figs. 1 and 6.
  #
  ################################################################################
  #
  # for_aux hydro 5 g 6.0
  ################################################################################
  #
  #  FHI-aims code project
  # Volker Blum, Fritz Haber Institute Berlin, 2009
  #
  #  Suggested "tight" defaults for O atom (to be pasted into control.in file)
  #
  ################################################################################
    species        O
  #     global species definitions
      nucleus             8
      mass                15.9994
  #
      l_hartree           6
  #
      cut_pot             4.0  2.0  1.0
      basis_dep_cutoff    1e-4
  #
      radial_base         36 7.0
      radial_multiplier   2
       angular_grids specified
        division   0.1817   50
        division   0.3417  110
        division   0.4949  194
        division   0.6251  302
        division   0.8014  434
  #      division   0.8507  590
  #      division   0.8762  770
  #      division   0.9023  974
  #      division   1.2339 1202
  #      outer_grid 974
        outer_grid  434
  ################################################################################
  #
  #  Definition of "minimal" basis
  #
  ################################################################################
  #     valence basis states
      valence      2  s   2.
      valence      2  p   4.
  #     ion occupancy
      ion_occ      2  s   1.
      ion_occ      2  p   3.
  ################################################################################
  #
  #  Suggested additional basis functions. For production calculations,
  #  uncomment them one after another (the most important basis functions are
  #  listed first).
  #
  #  Constructed for dimers: 1.0 A, 1.208 A, 1.5 A, 2.0 A, 3.0 A
  #
  ################################################################################
  #  "First tier" - improvements: -699.05 meV to -159.38 meV
       hydro 2 p 1.8
       hydro 3 d 7.6
       hydro 3 s 6.4
  #  "Second tier" - improvements: -49.91 meV to -5.39 meV
       hydro 4 f 11.6
       hydro 3 p 6.2
       hydro 3 d 5.6
       hydro 5 g 17.6
       hydro 1 s 0.75
  #  "Third tier" - improvements: -2.83 meV to -0.50 meV
  #     ionic 2 p auto
  #     hydro 4 f 10.8
  #     hydro 4 d 4.7
  #     hydro 2 s 6.8
  #  "Fourth tier" - improvements: -0.40 meV to -0.12 meV
  #     hydro 3 p 5
  #     hydro 3 s 3.3
  #     hydro 5 g 15.6
  #     hydro 4 f 17.6
  #     hydro 4 d 14
  # Further basis functions - -0.08 meV and below
  #     hydro 3 s 2.1
  #     hydro 4 d 11.6
  #     hydro 3 p 16
  #     hydro 2 s 17.2
  ################################################################################
  #
  # For methods that use the localized form of the "resolution of identity" for
  # the two-electron Coulomb operator (RI_method LVL), particularly Hartree-Fock and
  # hybrid density functional calculations, the highest accuracy can be obtained by
  # uncommenting the line beginning with "for_aux"  below, thus adding an extra g radial
  # function to the construction of the product basis set for the expansion.
  # See Ref. New J. Phys. 17, 093020 (2015) for more information, particularly Figs. 1 and 6.
  #
  ################################################################################
  #
  # for_aux hydro 5 g 6.0
  
  -----------------------------------------------------------------------
  Completed first pass over input file control.in .
  -----------------------------------------------------------------------
  
  
  -----------------------------------------------------------------------
  Parsing geometry.in (first pass over file, find array dimensions only).
  The contents of geometry.in will be repeated verbatim below
  unless switched off by setting 'verbatim_writeout .false.' .
  in the first line of geometry.in .
  -----------------------------------------------------------------------
  
  #
  # This is the geometry file that corresponds to the current relaxation step.
  # If you do not want this file to be written, set the "write_restart_geometry" flag to .false.
  #
  atom      -0.01937975     -0.14829813      0.18984367 C
  atom      -0.01797903     -0.17095228      1.70523073 C
  atom       1.02722027     -0.19107047      2.34872290 O
  atom      -0.92927119     -0.54465612     -0.27389139 H
  atom       0.84938669     -0.71745250     -0.15633022 H
  atom       0.11036053      0.89035044     -0.14518692 H
  atom      -1.23218188     -0.18399528      2.36938844 N
  atom      -2.59031726      0.00269119      1.84857502 C
  atom      -3.08325853     -1.17464577      0.96505816 C
  atom      -3.98216483     -1.03086490      0.14291151 O
  atom      -1.10765621     -0.09137670      3.37385107 H
  atom      -3.23536111     -0.05048652      2.74170333 H
  atom      -2.84899335      1.35595380      1.18112743 C
  atom      -2.27062721      1.47396836      0.25766135 H
  atom      -2.58109164      2.16759506      1.86864988 H
  atom      -3.90852354      1.44188211      0.91731655 H
  atom      -2.49183893     -2.37302060      1.22565980 N
  atom      -2.79707799     -3.57980977      0.47086055 C
  atom      -4.21314019     -4.17406057      0.65711443 C
  atom      -4.73786047     -4.74121751     -0.29699144 O
  atom      -1.71705189     -2.37883952      1.88147884 H
  atom      -2.78564492     -3.32807181     -0.59947427 H
  atom      -1.74228679     -4.65267828      0.75377393 C
  atom      -0.74077843     -4.29300269      0.48107533 H
  atom      -1.96022693     -5.54811608      0.16105344 H
  atom      -1.73086812     -4.94206423      1.81468879 H
  atom      -4.83578413     -4.12680306      1.87404529 N
  atom      -4.40278500     -3.58447103      3.15016222 C
  atom      -5.76127860     -4.54282017      1.83667182 H
  atom      -5.02677659     -4.02531899      3.93673556 H
  atom      -4.50685332     -2.49008834      3.20660038 H
  atom      -3.36243472     -3.84855366      3.37567680 H
  
  -----------------------------------------------------------------------
  Completed first pass over input file geometry.in .
  -----------------------------------------------------------------------
  

  Basic array size parameters:
  | Number of species                 :        4
  | Number of atoms                   :       32
  | Max. basis fn. angular momentum   :        4
  | Max. atomic/ionic basis occupied n:        2
  | Max. number of basis fn. types    :        2
  | Max. radial fns per species/type  :        8
  | Max. logarithmic grid size        :     1301
  | Max. radial integration grid size :       73
  | Max. angular integration grid size:      434
  | Max. angular grid division number :        8
  | Radial grid for Hartree potential :     1301
  | Number of spin channels           :        1

------------------------------------------------------------
          Reading file control.in.
------------------------------------------------------------
  XC: Using PBE gradient-corrected functionals.
  Self-consistent screening and van der Waals energy (TS, TS+SCS,MBD) module
  Spin treatment: No spin polarisation.
  Charge =   0.000000E+00: Neutral system requested explicitly.
  Occupation type: Gaussian broadening, width =   0.500000E-01 eV.
  Using pulay charge density mixing.
  Pulay mixing - number of memorized iterations:   10
  Charge density mixing - mixing parameter:     0.5000
  Convergence accuracy of self-consistent charge density:  0.1000E-03
  Convergence accuracy of sum of eigenvalues:  0.1000E-01
  Convergence accuracy of total energy:  0.1000E-04
  Convergence accuracy of forces:  0.1000E-03
  Maximum number of s.-c. iterations  :  1000
  Fitting ESP-charges to Potential. 
  | Esp charge output options: 
  | ESP Grid method: 3, cubic grid
  | Number of points in x, ,y, z:  0080 0080 0080
  |
 
  Reading configuration options for species H                   .
  | Found nuclear charge :   1.0000
  | Found atomic mass :    1.00794000000000      amu
  | Found l_max for Hartree potential  :   6
  | Found cutoff potl. onset [A], width [A], scale factor :    4.00000    2.00000    1.00000
  | Threshold for basis-dependent cutoff potential is   0.100000E-03
  | Found data for basic radial integration grid :    24 points, outermost radius =    7.000 A
  | Found multiplier for basic radial grid :   2
  | Found angular grid specification: user-specified.
  | Specified grid contains     6 separate shells.
  | Check grid settings after all constraints further below.
  | Found free-atom valence shell :  1 s   1.000
  | No ionic wave fns used. Skipping ion_occ.
  | Found hydrogenic basis function :  2 s   2.100
  | Found hydrogenic basis function :  2 p   3.500
  | Found hydrogenic basis function :  1 s   0.850
  | Found hydrogenic basis function :  2 p   3.700
  | Found hydrogenic basis function :  2 s   1.200
  | Found hydrogenic basis function :  3 d   7.000
  Species H                   : Missing cutoff potential type.
  Defaulting to exp(1/x)/(1-x)^2 type cutoff potential.
  Species H : No 'logarithmic' tag. Using default grid for free atom:
  | Default logarithmic grid data [bohr] : 0.1000E-03 0.1000E+03 0.1012E+01
  Species H : On-site basis accuracy parameter (for Gram-Schmidt orthonormalisation) not specified.
  Using default value basis_acc =  0.1000000E-03.
  Species H                   : Using default innermost maximum threshold i_radial=  2 for radial functions.
  Species H                   : Default cutoff onset for free atom density etc. : 0.40000000E+01 AA.
  Species H                   : Basic radial grid will be enhanced according to radial_multiplier =   2, to contain    49 grid points.
 
  Reading configuration options for species C                   .
  | Found nuclear charge :   6.0000
  | Found atomic mass :    12.0107000000000      amu
  | Found l_max for Hartree potential  :   6
  | Found cutoff potl. onset [A], width [A], scale factor :    4.00000    2.00000    1.00000
  | Threshold for basis-dependent cutoff potential is   0.100000E-03
  | Found data for basic radial integration grid :    34 points, outermost radius =    7.000 A
  | Found multiplier for basic radial grid :   2
  | Found angular grid specification: user-specified.
  | Specified grid contains     6 separate shells.
  | Check grid settings after all constraints further below.
  | Found free-atom valence shell :  2 s   2.000
  | Found free-atom valence shell :  2 p   2.000
  | No ionic wave fns used. Skipping ion_occ.
  | No ionic wave fns used. Skipping ion_occ.
  | Found hydrogenic basis function :  2 p   1.700
  | Found hydrogenic basis function :  3 d   6.000
  | Found hydrogenic basis function :  2 s   4.900
  | Found hydrogenic basis function :  4 f   9.800
  | Found hydrogenic basis function :  3 p   5.200
  | Found hydrogenic basis function :  3 s   4.300
  | Found hydrogenic basis function :  5 g  14.400
  | Found hydrogenic basis function :  3 d   6.200
  Species C                   : Missing cutoff potential type.
  Defaulting to exp(1/x)/(1-x)^2 type cutoff potential.
  Species C : No 'logarithmic' tag. Using default grid for free atom:
  | Default logarithmic grid data [bohr] : 0.1000E-03 0.1000E+03 0.1012E+01
  Species C : On-site basis accuracy parameter (for Gram-Schmidt orthonormalisation) not specified.
  Using default value basis_acc =  0.1000000E-03.
  Species C                   : Using default innermost maximum threshold i_radial=  2 for radial functions.
  Species C                   : Default cutoff onset for free atom density etc. : 0.40000000E+01 AA.
  Species C                   : Basic radial grid will be enhanced according to radial_multiplier =   2, to contain    69 grid points.
 
  Reading configuration options for species N                   .
  | Found nuclear charge :   7.0000
  | Found atomic mass :    14.0067000000000      amu
  | Found l_max for Hartree potential  :   6
  | Found cutoff potl. onset [A], width [A], scale factor :    4.00000    2.00000    1.00000
  | Threshold for basis-dependent cutoff potential is   0.100000E-03
  | Found data for basic radial integration grid :    35 points, outermost radius =    7.000 A
  | Found multiplier for basic radial grid :   2
  | Found angular grid specification: user-specified.
  | Specified grid contains     6 separate shells.
  | Check grid settings after all constraints further below.
  | Found free-atom valence shell :  2 s   2.000
  | Found free-atom valence shell :  2 p   3.000
  | No ionic wave fns used. Skipping ion_occ.
  | No ionic wave fns used. Skipping ion_occ.
  | Found hydrogenic basis function :  2 p   1.800
  | Found hydrogenic basis function :  3 d   6.800
  | Found hydrogenic basis function :  3 s   5.800
  | Found hydrogenic basis function :  4 f  10.800
  | Found hydrogenic basis function :  3 p   5.800
  | Found hydrogenic basis function :  1 s   0.800
  | Found hydrogenic basis function :  5 g  16.000
  | Found hydrogenic basis function :  3 d   4.900
  Species N                   : Missing cutoff potential type.
  Defaulting to exp(1/x)/(1-x)^2 type cutoff potential.
  Species N : No 'logarithmic' tag. Using default grid for free atom:
  | Default logarithmic grid data [bohr] : 0.1000E-03 0.1000E+03 0.1012E+01
  Species N : On-site basis accuracy parameter (for Gram-Schmidt orthonormalisation) not specified.
  Using default value basis_acc =  0.1000000E-03.
  Species N                   : Using default innermost maximum threshold i_radial=  2 for radial functions.
  Species N                   : Default cutoff onset for free atom density etc. : 0.40000000E+01 AA.
  Species N                   : Basic radial grid will be enhanced according to radial_multiplier =   2, to contain    71 grid points.
 
  Reading configuration options for species O                   .
  | Found nuclear charge :   8.0000
  | Found atomic mass :    15.9994000000000      amu
  | Found l_max for Hartree potential  :   6
  | Found cutoff potl. onset [A], width [A], scale factor :    4.00000    2.00000    1.00000
  | Threshold for basis-dependent cutoff potential is   0.100000E-03
  | Found data for basic radial integration grid :    36 points, outermost radius =    7.000 A
  | Found multiplier for basic radial grid :   2
  | Found angular grid specification: user-specified.
  | Specified grid contains     6 separate shells.
  | Check grid settings after all constraints further below.
  | Found free-atom valence shell :  2 s   2.000
  | Found free-atom valence shell :  2 p   4.000
  | No ionic wave fns used. Skipping ion_occ.
  | No ionic wave fns used. Skipping ion_occ.
  | Found hydrogenic basis function :  2 p   1.800
  | Found hydrogenic basis function :  3 d   7.600
  | Found hydrogenic basis function :  3 s   6.400
  | Found hydrogenic basis function :  4 f  11.600
  | Found hydrogenic basis function :  3 p   6.200
  | Found hydrogenic basis function :  3 d   5.600
  | Found hydrogenic basis function :  5 g  17.600
  | Found hydrogenic basis function :  1 s   0.750
  Species O                   : Missing cutoff potential type.
  Defaulting to exp(1/x)/(1-x)^2 type cutoff potential.
  Species O : No 'logarithmic' tag. Using default grid for free atom:
  | Default logarithmic grid data [bohr] : 0.1000E-03 0.1000E+03 0.1012E+01
  Species O : On-site basis accuracy parameter (for Gram-Schmidt orthonormalisation) not specified.
  Using default value basis_acc =  0.1000000E-03.
  Species O                   : Using default innermost maximum threshold i_radial=  2 for radial functions.
  Species O                   : Default cutoff onset for free atom density etc. : 0.40000000E+01 AA.
  Species O                   : Basic radial grid will be enhanced according to radial_multiplier =   2, to contain    73 grid points.
 
  Finished reading input file 'control.in'. Consistency checks are next.
 
  Target number of points in a grid batch is not set. Defaulting to  100
  Method for grid partitioning is not set. Defaulting to parallel hash+maxmin partitioning.
  Batch size limit is not set. Defaulting to    200
  By default, will store active basis functions for each batch.
  If in need of memory, prune_basis_once .false. can be used to disable this option.
  communication_type for Hartree potential was not specified.
  Defaulting to calc_hartree .
  Pulay mixer: Number of initial linear mixing iterations not set.
  Defaulting to    0 iterations.
  Work space size for distributed Hartree potential not set.
  Defaulting to   0.200000E+03 MB.
  Algorithm-dependent basis array size parameters:
  | n_max_pulay                         :       10
  Geometry relaxation not requested: no relaxation will be performed.
  Handling of forces: Unphysical translation and rotation will be removed from forces.
  No accuracy limit for integral partition fn. given. Defaulting to  0.1000E-14.
  No threshold value for u(r) in integrations given. Defaulting to  0.1000E-05.
  No accuracy for occupation numbers given. Defaulting to  0.1000E-07.
  No threshold value for occupation numbers given. Defaulting to  0.0000E+00.
  No accuracy for fermi level given. Defaulting to  0.1000E-19.
  Maximum # of iterations to find E_F not set. Defaulting to  200.
  Preferred method for the eigenvalue solver ('KS_method') not specified in 'control.in'.
  Calling blacs routine to test compilation state
  Since scalapack support is enabled, defaulting to 'elpa'.
  Preferred method for the MBD eigenvalue solver ('mbd_eigensolver') not specified in 'control.in'.
  Calling blacs routine to test compilation state
  Since scalapack support is enabled, defaulting to 'scaLAPACK'.
  Will not use alltoall communication since running on < 1024 CPUs.
  Threshold for basis singularities not set.
  Default threshold for basis singularities:  0.1000E-04
  partition_type (choice of integration weights) for integrals was not specified.
  | Using a version of the partition function of Stratmann and coworkers ('stratmann_smoother').
  | At each grid point, the set of atoms used to build the partition table is smoothly restricted to
  | only those atoms whose free-atom density would be non-zero at that grid point.
  Partitioning for Hartree potential was not defined. Using partition_type for integrals.
  | Adjusted default value of keyword multip_moments_threshold to:       0.10000000E-11
  | This value may affect high angular momentum components of the Hartree potential in periodic systems.
  No q(lm)/r^(l+1) cutoff set for long-range Hartree potential.
  | Using default value of  0.100000E-09 .
  | Verify using the multipole_threshold keyword.
  Defaulting to new monopole extrapolation.
  Density update method: automatic selection selected.
------------------------------------------------------------


------------------------------------------------------------
          Reading geometry description geometry.in.
------------------------------------------------------------
 * Warning! You did not set the 'relativistic' flag in input file 'control.in'.
 * Since you are not attempting to treat any elements beyond Ca(Z=20), FHI-aims
 * will default to 'relativistic none'.
 * You must ensure that this is really what you want!!
 * For example, DO NOT compute total-energy differences between results from
 * different settings of the 'relativistic' flag.
  Input structure read successfully.
  The structure contains       32 atoms,  and a total of        116.000 electrons.

  Input geometry:
  | No unit cell requested.
  | Atomic structure:
  |       Atom                x [A]            y [A]            z [A]
  |    1: Species C             -0.019380        -0.148298         0.189844
  |    2: Species C             -0.017979        -0.170952         1.705231
  |    3: Species O              1.027220        -0.191070         2.348723
  |    4: Species H             -0.929271        -0.544656        -0.273891
  |    5: Species H              0.849387        -0.717453        -0.156330
  |    6: Species H              0.110361         0.890350        -0.145187
  |    7: Species N             -1.232182        -0.183995         2.369388
  |    8: Species C             -2.590317         0.002691         1.848575
  |    9: Species C             -3.083259        -1.174646         0.965058
  |   10: Species O             -3.982165        -1.030865         0.142912
  |   11: Species H             -1.107656        -0.091377         3.373851
  |   12: Species H             -3.235361        -0.050487         2.741703
  |   13: Species C             -2.848993         1.355954         1.181127
  |   14: Species H             -2.270627         1.473968         0.257661
  |   15: Species H             -2.581092         2.167595         1.868650
  |   16: Species H             -3.908524         1.441882         0.917317
  |   17: Species N             -2.491839        -2.373021         1.225660
  |   18: Species C             -2.797078        -3.579810         0.470861
  |   19: Species C             -4.213140        -4.174061         0.657114
  |   20: Species O             -4.737860        -4.741218        -0.296991
  |   21: Species H             -1.717052        -2.378840         1.881479
  |   22: Species H             -2.785645        -3.328072        -0.599474
  |   23: Species C             -1.742287        -4.652678         0.753774
  |   24: Species H             -0.740778        -4.293003         0.481075
  |   25: Species H             -1.960227        -5.548116         0.161053
  |   26: Species H             -1.730868        -4.942064         1.814689
  |   27: Species N             -4.835784        -4.126803         1.874045
  |   28: Species C             -4.402785        -3.584471         3.150162
  |   29: Species H             -5.761279        -4.542820         1.836672
  |   30: Species H             -5.026777        -4.025319         3.936736
  |   31: Species H             -4.506853        -2.490088         3.206600
  |   32: Species H             -3.362435        -3.848554         3.375677
  |

  | The smallest distance between any two atoms is         1.01509971 AA.
  |
  | The first atom of this pair is atom number                     17 .
  | The second atom of this pair is atom number                    21 .

  Number of empty states per atom not set in control.in - providing a guess from actual geometry.
  | Total number of empty states used during s.c.f. cycle:       71
  If you use a very high smearing, use empty_states (per atom!) in control.in to increase this value.

  Structure-dependent array size parameters: 
  | Maximum number of distinct radial functions  :       40
  | Maximum number of basis functions            :      840
  | Number of Kohn-Sham states (occupied + empty):      129
------------------------------------------------------------

------------------------------------------------------------
          Preparing all fixed parts of the calculation.
------------------------------------------------------------
  Determining machine precision:
    2.225073858507201E-308
  Setting up grids for atomic and cluster calculations.

  Creating wave function, potential, and density for free atoms.

  Species: H

  List of occupied orbitals and eigenvalues:
    n    l              occ      energy [Ha]    energy [eV]
    1    0           1.0000        -0.238382        -6.4867


  Species: C

  List of occupied orbitals and eigenvalues:
    n    l              occ      energy [Ha]    energy [eV]
    1    0           2.0000       -10.041232      -273.2358
    2    0           2.0000        -0.504327       -13.7234
    2    1           2.0000        -0.193750        -5.2722


  Species: N

  List of occupied orbitals and eigenvalues:
    n    l              occ      energy [Ha]    energy [eV]
    1    0           2.0000       -14.129007      -384.4699
    2    0           2.0000        -0.681802       -18.5528
    2    1           3.0000        -0.260543        -7.0897


  Species: O

  List of occupied orbitals and eigenvalues:
    n    l              occ      energy [Ha]    energy [eV]
    1    0           2.0000       -18.898576      -514.2564
    2    0           2.0000        -0.878795       -23.9132
    2    1           4.0000        -0.332075        -9.0362

  Creating fixed part of basis set: Ionic, confined, hydrogenic.
 
  H                    hydrogenic:
 
  List of hydrogenic basis orbitals: 
    n    l      effective z      eigenvalue [eV]  inner max. [A]     outer max. [A]     outer radius [A]   
    2    0         2.100000       -14.9965           0.193243           1.317208           5.373006
    2    1         3.500000       -41.6672           0.602369           0.602369           4.056063
    1    0         0.850000        -9.8292           0.624871           0.624871           5.373006
    2    1         3.700000       -46.5653           0.573622           0.573622           3.910002
    2    0         1.200000        -4.5995           0.334980           2.228188           5.505995
    3    2         7.000000       -74.0753           0.680699           0.680699           3.769201
 
 
  C                    hydrogenic:
 
  List of hydrogenic basis orbitals: 
    n    l      effective z      eigenvalue [eV]  inner max. [A]     outer max. [A]     outer radius [A]   
    2    1         1.700000        -9.8152           1.245706           1.245706           5.401630
    3    2         6.000000       -54.4226           0.792453           0.792453           4.178599
    2    0         4.900000       -81.6681           0.082559           0.562749           3.353238
    4    3         9.800000       -81.6681           0.863254           0.863254           4.028125
    3    1         5.200000       -40.8774           0.305389           1.215618           4.898362
    3    0         4.300000       -27.9508           0.091041           1.610311           5.401630
    5    4        14.400000      -112.8510           0.917666           0.917666           3.883070
    3    2         6.200000       -58.1113           0.763917           0.763917           4.077671
 
 
  N                    hydrogenic:
 
  List of hydrogenic basis orbitals: 
    n    l      effective z      eigenvalue [eV]  inner max. [A]     outer max. [A]     outer radius [A]   
    2    1         1.800000       -11.0118           1.177451           1.177451           5.427479
    3    2         6.800000       -69.9029           0.704619           0.704619           3.854246
    3    0         5.800000       -50.8549           0.067388           1.191934           4.629968
    4    3        10.800000       -99.1854           0.786571           0.786571           3.761152
    3    1         5.800000       -50.8549           0.274880           1.094176           4.518138
    1    0         0.800000        -8.7059           0.662839           0.662839           5.361532
    5    4        16.000000      -139.3222           0.825990           0.825990           3.625711
    3    2         4.900000       -36.2967           0.968267           0.968267           4.862000
 
 
  O                    hydrogenic:
 
  List of hydrogenic basis orbitals: 
    n    l      effective z      eigenvalue [eV]  inner max. [A]     outer max. [A]     outer radius [A]   
    2    1         1.800000       -11.0118           1.178562           1.178562           5.432602
    3    2         7.600000       -87.3182           0.624125           0.624125           3.541477
    3    0         6.400000       -61.9209           0.061167           1.081902           4.306578
    4    3        11.600000      -114.4238           0.731631           0.731631           3.585037
    3    1         6.200000       -58.1113           0.255680           1.030270           4.306578
    3    2         5.600000       -47.4081           0.847233           0.847233           4.413171
    5    4        17.600000      -168.5799           0.749740           0.749740           3.372465
    1    0         0.750000        -7.6499           0.705284           0.705284           5.366593
 

  Adding cutoff potential to free-atom effective potential.
  Creating atomic-like basis functions for current effective potential.

  Species H                   :

  List of atomic basis orbitals and eigenvalues:
    n    l      energy [Ha]    energy [eV]    outer radius [A]
    1    0        -0.238382        -6.4867       5.373006


  Species C                   :

  List of atomic basis orbitals and eigenvalues:
    n    l      energy [Ha]    energy [eV]    outer radius [A]
    1    0       -10.041232      -273.2358       1.934409
    2    0        -0.504327       -13.7234       5.271162
    2    1        -0.193750        -5.2722       5.401630


  Species N                   :

  List of atomic basis orbitals and eigenvalues:
    n    l      energy [Ha]    energy [eV]    outer radius [A]
    1    0       -14.129007      -384.4699       1.637919
    2    0        -0.681802       -18.5528       5.168461
    2    1        -0.260543        -7.0897       5.361532


  Species O                   :

  List of atomic basis orbitals and eigenvalues:
    n    l      energy [Ha]    energy [eV]    outer radius [A]
    1    0       -18.898576      -514.2564       1.415765
    2    0        -0.878795       -23.9132       5.048385
    2    1        -0.332075        -9.0362       5.301386

  Assembling full basis from fixed parts.
  | Species H :   atomic orbital   1 s accepted.
  | Species H :    hydro orbital   2 s accepted.
  | Species H :    hydro orbital   1 s accepted.
  | Species H :    hydro orbital   2 s accepted.
  | Species H :    hydro orbital   2 p accepted.
  | Species H :    hydro orbital   2 p accepted.
  | Species H :    hydro orbital   3 d accepted.
  | Species C :   atomic orbital   1 s accepted.
  | Species C :    hydro orbital   2 s accepted.
  | Species C :   atomic orbital   2 s accepted.
  | Species C :    hydro orbital   3 s accepted.
  | Species C :    hydro orbital   3 p accepted.
  | Species C :   atomic orbital   2 p accepted.
  | Species C :    hydro orbital   2 p accepted.
  | Species C :    hydro orbital   3 d accepted.
  | Species C :    hydro orbital   3 d accepted.
  | Species C :    hydro orbital   4 f accepted.
  | Species C :    hydro orbital   5 g accepted.
  | Species N :   atomic orbital   1 s accepted.
  | Species N :    hydro orbital   3 s accepted.
  | Species N :   atomic orbital   2 s accepted.
  | Species N :    hydro orbital   1 s accepted.
  | Species N :    hydro orbital   3 p accepted.
  | Species N :   atomic orbital   2 p accepted.
  | Species N :    hydro orbital   2 p accepted.
  | Species N :    hydro orbital   3 d accepted.
  | Species N :    hydro orbital   3 d accepted.
  | Species N :    hydro orbital   4 f accepted.
  | Species N :    hydro orbital   5 g accepted.
  | Species O :   atomic orbital   1 s accepted.
  | Species O :    hydro orbital   3 s accepted.
  | Species O :   atomic orbital   2 s accepted.
  | Species O :    hydro orbital   1 s accepted.
  | Species O :    hydro orbital   3 p accepted.
  | Species O :   atomic orbital   2 p accepted.
  | Species O :    hydro orbital   2 p accepted.
  | Species O :    hydro orbital   3 d accepted.
  | Species O :    hydro orbital   3 d accepted.
  | Species O :    hydro orbital   4 f accepted.
  | Species O :    hydro orbital   5 g accepted.
 
  Basis size parameters after reduction:
  | Total number of radial functions:       40
  | Total number of basis functions :      840
 
  Testing on-site integration grid accuracy.
  |  Species  Function  <phi|h_atom|phi> (log., in eV)  <phi|h_atom|phi> (rad., in eV)
           1        1                 -6.4869821809                 -6.4870742227
           1        2                 13.5044133542                 13.5041049177
           1        3                 32.7854418792                 32.7779770519
           1        4                 33.7995553101                 33.7152624900 ***
           1        5                 28.8558651799                 28.8558652046
           1        6                 59.6361831893                 59.6362535845
           1        7                 60.2733718049                 60.2733715484
           2        8               -273.2358277112               -273.2358261765
           2        9                -10.7624923123                -10.7625144012
           2       10                 17.4634079027                 17.4634252127
           2       11                 53.0363661832                 53.0366180446
           2       12                 15.0981351967                 15.0981317714
           2       13                  3.8522181899                  3.8522770949
           2       14                 12.1181835661                 12.1206868578
           2       15                 29.4320778347                 29.4320780959
           2       16                 54.8753777694                 54.8752901936
           2       17                 59.3533975461                 59.3533974833
           2       18                 93.4537491195                 93.4537492066
           3       19               -384.4698526889               -384.4698499465
           3       20                 12.5691022037                 12.5690910168
           3       21                -15.7489097511                -15.7489165588
           3       22                 27.0978334940                 27.0985589490
           3       23                 18.5949116966                 18.5949125562
           3       24                  1.2212828291                  1.2212855301
           3       25                 13.4428926797                 13.4434051125
           3       26                 35.9380614500                 35.9380613666
           3       27                 39.9231532098                 39.9231654735
           3       28                 72.9957335806                 72.9957336833
           3       29                116.4231321147                116.4231321431
           4       30               -514.2564144315               -514.2564099626
           4       31                 15.1726678541                 15.1726530877
           4       32                -21.5447785304                -21.5447874973
           4       33                 14.4944558459                 14.4944698284
           4       34                 20.8882174564                 20.8882178906
           4       35                 -2.4850315908                 -2.4850322289
           4       36                 13.8600193195                 13.8599826966
           4       37                 45.8243383616                 45.8243383675
           4       38                 52.1840606465                 52.1840622440
           4       39                 85.4074185510                 85.4074185819
           4       40                142.0983717302                142.0983717339
 * Note: Onsite integrals marked "***" above are less accurate than
 * onsite_accuracy_threshold =    0.03000 eV. Usually, this is harmless.
 * When in doubt, tighten the "radial" and/or "radial_multiplier" flags to check.

  Preparing densities etc. for the partition functions (integrals / Hartree potential).

  Preparations completed.
  max(cpu_time)          :      0.236 s.
  Wall clock time (cpu1) :      0.235 s.
------------------------------------------------------------

------------------------------------------------------------
          Begin self-consistency loop: Initialization.

          Date     :  20170309, Time     :  190811.425
------------------------------------------------------------

  Initializing index lists of integration centers etc. from given atomic structure:
  | Number of centers in hartree potential         :        32
  | Number of centers in hartree multipole         :        32
  | Number of centers in electron density summation:        32
  | Number of centers in basis integrals           :        32
  | Number of centers in integrals                 :        32
  | Number of centers in hamiltonian               :        32
  Using modified Scalapack Eigenvalue solver (ELPA)
  * Using 32 tasks for Scalapack Eigenvalue solver.
  Detailed listing of tasks and assigned k-points:
  (for non-periodic systems, the "k-point" denotes an internal label only)
   Task     0 k-point     1 on eos069
   Task     1 k-point     1 on eos069
   Task     2 k-point     1 on eos069
   Task     3 k-point     1 on eos069
   Task     4 k-point     1 on eos069
   Task     5 k-point     1 on eos069
   Task     6 k-point     1 on eos069
   Task     7 k-point     1 on eos069
   Task     8 k-point     1 on eos069
   Task     9 k-point     1 on eos069
   Task    10 k-point     1 on eos069
   Task    11 k-point     1 on eos069
   Task    12 k-point     1 on eos069
   Task    13 k-point     1 on eos069
   Task    14 k-point     1 on eos069
   Task    15 k-point     1 on eos069
   Task    16 k-point     1 on eos069
   Task    17 k-point     1 on eos069
   Task    18 k-point     1 on eos069
   Task    19 k-point     1 on eos069
   Task    20 k-point     1 on eos069
   Task    21 k-point     1 on eos069
   Task    22 k-point     1 on eos069
   Task    23 k-point     1 on eos069
   Task    24 k-point     1 on eos069
   Task    25 k-point     1 on eos069
   Task    26 k-point     1 on eos069
   Task    27 k-point     1 on eos069
   Task    28 k-point     1 on eos069
   Task    29 k-point     1 on eos069
   Task    30 k-point     1 on eos069
   Task    31 k-point     1 on eos069
  Tasks:    32 split into      8 X      4 BLACS grid
  Calculating blocksize based on n_basis =          840 max_nprow =            8 max_npcol =            4
  Scalapack blocksize set to:           16
  Required Scalapack workspace - INTEGER:            1 REAL:             1
  Partitioning the integration grid into batches with parallel hashing+maxmin method.
  | Number of batches:     4999
  | Maximal batch size:     200
  | Minimal batch size:      51
  | Average batch size:     105.567
  | Standard deviation of batch sizes:      34.355

  Integration load balanced across    32 MPI tasks.
  Work distribution over tasks is as follows:
  Task     0 has      16475 integration points.
  Task     1 has      16438 integration points.
  Task     2 has      16450 integration points.
  Task     3 has      16416 integration points.
  Task     4 has      16513 integration points.
  Task     5 has      16505 integration points.
  Task     6 has      16414 integration points.
  Task     7 has      16475 integration points.
  Task     8 has      16471 integration points.
  Task     9 has      16541 integration points.
  Task    10 has      16404 integration points.
  Task    11 has      16508 integration points.
  Task    12 has      16510 integration points.
  Task    13 has      16534 integration points.
  Task    14 has      16543 integration points.
  Task    15 has      16531 integration points.
  Task    16 has      16480 integration points.
  Task    17 has      16518 integration points.
  Task    18 has      16521 integration points.
  Task    19 has      16539 integration points.
  Task    20 has      16546 integration points.
  Task    21 has      16550 integration points.
  Task    22 has      16508 integration points.
  Task    23 has      16477 integration points.
  Task    24 has      16403 integration points.
  Task    25 has      16515 integration points.
  Task    26 has      16492 integration points.
  Task    27 has      16517 integration points.
  Task    28 has      16486 integration points.
  Task    29 has      16544 integration points.
  Task    30 has      16478 integration points.
  Task    31 has      16426 integration points.
  Initializing partition tables, free-atom densities, potentials, etc. across the integration grid (initialize_grid_storage).
  | initialize_grid_storage: Actual outermost partition radius vs. multipole_radius_free
  | (-- VB: in principle, multipole_radius_free should be larger, hence this output)
  | Species        1: Confinement radius =              6.000000000000000 AA, multipole_radius_free =              6.071692442739658 AA.
  | Species        1: outer_partition_radius set to              6.071692442739658 AA .
  | Species        2: Confinement radius =              6.000000000000000 AA, multipole_radius_free =              6.029870734432609 AA.
  | Species        2: outer_partition_radius set to              6.029870734432609 AA .
  | Species        3: Confinement radius =              6.000000000000000 AA, multipole_radius_free =              6.058726835495003 AA.
  | Species        3: outer_partition_radius set to              6.058726835495003 AA .
  | Species        4: Confinement radius =              6.000000000000000 AA, multipole_radius_free =              6.064445521808699 AA.
  | Species        4: outer_partition_radius set to              6.064445521808699 AA .
  | Original list of interatomic distances with          32 x         32 entries is created.
  | Net number of integration points:   527728
  | of which are non-zero points    :   411984
  Obtaining max. number of non-zero basis functions in each batch (get_n_compute_maxes).
  | Maximal number of non-zero basis functions:      793 in task     0
  | Maximal number of non-zero basis functions:      792 in task     1
  | Maximal number of non-zero basis functions:      787 in task     2
  | Maximal number of non-zero basis functions:      780 in task     3
  | Maximal number of non-zero basis functions:      784 in task     4
  | Maximal number of non-zero basis functions:      787 in task     5
  | Maximal number of non-zero basis functions:      777 in task     6
  | Maximal number of non-zero basis functions:      790 in task     7
  | Maximal number of non-zero basis functions:      781 in task     8
  | Maximal number of non-zero basis functions:      791 in task     9
  | Maximal number of non-zero basis functions:      779 in task    10
  | Maximal number of non-zero basis functions:      793 in task    11
  | Maximal number of non-zero basis functions:      787 in task    12
  | Maximal number of non-zero basis functions:      784 in task    13
  | Maximal number of non-zero basis functions:      789 in task    14
  | Maximal number of non-zero basis functions:      779 in task    15
  | Maximal number of non-zero basis functions:      784 in task    16
  | Maximal number of non-zero basis functions:      789 in task    17
  | Maximal number of non-zero basis functions:      786 in task    18
  | Maximal number of non-zero basis functions:      792 in task    19
  | Maximal number of non-zero basis functions:      784 in task    20
  | Maximal number of non-zero basis functions:      780 in task    21
  | Maximal number of non-zero basis functions:      788 in task    22
  | Maximal number of non-zero basis functions:      785 in task    23
  | Maximal number of non-zero basis functions:      784 in task    24
  | Maximal number of non-zero basis functions:      786 in task    25
  | Maximal number of non-zero basis functions:      792 in task    26
  | Maximal number of non-zero basis functions:      791 in task    27
  | Maximal number of non-zero basis functions:      783 in task    28
  | Maximal number of non-zero basis functions:      783 in task    29
  | Maximal number of non-zero basis functions:      786 in task    30
  | Maximal number of non-zero basis functions:      791 in task    31
  Selecting the method for density update.
  Loop over occupied states selected for charge density update.
  Integrating Hamiltonian matrix: batch-based integration.
  Time summed over all CPUs for integration: real work       22.569 s, elapsed       23.181 s
  Integrating overlap matrix.
  Time summed over all CPUs for integration: real work       13.908 s, elapsed       14.321 s
  Deallocating overlap matrix.

  Updating Kohn-Sham eigenvalues, eigenvectors, occupation numbers, and Fermi level.
  Solving generalized eigenproblem
  Solving real symmetric generalised eigenvalue problem by standard ScaLAPACK.
  Transforming overlap matrix with ScaLAPACK and checking for singularities.
  : Overlap matrix is nonsingular, using Cholesky decomposition
  | Lowest eigenvalue:  0.756142E-04
  Factoring overlap matrix with Cholesky decomposition
  Using Cholesky factor for transformation
  Using 1-stage real ELPA solver
  Determining occupation numbers for Kohn-Sham eigenstates.
  | Chemical potential (Fermi level) in eV                 : -.96028839E+01
  | Error in electron count due to remaining E_F inaccuracy: 0.00000000E+00
  | Maximum occupation number of highest empty state:  0.00E+00

  Writing Kohn-Sham eigenvalues.

  State    Occupation    Eigenvalue [Ha]    Eigenvalue [eV]
      1       2.00000         -18.974823         -516.33122
      2       2.00000         -18.974516         -516.32286
      3       2.00000         -18.974326         -516.31768
      4       2.00000         -14.256077         -387.92761
      5       2.00000         -14.254428         -387.88271
      6       2.00000         -14.250967         -387.78856
      7       2.00000         -10.171409         -276.77811
      8       2.00000         -10.171377         -276.77724
      9       2.00000         -10.170907         -276.76445
     10       2.00000         -10.166506         -276.64470
     11       2.00000         -10.148606         -276.15761
     12       2.00000         -10.147037         -276.11492
     13       2.00000         -10.135048         -275.78869
     14       2.00000         -10.134756         -275.78075
     15       2.00000         -10.134008         -275.76039
     16       2.00000          -1.135129          -30.88843
     17       2.00000          -1.132329          -30.81224
     18       2.00000          -1.130678          -30.76731
     19       2.00000          -1.023345          -27.84663
     20       2.00000          -1.009075          -27.45834
     21       2.00000          -1.000886          -27.23549
     22       2.00000          -0.885430          -24.09378
     23       2.00000          -0.873283          -23.76325
     24       2.00000          -0.849037          -23.10348
     25       2.00000          -0.817093          -22.23423
     26       2.00000          -0.781276          -21.25960
     27       2.00000          -0.755803          -20.56645
     28       2.00000          -0.705116          -19.18718
     29       2.00000          -0.681556          -18.54607
     30       2.00000          -0.676098          -18.39756
     31       2.00000          -0.635633          -17.29645
     32       2.00000          -0.628712          -17.10813
     33       2.00000          -0.617389          -16.80001
     34       2.00000          -0.608887          -16.56865
     35       2.00000          -0.583336          -15.87339
     36       2.00000          -0.578105          -15.73105
     37       2.00000          -0.564796          -15.36888
     38       2.00000          -0.562591          -15.30889
     39       2.00000          -0.557864          -15.18025
     40       2.00000          -0.555946          -15.12807
     41       2.00000          -0.549873          -14.96282
     42       2.00000          -0.539630          -14.68408
     43       2.00000          -0.530206          -14.42763
     44       2.00000          -0.528010          -14.36788
     45       2.00000          -0.522856          -14.22763
     46       2.00000          -0.518569          -14.11097
     47       2.00000          -0.515136          -14.01757
     48       2.00000          -0.506647          -13.78656
     49       2.00000          -0.490341          -13.34285
     50       2.00000          -0.486529          -13.23914
     51       2.00000          -0.480924          -13.08661
     52       2.00000          -0.470645          -12.80691
     53       2.00000          -0.413489          -11.25161
     54       2.00000          -0.411863          -11.20736
     55       2.00000          -0.401751          -10.93219
     56       2.00000          -0.382954          -10.42070
     57       2.00000          -0.381792          -10.38909
     58       2.00000          -0.378652          -10.30366
     59       0.00000          -0.162619           -4.42509
     60       0.00000          -0.161127           -4.38450
     61       0.00000          -0.159736           -4.34663
     62       0.00000          -0.084176           -2.29056
     63       0.00000          -0.065862           -1.79220
     64       0.00000          -0.060337           -1.64185
     65       0.00000          -0.055382           -1.50703
     66       0.00000          -0.047588           -1.29494
     67       0.00000          -0.038482           -1.04716
     68       0.00000          -0.036471           -0.99243
     69       0.00000          -0.029566           -0.80454
     70       0.00000          -0.026783           -0.72881
     71       0.00000          -0.021035           -0.57239
     72       0.00000          -0.018091           -0.49229
     73       0.00000          -0.011763           -0.32008
     74       0.00000          -0.005889           -0.16024
     75       0.00000          -0.001357           -0.03693
     76       0.00000           0.000618            0.01681
     77       0.00000           0.004792            0.13041
     78       0.00000           0.012807            0.34849
     79       0.00000           0.013884            0.37779
     80       0.00000           0.017976            0.48916
     81       0.00000           0.019654            0.53482
     82       0.00000           0.026008            0.70772
     83       0.00000           0.034050            0.92656
     84       0.00000           0.046354            1.26136
     85       0.00000           0.047317            1.28757
     86       0.00000           0.048405            1.31716
     87       0.00000           0.053546            1.45707
     88       0.00000           0.064494            1.75496
     89       0.00000           0.067370            1.83323
     90       0.00000           0.071758            1.95262
     91       0.00000           0.078614            2.13920
     92       0.00000           0.086006            2.34036
     93       0.00000           0.089274            2.42926
     94       0.00000           0.091409            2.48735
     95       0.00000           0.096123            2.61564
     96       0.00000           0.098701            2.68578
     97       0.00000           0.103969            2.82913
     98       0.00000           0.109821            2.98837
     99       0.00000           0.117218            3.18966
    100       0.00000           0.120303            3.27361
    101       0.00000           0.131474            3.57758
    102       0.00000           0.134626            3.66337
    103       0.00000           0.136174            3.70548
    104       0.00000           0.140020            3.81013
    105       0.00000           0.146416            3.98419
    106       0.00000           0.151389            4.11950
    107       0.00000           0.155087            4.22014
    108       0.00000           0.162719            4.42782
    109       0.00000           0.164192            4.46788
    110       0.00000           0.167181            4.54924
    111       0.00000           0.174371            4.74488
    112       0.00000           0.182302            4.96070
    113       0.00000           0.185997            5.06125
    114       0.00000           0.189497            5.15649
    115       0.00000           0.198280            5.39549
    116       0.00000           0.200159            5.44659
    117       0.00000           0.200770            5.46323
    118       0.00000           0.210849            5.73749
    119       0.00000           0.211109            5.74457
    120       0.00000           0.217048            5.90618
    121       0.00000           0.218187            5.93718
    122       0.00000           0.225805            6.14447
    123       0.00000           0.228935            6.22964
    124       0.00000           0.235691            6.41349
    125       0.00000           0.239504            6.51725
    126       0.00000           0.241568            6.57341
    127       0.00000           0.245861            6.69023
    128       0.00000           0.259583            7.06360
    129       0.00000           0.265483            7.22416

  Highest occupied state (VBM) at    -10.30365845 eV
  | Occupation number:      2.00000000

  Lowest unoccupied state (CBM) at    -4.42508726 eV
  | Occupation number:      0.00000000

  Overall HOMO-LUMO gap:      5.87857119 eV.
  Calculating total energy contributions from superposition of free atom densities.

  Total energy components:
  | Sum of eigenvalues            :        -437.84810603 Ha      -11914.45316585 eV
  | XC energy correction          :         -98.81318418 Ha       -2688.84354834 eV
  | XC potential correction       :         127.01221979 Ha        3456.17834878 eV
  | Free-atom electrostatic energy:        -333.63333628 Ha       -9078.62499547 eV
  | Hartree energy correction     :           0.00000000 Ha           0.00000000 eV
  | MBD@rsSCS energy              :           0.00000000 Ha           0.00000000 eV
  | Entropy correction            :          -0.00000000 Ha          -0.00000000 eV
  | ---------------------------
  | Total energy                  :        -743.28240670 Ha      -20225.74336088 eV
  | Total energy, T -> 0          :        -743.28240670 Ha      -20225.74336088 eV  <-- do not rely on this value for anything but (periodic) metals
  | Electronic free energy        :        -743.28240670 Ha      -20225.74336088 eV

  Derived energy quantities:
  | Kinetic energy                :         735.14658305 Ha       20004.35633516 eV
  | Electrostatic energy          :       -1379.61580557 Ha      -37541.25614770 eV
  | Energy correction for multipole
  | error in Hartree potential    :           0.00000000 Ha           0.00000000 eV
  | Sum of eigenvalues per atom                           :        -372.32666143 eV
  | Total energy (T->0) per atom                          :        -632.05448003 eV  <-- do not rely on this value for anything but (periodic) metals
  | Electronic free energy per atom                       :        -632.05448003 eV
  Initialize hartree_potential_storage
  Max. number of atoms included in rho_multipole:           32

  End scf initialization - timings             :  max(cpu_time)    wall_clock(cpu1)
  | Time for scf. initialization               :        1.884 s           1.882 s
  | Boundary condition initialization          :        0.004 s           0.000 s
  | Integration                                :        1.200 s           1.194 s
  | Solution of K.-S. eqns.                    :        0.076 s           0.075 s
  | Grid partitioning                          :        0.264 s           0.260 s
  | Preloading free-atom quantities on grid    :        0.028 s           0.028 s
  | Free-atom superposition energy             :        0.040 s           0.039 s
  | Total energy evaluation                    :        0.000 s           0.000 s
------------------------------------------------------------

------------------------------------------------------------
          Begin self-consistency iteration #    1

  Date     :  20170309, Time     :  190813.308
------------------------------------------------------------
  Evaluating new KS density.
  Integration grid: deviation in total charge (<rho> - N_e) =   5.684342E-14
  Pulay mixing of updated and previous charge densities.

  Evaluating partitioned Hartree potential by multipole expansion.
  | Analytical far-field extrapolation by fixed multipoles:
  | Hartree multipole sum: apparent total charge =   0.216762E-04
  Summing up the Hartree potential.
  Time summed over all CPUs for potential: real work        9.545 s, elapsed        9.750 s
  | RMS charge density error from multipole expansion :   0.105880E-01

  Integrating Hamiltonian matrix: batch-based integration.
  Time summed over all CPUs for integration: real work       22.354 s, elapsed       22.963 s

  Updating Kohn-Sham eigenvalues, eigenvectors, occupation numbers, and Fermi level.
  Solving generalized eigenproblem
  Solving real symmetric generalised eigenvalue problem by standard ScaLAPACK.
  Using Cholesky factor for transformation
  Using 2-stage real ELPA solver
  K-Point:    1, Trafo times: 1-stage=     0.021 s, 2-stage=     0.019 s ==> Using 2-stage solver
  Determining occupation numbers for Kohn-Sham eigenstates.
  | Chemical potential (Fermi level) in eV                 : -.40843078E+01
  | Error in electron count due to remaining E_F inaccuracy: 0.00000000E+00
  | Maximum occupation number of highest empty state:  0.00E+00

  Writing Kohn-Sham eigenvalues.

  State    Occupation    Eigenvalue [Ha]    Eigenvalue [eV]
      1       2.00000         -18.622282         -506.73807
      2       2.00000         -18.617355         -506.60402
      3       2.00000         -18.601897         -506.18336
      4       2.00000         -14.006046         -381.12389
      5       2.00000         -14.003362         -381.05086
      6       2.00000         -13.980738         -380.43524
      7       2.00000         -10.063658         -273.84606
      8       2.00000         -10.062021         -273.80152
      9       2.00000         -10.042493         -273.27015
     10       2.00000          -9.980473         -271.58250
     11       2.00000          -9.958583         -270.98683
     12       2.00000          -9.899501         -269.37912
     13       2.00000          -9.851654         -268.07716
     14       2.00000          -9.846074         -267.92531
     15       2.00000          -9.835550         -267.63893
     16       2.00000          -0.973332          -26.48572
     17       2.00000          -0.964137          -26.23550
     18       2.00000          -0.950255          -25.85775
     19       2.00000          -0.882483          -24.01358
     20       2.00000          -0.868248          -23.62623
     21       2.00000          -0.850368          -23.13970
     22       2.00000          -0.744938          -20.27079
     23       2.00000          -0.723127          -19.67729
     24       2.00000          -0.703183          -19.13459
     25       2.00000          -0.676303          -18.40315
     26       2.00000          -0.639855          -17.41133
     27       2.00000          -0.621657          -16.91614
     28       2.00000          -0.583079          -15.86639
     29       2.00000          -0.558622          -15.20088
     30       2.00000          -0.554044          -15.07629
     31       2.00000          -0.511700          -13.92406
     32       2.00000          -0.498303          -13.55953
     33       2.00000          -0.477441          -12.99184
     34       2.00000          -0.467074          -12.70974
     35       2.00000          -0.447118          -12.16670
     36       2.00000          -0.441160          -12.00458
     37       2.00000          -0.435907          -11.86165
     38       2.00000          -0.433484          -11.79569
     39       2.00000          -0.410120          -11.15994
     40       2.00000          -0.403099          -10.96889
     41       2.00000          -0.395798          -10.77021
     42       2.00000          -0.394674          -10.73963
     43       2.00000          -0.388276          -10.56552
     44       2.00000          -0.382367          -10.40474
     45       2.00000          -0.377217          -10.26460
     46       2.00000          -0.370912          -10.09303
     47       2.00000          -0.362276           -9.85802
     48       2.00000          -0.357931           -9.73979
     49       2.00000          -0.352913           -9.60324
     50       2.00000          -0.347072           -9.44430
     51       2.00000          -0.337639           -9.18762
     52       2.00000          -0.331455           -9.01934
     53       2.00000          -0.251953           -6.85600
     54       2.00000          -0.249669           -6.79385
     55       2.00000          -0.222044           -6.04212
     56       2.00000          -0.217728           -5.92468
     57       2.00000          -0.212096           -5.77144
     58       2.00000          -0.201743           -5.48970
     59       0.00000          -0.062779           -1.70830
     60       0.00000          -0.055190           -1.50180
     61       0.00000          -0.042366           -1.15284
     62       0.00000          -0.040120           -1.09172
     63       0.00000          -0.022267           -0.60592
     64       0.00000          -0.019553           -0.53208
     65       0.00000          -0.013683           -0.37233
     66       0.00000           0.003599            0.09793
     67       0.00000           0.004526            0.12316
     68       0.00000           0.009462            0.25749
     69       0.00000           0.018906            0.51445
     70       0.00000           0.023830            0.64845
     71       0.00000           0.030428            0.82799
     72       0.00000           0.039844            1.08422
     73       0.00000           0.040559            1.10368
     74       0.00000           0.051688            1.40651
     75       0.00000           0.058702            1.59735
     76       0.00000           0.062481            1.70019
     77       0.00000           0.068864            1.87388
     78       0.00000           0.072658            1.97713
     79       0.00000           0.076574            2.08369
     80       0.00000           0.080258            2.18394
     81       0.00000           0.086741            2.36035
     82       0.00000           0.088119            2.39785
     83       0.00000           0.098801            2.68851
     84       0.00000           0.100710            2.74045
     85       0.00000           0.105973            2.88367
     86       0.00000           0.113281            3.08254
     87       0.00000           0.121126            3.29601
     88       0.00000           0.125671            3.41969
     89       0.00000           0.132352            3.60149
     90       0.00000           0.139351            3.79194
     91       0.00000           0.141515            3.85082
     92       0.00000           0.143333            3.90028
     93       0.00000           0.151563            4.12424
     94       0.00000           0.154713            4.20996
     95       0.00000           0.157286            4.27996
     96       0.00000           0.166672            4.53538
     97       0.00000           0.169698            4.61772
     98       0.00000           0.171937            4.67863
     99       0.00000           0.180086            4.90039
    100       0.00000           0.186141            5.06514
    101       0.00000           0.188558            5.13093
    102       0.00000           0.192646            5.24218
    103       0.00000           0.195010            5.30650
    104       0.00000           0.200639            5.45966
    105       0.00000           0.206406            5.61658
    106       0.00000           0.208624            5.67696
    107       0.00000           0.213346            5.80544
    108       0.00000           0.221730            6.03358
    109       0.00000           0.223305            6.07645
    110       0.00000           0.229169            6.23600
    111       0.00000           0.238719            6.49588
    112       0.00000           0.244291            6.64750
    113       0.00000           0.245945            6.69251
    114       0.00000           0.251086            6.83240
    115       0.00000           0.256698            6.98510
    116       0.00000           0.258505            7.03429
    117       0.00000           0.263921            7.18165
    118       0.00000           0.268472            7.30548
    119       0.00000           0.273674            7.44704
    120       0.00000           0.276558            7.52554
    121       0.00000           0.281118            7.64961
    122       0.00000           0.287507            7.82347
    123       0.00000           0.288056            7.83839
    124       0.00000           0.296228            8.06078
    125       0.00000           0.303136            8.24876
    126       0.00000           0.308645            8.39866
    127       0.00000           0.319307            8.68879
    128       0.00000           0.322277            8.76961
    129       0.00000           0.333925            9.08656

  Highest occupied state (VBM) at     -5.48969662 eV
  | Occupation number:      2.00000000

  Lowest unoccupied state (CBM) at    -1.70829692 eV
  | Occupation number:      0.00000000

  Overall HOMO-LUMO gap:      3.78139969 eV.

  Total energy components:
  | Sum of eigenvalues            :        -417.88897353 Ha      -11371.33753711 eV
  | XC energy correction          :        -100.74963471 Ha       -2741.53704832 eV
  | XC potential correction       :         129.52346395 Ha        3524.51277933 eV
  | Free-atom electrostatic energy:        -333.63333628 Ha       -9078.62499547 eV
  | Hartree energy correction     :         -19.96284096 Ha        -543.21654115 eV
  | MBD@rsSCS energy              :           0.00000000 Ha           0.00000000 eV
  | Entropy correction            :           0.00000000 Ha           0.00000000 eV
  | ---------------------------
  | Total energy                  :        -742.71132153 Ha      -20210.20334272 eV
  | Total energy, T -> 0          :        -742.71132153 Ha      -20210.20334272 eV  <-- do not rely on this value for anything but (periodic) metals
  | Electronic free energy        :        -742.71132153 Ha      -20210.20334272 eV

  Derived energy quantities:
  | Kinetic energy                :         744.03673487 Ha       20246.26967460 eV
  | Electrostatic energy          :       -1385.99842169 Ha      -37714.93596901 eV
  | Energy correction for multipole
  | error in Hartree potential    :          -0.04115059 Ha          -1.11976464 eV
  | Sum of eigenvalues per atom                           :        -355.35429803 eV
  | Total energy (T->0) per atom                          :        -631.56885446 eV  <-- do not rely on this value for anything but (periodic) metals
  | Electronic free energy per atom                       :        -631.56885446 eV

  Self-consistency convergence accuracy:
  | Change of charge density      :  0.9040E+00
  | Change of sum of eigenvalues  :  0.5431E+03 eV
  | Change of total energy        :  0.1554E+02 eV

  End self-consistency iteration #     1       :  max(cpu_time)    wall_clock(cpu1)
  | Time for this iteration                    :        1.568 s           1.565 s
[...]
   Multipole                     :  0.213873E+00  0.240451E+00  0.448428E+00
   Pulay + GGA                   :  0.523117E+01  0.568577E+01  0.105711E+02
   MBD@rsSCS                     :  0.150829E-01  0.973809E-02  0.101667E-01
   ----------------------------------------------------------------
   Total forces(  20)            :  0.173284E-01 -0.202146E-02  0.321208E-02
  atom #   21
   Hellmann-Feynman              : -0.166978E-01  0.200231E-01 -0.296017E-01
   Ionic forces                  :  0.000000E+00  0.000000E+00  0.000000E+00
   Multipole                     : -0.103544E-01 -0.325427E-01 -0.286480E-02
   Pulay + GGA                   :  0.372590E-01  0.262473E-02  0.345509E-01
   MBD@rsSCS                     :  0.135440E-02 -0.579943E-03  0.170982E-02
   ----------------------------------------------------------------
   Total forces(  21)            :  0.115611E-01 -0.104748E-01  0.379426E-02
  atom #   22
   Hellmann-Feynman              : -0.271829E-01 -0.213957E-01  0.532698E-01
   Ionic forces                  :  0.000000E+00  0.000000E+00  0.000000E+00
   Multipole                     :  0.198517E-02  0.170368E-02  0.733581E-02
   Pulay + GGA                   :  0.260185E-01  0.166888E-01 -0.610270E-01
   MBD@rsSCS                     :  0.871650E-03  0.500218E-02  0.373058E-02
   ----------------------------------------------------------------
   Total forces(  22)            :  0.169246E-02  0.199900E-02  0.330925E-02
  atom #   23
   Hellmann-Feynman              :  0.701721E+00 -0.843774E+00 -0.579240E-01
   Ionic forces                  :  0.000000E+00  0.000000E+00  0.000000E+00
   Multipole                     : -0.181919E+00  0.212888E+00 -0.107767E+00
   Pulay + GGA                   : -0.521084E+00  0.616924E+00  0.156085E+00
   MBD@rsSCS                     : -0.103237E-01  0.125006E-01  0.783334E-02
   ----------------------------------------------------------------
   Total forces(  23)            : -0.116057E-01 -0.146036E-02 -0.177251E-02
  atom #   24
   Hellmann-Feynman              : -0.500181E-01  0.400090E-02 -0.136882E-01
   Ionic forces                  :  0.000000E+00  0.000000E+00  0.000000E+00
   Multipole                     : -0.802409E-02 -0.258410E-01  0.192370E-01
   Pulay + GGA                   :  0.547105E-01  0.252038E-01 -0.515642E-02
   MBD@rsSCS                     : -0.535271E-02  0.120263E-01  0.108498E-02
   ----------------------------------------------------------------
   Total forces(  24)            : -0.868440E-02  0.153901E-01  0.147734E-02
  atom #   25
   Hellmann-Feynman              : -0.390844E-01  0.582746E-01 -0.313849E-02
   Ionic forces                  :  0.000000E+00  0.000000E+00  0.000000E+00
   Multipole                     :  0.304436E-01 -0.209832E-02  0.232929E-01
   Pulay + GGA                   :  0.367717E-02 -0.557691E-01 -0.252979E-01
   MBD@rsSCS                     : -0.836669E-02  0.661714E-02  0.266861E-03
   ----------------------------------------------------------------
   Total forces(  25)            : -0.133303E-01  0.702434E-02 -0.487670E-02
  atom #   26
   Hellmann-Feynman              : -0.126387E-01  0.155438E-02 -0.427166E-01
   Ionic forces                  :  0.000000E+00  0.000000E+00  0.000000E+00
   Multipole                     :  0.113249E-01  0.260139E-02 -0.242330E-01
   Pulay + GGA                   :  0.143426E-02  0.382336E-02  0.662176E-01
   MBD@rsSCS                     : -0.123316E-01  0.114216E-01  0.552434E-02
   ----------------------------------------------------------------
   Total forces(  26)            : -0.122111E-01  0.194008E-01  0.479229E-02
  atom #   27
   Hellmann-Feynman              : -0.475049E+00 -0.743682E+00 -0.136113E+01
   Ionic forces                  :  0.000000E+00  0.000000E+00  0.000000E+00
   Multipole                     :  0.840799E-02 -0.757161E-01 -0.127161E+00
   Pulay + GGA                   :  0.459791E+00  0.812976E+00  0.149371E+01
   MBD@rsSCS                     :  0.221051E-01  0.118674E-01 -0.104289E-01
   ----------------------------------------------------------------
   Total forces(  27)            :  0.152549E-01  0.544609E-02 -0.500975E-02
  atom #   28
   Hellmann-Feynman              :  0.424635E+00  0.698666E+00  0.200675E+01
   Ionic forces                  :  0.000000E+00  0.000000E+00  0.000000E+00
   Multipole                     : -0.359270E-01 -0.825756E-01 -0.106522E+00
   Pulay + GGA                   : -0.392569E+00 -0.619430E+00 -0.189543E+01
   MBD@rsSCS                     :  0.128937E-01  0.689016E-02 -0.199172E-01
   ----------------------------------------------------------------
   Total forces(  28)            :  0.903219E-02  0.355103E-02 -0.151225E-01
  atom #   29
   Hellmann-Feynman              :  0.484725E-01  0.104457E-01 -0.531272E-01
   Ionic forces                  :  0.000000E+00  0.000000E+00  0.000000E+00
   Multipole                     :  0.492422E-02  0.120095E-01  0.427718E-01
   Pulay + GGA                   : -0.615341E-01 -0.261374E-01  0.136420E-01
   MBD@rsSCS                     :  0.670729E-02  0.388495E-02  0.112376E-02
   ----------------------------------------------------------------
   Total forces(  29)            : -0.143004E-02  0.202707E-03  0.441032E-02
  atom #   30
   Hellmann-Feynman              :  0.607065E-02 -0.774909E-02 -0.573785E-01
   Ionic forces                  :  0.000000E+00  0.000000E+00  0.000000E+00
   Multipole                     :  0.253347E-01  0.303527E-01  0.136858E-01
   Pulay + GGA                   : -0.367609E-01 -0.240742E-01  0.476201E-01
   MBD@rsSCS                     :  0.131252E-02 -0.182962E-03 -0.666888E-02
   ----------------------------------------------------------------
   Total forces(  30)            : -0.404299E-02 -0.165356E-02 -0.274148E-02
  atom #   31
   Hellmann-Feynman              : -0.245727E-01 -0.508384E-01 -0.431725E-01
   Ionic forces                  :  0.000000E+00  0.000000E+00  0.000000E+00
   Multipole                     :  0.123885E-01 -0.235574E-01  0.692993E-02
   Pulay + GGA                   :  0.881182E-02  0.696477E-01  0.357792E-01
   MBD@rsSCS                     :  0.101912E-01  0.105596E-01 -0.145321E-01
   ----------------------------------------------------------------
   Total forces(  31)            :  0.681880E-02  0.581153E-02 -0.149955E-01
  atom #   32
   Hellmann-Feynman              : -0.449122E-01 -0.150302E-01 -0.387832E-01
   Ionic forces                  :  0.000000E+00  0.000000E+00  0.000000E+00
   Multipole                     : -0.160039E-01  0.252896E-01  0.247779E-02
   Pulay + GGA                   :  0.654651E-01 -0.116451E-01  0.218399E-01
   MBD@rsSCS                     :  0.119825E-01  0.245738E-02 -0.164524E-01
   ----------------------------------------------------------------
   Total forces(  32)            :  0.165315E-01  0.107172E-02 -0.309179E-01

  Removing unitary transformations (pure translations, rotations) from forces on atoms.
  Atomic forces before filtering:
  | Net force on center of mass :   0.246427E-03  0.398645E-03  0.258459E-04 eV/A
  | Net torque on center of mass:  -0.893351E-03  0.169967E-02  0.110487E-02 eV
  Atomic forces after filtering:
  | Net force on center of mass :   0.557519E-17  0.313605E-17 -0.557519E-17 eV/A
  | Net torque on center of mass:   0.195455E-16 -0.118011E-16 -0.708063E-16 eV

  Energy and forces in a compact form:
  | Total energy uncorrected      :         -0.202087977983769E+05 eV
  | Total energy corrected        :         -0.202087977983769E+05 eV  <-- do not rely on this value for anything but (periodic) metals
  | Electronic free energy        :         -0.202087977983769E+05 eV
  Total atomic forces (unitary forces cleaned) [eV/Ang]:
  |   1         -0.342158842021435E-01          0.756635557668431E-02          0.124294089762807E-01
  |   2         -0.317217003476651E-01         -0.789881273643320E-02          0.121697231443678E-02
  |   3         -0.178188178206109E-02          0.273735136366221E-02         -0.128864788704411E-01
  |   4         -0.257758225877054E-01          0.549693024489426E-02          0.229923732725871E-01
  |   5          0.636607430410150E-02          0.844597616622401E-03          0.375095071720783E-02
  |   6         -0.991407844746885E-03          0.208995602579643E-02          0.595348562164051E-02
  |   7         -0.248458493848751E-02          0.699140205305402E-02         -0.262690971999392E-01
  |   8          0.188101268288248E-01         -0.970007305874568E-03         -0.160688683498984E-01
  |   9          0.159832973450141E-01         -0.825386361901383E-02         -0.671018008671584E-02
  |  10          0.947589488796888E-02          0.855289567139432E-03          0.590206753415353E-02
  |  11         -0.269151916018674E-03         -0.762505774974331E-03          0.371851543265077E-02
  |  12         -0.491919130471727E-02          0.920423642648911E-03         -0.799838681570481E-02
  |  13          0.179559028616957E-01         -0.183343080569920E-01         -0.601285837438560E-02
  |  14          0.235540611105104E-01         -0.292560434860538E-01          0.254821491165665E-02
  |  15         -0.477427524726762E-04         -0.681159444721180E-02          0.830264957790861E-02
  |  16         -0.392647272539785E-03         -0.184553996562806E-01          0.295966482628320E-02
  |  17         -0.135026545950638E-01          0.585476827120772E-03          0.273999232092979E-01
  |  18         -0.136024308520279E-01          0.351195378236471E-03          0.157648597620655E-01
  |  19          0.109090371961168E-01          0.181381750526148E-01          0.176396888934935E-01
  |  20          0.173261648464405E-01         -0.202070952038917E-02          0.318069810664187E-02
  |  21          0.115455324590353E-01         -0.104915412418398E-01          0.380033811855093E-02
  |  22          0.169949281160413E-02          0.199203662068615E-02          0.330184140580197E-02
  |  23         -0.116188559778975E-01         -0.147462771413371E-02         -0.177146598176198E-02
  |  24         -0.869312967773411E-02          0.153720896667937E-01          0.148991970978468E-02
  |  25         -0.133409613541102E-01          0.701225188254072E-02         -0.487987720677808E-02
  |  26         -0.122369460580852E-01          0.193842433898352E-01          0.479285627250324E-02
  |  27          0.152318669675293E-01          0.544271272777955E-02         -0.504089896778900E-02
  |  28          0.899776999566664E-02          0.354312829939374E-02         -0.151478605616471E-01
  |  29         -0.145442674615793E-02          0.203371873750253E-03          0.436834553042013E-02
  |  30         -0.408776439143582E-02         -0.166043410213872E-02         -0.277447212617360E-02
  |  31          0.678844990307778E-02          0.580396030087219E-02         -0.150197245997293E-01
  |  32          0.164935130834846E-01          0.105889955121007E-02         -0.309326050524013E-01

  ------------------------------------ 
  Start decomposition of the XC Energy 
  ------------------------------------ 
  Hartree-Fock part   :          0.000000000 Ha              0.000000000 eV
  ------------------------------------ 
  X Energy            :        -96.980893139 Ha          -2638.984372358 eV
  C Energy GGA        :         -3.868028460 Ha           -105.254409675 eV
  Total XC Energy     :       -100.848921599 Ha          -2744.238782033 eV
  LDA X and C from self-consistent density 
  X Energy LDA        :        -87.996161719 Ha          -2394.497391066 eV
  C Energy LDA        :         -7.531547974 Ha           -204.943847812 eV
  ------------------------------------ 
  End decomposition of the XC Energy 
  ------------------------------------ 
   
  ESP charge fitting starts.
  | Calculation :  00000001  of  00000001
  | Full density
  Computing multipole expansion for total density.
  Generating points for esp charges.
  Partitioning the integration grid into batches with parallel hashing+maxmin method.
  | Number of batches:     3885
  | Maximal batch size:     200
  | Minimal batch size:      53
  | Average batch size:     125.204
  | Standard deviation of batch sizes:      17.955

  Integration load balanced across    32 MPI tasks.
  Work distribution over tasks is as follows:
  Initializing partition tables, free-atom densities, potentials, etc. across the integration grid (initialize_grid_storage).
  | Original list of interatomic distances with          32 x         32 entries is created.
  | Net number of integration points:   486419
  | of which are non-zero points    :   486419
  Summing up potential from multipole expanded  density.
  Summing up the Hartree potential.
  Time summed over all CPUs for potential: real work        6.419 s, elapsed        6.704 s
  Fitting esp charges to potential.
  |
  | ESP charges fitted to the electrostatic potential :
  |
  | Atom         1: C, ESP charge:      0.31602720
  |
  | Atom         2: C, ESP charge:     -0.51174221
  |
  | Atom         3: O, ESP charge:      0.52398961
  |
  | Atom         4: H, ESP charge:     -0.01984708
  |
  | Atom         5: H, ESP charge:     -0.10730747
  |
  | Atom         6: H, ESP charge:     -0.12914233
  |
  | Atom         7: N, ESP charge:      0.46117336
  |
  | Atom         8: C, ESP charge:     -0.47880427
  |
  | Atom         9: C, ESP charge:     -0.03542778
  |
  | Atom        10: O, ESP charge:      0.47428682
  |
  | Atom        11: H, ESP charge:     -0.24348597
  |
  | Atom        12: H, ESP charge:      0.01043415
  |
  | Atom        13: C, ESP charge:      0.49556050
  |
  | Atom        14: H, ESP charge:     -0.14405553
  |
  | Atom        15: H, ESP charge:     -0.11036728
  |
  | Atom        16: H, ESP charge:     -0.13712537
  |
  | Atom        17: N, ESP charge:     -0.58063284
  |
  | Atom        18: C, ESP charge:     -0.41145288
  |
  | Atom        19: C, ESP charge:     -0.14896932
  |
  | Atom        20: O, ESP charge:      0.45715727
  |
  | Atom        21: H, ESP charge:      0.11492210
  |
  | Atom        22: H, ESP charge:      0.02114868
  |
  | Atom        23: C, ESP charge:      0.95584373
  |
  | Atom        24: H, ESP charge:     -0.21152958
  |
  | Atom        25: H, ESP charge:     -0.28072782
  |
  | Atom        26: H, ESP charge:     -0.26124373
  |
  | Atom        27: N, ESP charge:      0.29586119
  |
  | Atom        28: C, ESP charge:      0.07445956
  |
  | Atom        29: H, ESP charge:     -0.29459171
  |
  | Atom        30: H, ESP charge:     -0.10284788
  |
  | Atom        31: H, ESP charge:     -0.00469029
  |
  | Atom        32: H, ESP charge:      0.01312716

  RRMS:       0.00326570

  Done.

------------------------------------------------------------------------------
  Final output of selected total energy values:

  The following output summarizes some interesting total energy values
  at the end of a run (AFTER all relaxation, molecular dynamics, etc.).

  | Total energy of the DFT / Hartree-Fock s.c.f. calculation      :         -20208.797798377 eV
  | Final zero-broadening corrected energy (caution - metals only) :         -20208.797798377 eV
  | For reference only, the value of 1 Hartree used in FHI-aims is :             27.211384500 eV

  Before relying on these values, please be sure to understand exactly which
  total energy value is referred to by a given number. Different objects may
  all carry the same name 'total energy'. Definitions:

  Total energy of the DFT / Hartree-Fock s.c.f. calculation:
  | Note that this energy does not include ANY quantities calculated after the
  | s.c.f. cycle, in particular not ANY RPA, MP2, etc. many-body perturbation terms.

  Final zero-broadening corrected energy:
  | For metallic systems only, a broadening of the occupation numbers at the Fermi
  | level can be extrapolated back to zero broadening by an electron-gas inspired
  | formula. For all systems that are not real metals, this value can be
  | meaningless and should be avoided.

------------------------------------------------------------------------------
  Methods described in the following list of references were used in this FHI-aims run.
  If you publish the results, please make sure to cite these reference if they apply.
  FHI-aims is an academic code, and for our developers (often, Ph.D. students
  and postdocs), scientific credit in the community is essential.
  Thank you for helping us!

  For any use of FHI-aims, please cite:

    Volker Blum, Ralf Gehrke, Felix Hanke, Paula Havu, Ville Havu,
    Xinguo Ren, Karsten Reuter, and Matthias Scheffler
    'Ab initio molecular simulations with numeric atom-centered orbitals'
    Computer Physics Communications 180, 2175-2196 (2009)
    http://dx.doi.org/10.1016/j.cpc.2009.06.022


  The scalable eigensolver library ELPA was used in your run.
  ELPA is essential especially for large systems on hundreds or thousands of CPUs.
  For ELPA, please cite:

    Andreas Marek, Volker Blum, Rainer Johanni, Ville Havu, Bruno Lang,
    Thomas Auckenthaler, Alexander Heinecke, Hans-Joachim Bungartz, and Hermann Lederer,
    'The ELPA Library - Scalable Parallel Eigenvalue Solutions
    for Electronic Structure Theory and Computational Science'
    The Journal of Physics: Condensed Matter 26, 213201 (2014).
    http://dx.doi.org/10.1088/0953-8984/26/21/213201


  For ELPA's efficient two-stage tridiagonalization used in your run, please cite:

    T. Auckenthaler, V. Blum, H.-J. Bungartz, T. Huckle, R. Johanni, L. Kraemer,
    B. Lang, H. Lederer, and P. R. Willems,
    'Parallel solution of partial symmetric eigenvalue problems'
    'from  electronic structure calculations'
    Parallel Computing 37, 783-794 (2011).
    http://dx.doi.org/10.1016/j.parco.2011.05.002


  For the real-space grid partitioning and parallelization used in this calculation, please cite:

    Ville Havu, Volker Blum, Paula Havu, and Matthias Scheffler,
    'Efficient O(N) integration for all-electron electronic structure calculation'
    'using numerically tabulated basis functions'
    Journal of Computational Physics 228, 8367-8379 (2009).
    http://dx.doi.org/10.1016/j.jcp.2009.08.008

  Of course, there are many other important community references, e.g., those cited in the
  above references. Our list is limited to references that describe implementations in the
  FHI-aims code. The reason is purely practical (length of this list) - please credit others as well.

------------------------------------------------------------
          Leaving FHI-aims.
          Date     :  20170309, Time     :  190844.259

          Computational steps:
          | Number of self-consistency cycles          :           14

          Detailed time accounting                     :  max(cpu_time)    wall_clock(cpu1)
          | Total time                                 :       33.706 s          33.891 s
          | Preparation time                           :        0.236 s           0.235 s
          | Grid partitioning                          :        0.264 s           0.260 s
          | Preloading free-atom quantities on grid    :        0.028 s           0.028 s
          | Free-atom superposition energy             :        0.040 s           0.039 s
          | Total time for integrations                :       11.445 s          11.426 s
          | Total time for solution of K.-S. equations :        0.528 s           0.497 s
          | Total time for density & force components  :        9.793 s           9.764 s
          | Total time for mixing                      :        0.136 s           0.108 s
          | Total time for Hartree multipole update    :        0.064 s           0.058 s
          | Total time for Hartree multipole sum       :        6.304 s           6.273 s
          | Total time for total energy evaluation     :        0.012 s           0.018 s

          Have a nice day.
------------------------------------------------------------
