  MPI-parallelism will be employed.
------------------------------------------------------------
          Invoking FHI-aims ...
          Version 150427
          Git rev.: 9dd23e0 BL: Update Version stamp
          Compiled on 2015/11/03 at 22:05:20 on host eos03.

          When using FHI-aims, please cite the following reference:

          Volker Blum, Ralf Gehrke, Felix Hanke, Paula Havu,
          Ville Havu, Xinguo Ren, Karsten Reuter, and Matthias Scheffler,
          'Ab Initio Molecular Simulations with Numeric Atom-Centered Orbitals: FHI-aims',
          Computer Physics Communications 180, 2175-2196 (2009)

          For any questions about FHI-aims, please visit the aimsclub website
          with its forums and wiki. Contributions to both the forums and the
          wiki are warmly encouraged - they are for you, and everyone is welcome there.

------------------------------------------------------------

  Date     :  20170309, Time     :  181340.213
  Time zero on CPU 1             :   0.304018000000000E+00  s.
  Internal wall clock time zero  :           258315220.213  s.

  Using       32 parallel tasks.
  Task        0 on host eos195 reporting.
  Task        1 on host eos195 reporting.
  Task        2 on host eos195 reporting.
  Task        3 on host eos195 reporting.
  Task        4 on host eos195 reporting.
  Task        5 on host eos195 reporting.
  Task        6 on host eos195 reporting.
  Task        7 on host eos195 reporting.
  Task        8 on host eos195 reporting.
  Task        9 on host eos195 reporting.
  Task       10 on host eos195 reporting.
  Task       11 on host eos195 reporting.
  Task       12 on host eos195 reporting.
  Task       13 on host eos195 reporting.
  Task       14 on host eos195 reporting.
  Task       15 on host eos195 reporting.
  Task       16 on host eos195 reporting.
  Task       17 on host eos195 reporting.
  Task       18 on host eos195 reporting.
  Task       19 on host eos195 reporting.
  Task       20 on host eos195 reporting.
  Task       21 on host eos195 reporting.
  Task       22 on host eos195 reporting.
  Task       23 on host eos195 reporting.
  Task       24 on host eos195 reporting.
  Task       25 on host eos195 reporting.
  Task       26 on host eos195 reporting.
  Task       27 on host eos195 reporting.
  Task       28 on host eos195 reporting.
  Task       29 on host eos195 reporting.
  Task       30 on host eos195 reporting.
  Task       31 on host eos195 reporting.

  Performing system and environment tests:
  | Environment variable OMP_NUM_THREADS correctly set to 1.
  | Stacksize not measured: no C compiler
  | Checking for scalapack...
  | Testing pdtran()...
  | All pdtran() tests passed.

  Obtaining array dimensions for all initial allocations:
  
  -----------------------------------------------------------------------
  Parsing control.in (first pass over file, find array dimensions only).
  The contents of control.in will be repeated verbatim below
  unless switched off by setting 'verbatim_writeout .false.' .
  in the first line of control.in .
  -----------------------------------------------------------------------
  
  #########################################################################################
  #
  # Input for System
  #
  #########################################################################################
  #
  #
  #  Physical model
  #
    xc                 pbe
    many_body_dispersion
    spin               none
    charge             0.
  #
  #  SCF convergence
  #
    occupation_type    gaussian 0.05
    mixer              pulay
      n_max_pulay        10
      charge_mix_param   0.5
    sc_accuracy_rho    1E-4
    sc_accuracy_eev    1E-2
    sc_accuracy_etot   1E-5
    sc_accuracy_forces 1E-4
    sc_iter_limit      1000
  #
  #  ESP charge
  #
    output esp
    esp equal_grid_n 80 80 80
  #
  #
  ################################################################################
  #
  #  FHI-aims code project
  # Volker Blum, Fritz Haber Institute Berlin, 2009
  #
  #  Suggested "tight" defaults for H atom (to be pasted into control.in file)
  #
  ################################################################################
    species        H
  #     global species definitions
      nucleus             1
      mass                1.00794
  #
      l_hartree           6
  #
      cut_pot             4.0  2.0  1.0
      basis_dep_cutoff    1e-4
  #
      radial_base         24 7.0
      radial_multiplier   2
      angular_grids       specified
        division   0.1930   50
        division   0.3175  110
        division   0.4293  194
        division   0.5066  302
        division   0.5626  434
  #      division   0.5922  590
  #      division   0.6227  974
  #      division   0.6868 1202
  #      outer_grid  770
        outer_grid  434
  ################################################################################
  #
  #  Definition of "minimal" basis
  #
  ################################################################################
  #     valence basis states
      valence      1  s   1.
  #     ion occupancy
      ion_occ      1  s   0.5
  ################################################################################
  #
  #  Suggested additional basis functions. For production calculations,
  #  uncomment them one after another (the most important basis functions are
  #  listed first).
  #
  #  Basis constructed for dimers: 0.5 A, 0.7 A, 1.0 A, 1.5 A, 2.5 A
  #
  ################################################################################
  #  "First tier" - improvements: -1014.90 meV to -62.69 meV
       hydro 2 s 2.1
       hydro 2 p 3.5
  #  "Second tier" - improvements: -12.89 meV to -1.83 meV
       hydro 1 s 0.85
       hydro 2 p 3.7
       hydro 2 s 1.2
       hydro 3 d 7
  #  "Third tier" - improvements: -0.25 meV to -0.12 meV
  #     hydro 4 f 11.2
  #     hydro 3 p 4.8
  #     hydro 4 d 9
  #     hydro 3 s 3.2
  ################################################################################
  #
  # For methods that use the localized form of the "resolution of identity" for
  # the two-electron Coulomb operator (RI_method LVL), particularly Hartree-Fock and
  # hybrid density functional calculations, the highest accuracy can be obtained by
  # uncommenting the line beginning with "for_aux"  below, thus adding an extra g radial
  # function to the construction of the product basis set for the expansion.
  # See Ref. New J. Phys. 17, 093020 (2015) for more information, particularly Figs. 1 and 6.
  #
  ################################################################################
  #
  # for_aux hydro 5 g 6.0
  ################################################################################
  #
  #  FHI-aims code project
  # Volker Blum, Fritz Haber Institute Berlin, 2009
  #
  #  Suggested "tight" defaults for C atom (to be pasted into control.in file)
  #
  ################################################################################
    species        C
  #     global species definitions
      nucleus             6
      mass                12.0107
  #
      l_hartree           6
  #
      cut_pot             4.0  2.0  1.0
      basis_dep_cutoff    1e-4
  #
      radial_base         34 7.0
      radial_multiplier   2
      angular_grids specified
        division   0.2187   50
        division   0.4416  110
        division   0.6335  194
        division   0.7727  302
        division   0.8772  434
  #      division   0.9334  590
  #      division   0.9924  770
  #      division   1.0230  974
  #      division   1.5020 1202
  #     outer_grid  974
        outer_grid  434
  ################################################################################
  #
  #  Definition of "minimal" basis
  #
  ################################################################################
  #     valence basis states
      valence      2  s   2.
      valence      2  p   2.
  #     ion occupancy
      ion_occ      2  s   1.
      ion_occ      2  p   1.
  ################################################################################
  #
  #  Suggested additional basis functions. For production calculations,
  #  uncomment them one after another (the most important basis functions are
  #  listed first).
  #
  #  Constructed for dimers: 1.0 A, 1.25 A, 1.5 A, 2.0 A, 3.0 A
  #
  ################################################################################
  #  "First tier" - improvements: -1214.57 meV to -155.61 meV
       hydro 2 p 1.7
       hydro 3 d 6
       hydro 2 s 4.9
  #  "Second tier" - improvements: -67.75 meV to -5.23 meV
       hydro 4 f 9.8
       hydro 3 p 5.2
       hydro 3 s 4.3
       hydro 5 g 14.4
       hydro 3 d 6.2
  #  "Third tier" - improvements: -2.43 meV to -0.60 meV
  #     hydro 2 p 5.6
  #     hydro 2 s 1.4
  #     hydro 3 d 4.9
  #     hydro 4 f 11.2
  #  "Fourth tier" - improvements: -0.39 meV to -0.18 meV
  #     hydro 2 p 2.1
  #     hydro 5 g 16.4
  #     hydro 4 d 13.2
  #     hydro 3 s 13.6
  #     hydro 4 f 17.6
  #  Further basis functions - improvements: -0.08 meV and below
  #     hydro 3 s 2
  #     hydro 3 p 6
  #     hydro 4 d 20
  ################################################################################
  #
  # For methods that use the localized form of the "resolution of identity" for
  # the two-electron Coulomb operator (RI_method LVL), particularly Hartree-Fock and
  # hybrid density functional calculations, the highest accuracy can be obtained by
  # uncommenting the line beginning with "for_aux"  below, thus adding an extra g radial
  # function to the construction of the product basis set for the expansion.
  # See Ref. New J. Phys. 17, 093020 (2015) for more information, particularly Figs. 1 and 6.
  #
  ################################################################################
  #
  # for_aux hydro 5 g 6.0
  ################################################################################
  #
  #  FHI-aims code project
  # Volker Blum, Fritz Haber Institute Berlin, 2009
  #
  #  Suggested "tight" defaults for N atom (to be pasted into control.in file)
  #
  ################################################################################
    species        N
  #     global species definitions
      nucleus             7
      mass                14.0067
  #
      l_hartree           6
  #
      cut_pot             4.0  2.0  1.0
      basis_dep_cutoff    1e-4
  #
      radial_base         35 7.0
      radial_multiplier   2
      angular_grids       specified
        division   0.1841   50
        division   0.3514  110
        division   0.5126  194
        division   0.6292  302
        division   0.6939  434
  #      division   0.7396  590
  #      division   0.7632  770
  #      division   0.8122  974
  #      division   1.1604 1202
  #      outer_grid  974
        outer_grid  434
  ################################################################################
  #
  #  Definition of "minimal" basis
  #
  ################################################################################
  #     valence basis states
      valence      2  s   2.
      valence      2  p   3.
  #     ion occupancy
      ion_occ      2  s   1.
      ion_occ      2  p   2.
  ################################################################################
  #
  #  Suggested additional basis functions. For production calculations,
  #  uncomment them one after another (the most important basis functions are
  #  listed first).
  #
  #  Constructed for dimers: 1.0 A, 1.1 A, 1.5 A, 2.0 A, 3.0 A
  #
  ################################################################################
  #  "First tier" - improvements: -1193.42 meV to -220.60 meV
       hydro 2 p 1.8
       hydro 3 d 6.8
       hydro 3 s 5.8
  #  "Second tier" - improvements: -80.21 meV to -6.86 meV
       hydro 4 f 10.8
       hydro 3 p 5.8
       hydro 1 s 0.8
       hydro 5 g 16
       hydro 3 d 4.9
  #  "Third tier" - improvements: -4.29 meV to -0.53 meV
  #     hydro 3 s 16
  #     ionic 2 p auto
  #     hydro 3 d 6.6
  #     hydro 4 f 11.6
  #  "Fourth tier" - improvements: -0.75 meV to -0.25 meV
  #     hydro 2 p 4.5
  #     hydro 2 s 2.4
  #     hydro 5 g 14.4
  #     hydro 4 d 14.4
  #     hydro 4 f 16.8
  # Further basis functions - -0.21 meV and below
  #     hydro 3 p 14.8
  #     hydro 3 s 4.4
  #     hydro 3 d 19.6
  #     hydro 5 g 12.8
  ################################################################################
  #
  # For methods that use the localized form of the "resolution of identity" for
  # the two-electron Coulomb operator (RI_method LVL), particularly Hartree-Fock and
  # hybrid density functional calculations, the highest accuracy can be obtained by
  # uncommenting the line beginning with "for_aux"  below, thus adding an extra g radial
  # function to the construction of the product basis set for the expansion.
  # See Ref. New J. Phys. 17, 093020 (2015) for more information, particularly Figs. 1 and 6.
  #
  ################################################################################
  #
  # for_aux hydro 5 g 6.0
  ################################################################################
  #
  #  FHI-aims code project
  # Volker Blum, Fritz Haber Institute Berlin, 2009
  #
  #  Suggested "tight" defaults for O atom (to be pasted into control.in file)
  #
  ################################################################################
    species        O
  #     global species definitions
      nucleus             8
      mass                15.9994
  #
      l_hartree           6
  #
      cut_pot             4.0  2.0  1.0
      basis_dep_cutoff    1e-4
  #
      radial_base         36 7.0
      radial_multiplier   2
       angular_grids specified
        division   0.1817   50
        division   0.3417  110
        division   0.4949  194
        division   0.6251  302
        division   0.8014  434
  #      division   0.8507  590
  #      division   0.8762  770
  #      division   0.9023  974
  #      division   1.2339 1202
  #      outer_grid 974
        outer_grid  434
  ################################################################################
  #
  #  Definition of "minimal" basis
  #
  ################################################################################
  #     valence basis states
      valence      2  s   2.
      valence      2  p   4.
  #     ion occupancy
      ion_occ      2  s   1.
      ion_occ      2  p   3.
  ################################################################################
  #
  #  Suggested additional basis functions. For production calculations,
  #  uncomment them one after another (the most important basis functions are
  #  listed first).
  #
  #  Constructed for dimers: 1.0 A, 1.208 A, 1.5 A, 2.0 A, 3.0 A
  #
  ################################################################################
  #  "First tier" - improvements: -699.05 meV to -159.38 meV
       hydro 2 p 1.8
       hydro 3 d 7.6
       hydro 3 s 6.4
  #  "Second tier" - improvements: -49.91 meV to -5.39 meV
       hydro 4 f 11.6
       hydro 3 p 6.2
       hydro 3 d 5.6
       hydro 5 g 17.6
       hydro 1 s 0.75
  #  "Third tier" - improvements: -2.83 meV to -0.50 meV
  #     ionic 2 p auto
  #     hydro 4 f 10.8
  #     hydro 4 d 4.7
  #     hydro 2 s 6.8
  #  "Fourth tier" - improvements: -0.40 meV to -0.12 meV
  #     hydro 3 p 5
  #     hydro 3 s 3.3
  #     hydro 5 g 15.6
  #     hydro 4 f 17.6
  #     hydro 4 d 14
  # Further basis functions - -0.08 meV and below
  #     hydro 3 s 2.1
  #     hydro 4 d 11.6
  #     hydro 3 p 16
  #     hydro 2 s 17.2
  ################################################################################
  #
  # For methods that use the localized form of the "resolution of identity" for
  # the two-electron Coulomb operator (RI_method LVL), particularly Hartree-Fock and
  # hybrid density functional calculations, the highest accuracy can be obtained by
  # uncommenting the line beginning with "for_aux"  below, thus adding an extra g radial
  # function to the construction of the product basis set for the expansion.
  # See Ref. New J. Phys. 17, 093020 (2015) for more information, particularly Figs. 1 and 6.
  #
  ################################################################################
  #
  # for_aux hydro 5 g 6.0
  
  -----------------------------------------------------------------------
  Completed first pass over input file control.in .
  -----------------------------------------------------------------------
  
  
  -----------------------------------------------------------------------
  Parsing geometry.in (first pass over file, find array dimensions only).
  The contents of geometry.in will be repeated verbatim below
  unless switched off by setting 'verbatim_writeout .false.' .
  in the first line of geometry.in .
  -----------------------------------------------------------------------
  
  #
  # This is the geometry file that corresponds to the current relaxation step.
  # If you do not want this file to be written, set the "write_restart_geometry" flag to .false.
  #
  atom      -0.18925473     -0.42466055     -0.08430268 C
  atom       0.11520287      0.10485467      1.30549619 C
  atom       1.24795476      0.42158458      1.65446509 O
  atom      -1.10981888     -0.01515024     -0.52176799 H
  atom      -0.31406204     -1.51703780     -0.04596411 H
  atom       0.66360015     -0.19896291     -0.73026307 H
  atom      -0.94555405      0.20331868      2.18184768 N
  atom      -2.34116223     -0.13569469      1.93477281 C
  atom      -3.11740589      0.91726020      1.10605730 C
  atom      -4.16718977      0.61617622      0.54767956 O
  atom      -0.67154163      0.46159366      3.12671630 H
  atom      -2.40231693     -1.06208076      1.34493643 H
  atom      -3.06850130     -0.36066383      3.26380913 C
  atom      -4.12132404     -0.59656715      3.07442073 H
  atom      -3.02792285      0.54177210      3.89137758 H
  atom      -2.61443943     -1.19339613      3.81615313 H
  atom      -2.55474762      2.16150472      1.06637189 N
  atom      -3.21989292      3.31544577      0.47546159 C
  atom      -2.48500350      3.90481936     -0.75127341 C
  atom      -2.85992042      4.96354534     -1.24816203 O
  atom      -1.72469572      2.31006942      1.63477544 H
  atom      -4.17707984      2.93068518      0.08992143 H
  atom      -3.48482785      4.40412538      1.51736310 C
  atom      -3.95312406      5.26816288      1.03416487 H
  atom      -2.54712568      4.74454548      1.98077472 H
  atom      -4.14841244      4.02491304      2.30423768 H
  atom      -1.43996059      3.17157287     -1.22301534 N
  atom      -0.68123691      3.55061055     -2.39857238 C
  atom      -1.23504339      2.29625162     -0.75615235 H
  atom       0.39445282      3.57459811     -2.17831600 H
  atom      -1.01080573      4.55143622     -2.69805979 H
  atom      -0.85861215      2.85653200     -3.23309649 H
  
  -----------------------------------------------------------------------
  Completed first pass over input file geometry.in .
  -----------------------------------------------------------------------
  

  Basic array size parameters:
  | Number of species                 :        4
  | Number of atoms                   :       32
  | Max. basis fn. angular momentum   :        4
  | Max. atomic/ionic basis occupied n:        2
  | Max. number of basis fn. types    :        2
  | Max. radial fns per species/type  :        8
  | Max. logarithmic grid size        :     1301
  | Max. radial integration grid size :       73
  | Max. angular integration grid size:      434
  | Max. angular grid division number :        8
  | Radial grid for Hartree potential :     1301
  | Number of spin channels           :        1

------------------------------------------------------------
          Reading file control.in.
------------------------------------------------------------
  XC: Using PBE gradient-corrected functionals.
  Self-consistent screening and van der Waals energy (TS, TS+SCS,MBD) module
  Spin treatment: No spin polarisation.
  Charge =   0.000000E+00: Neutral system requested explicitly.
  Occupation type: Gaussian broadening, width =   0.500000E-01 eV.
  Using pulay charge density mixing.
  Pulay mixing - number of memorized iterations:   10
  Charge density mixing - mixing parameter:     0.5000
  Convergence accuracy of self-consistent charge density:  0.1000E-03
  Convergence accuracy of sum of eigenvalues:  0.1000E-01
  Convergence accuracy of total energy:  0.1000E-04
  Convergence accuracy of forces:  0.1000E-03
  Maximum number of s.-c. iterations  :  1000
  Fitting ESP-charges to Potential. 
  | Esp charge output options: 
  | ESP Grid method: 3, cubic grid
  | Number of points in x, ,y, z:  0080 0080 0080
  |
 
  Reading configuration options for species H                   .
  | Found nuclear charge :   1.0000
  | Found atomic mass :    1.00794000000000      amu
  | Found l_max for Hartree potential  :   6
  | Found cutoff potl. onset [A], width [A], scale factor :    4.00000    2.00000    1.00000
  | Threshold for basis-dependent cutoff potential is   0.100000E-03
  | Found data for basic radial integration grid :    24 points, outermost radius =    7.000 A
  | Found multiplier for basic radial grid :   2
  | Found angular grid specification: user-specified.
  | Specified grid contains     6 separate shells.
  | Check grid settings after all constraints further below.
  | Found free-atom valence shell :  1 s   1.000
  | No ionic wave fns used. Skipping ion_occ.
  | Found hydrogenic basis function :  2 s   2.100
  | Found hydrogenic basis function :  2 p   3.500
  | Found hydrogenic basis function :  1 s   0.850
  | Found hydrogenic basis function :  2 p   3.700
  | Found hydrogenic basis function :  2 s   1.200
  | Found hydrogenic basis function :  3 d   7.000
  Species H                   : Missing cutoff potential type.
  Defaulting to exp(1/x)/(1-x)^2 type cutoff potential.
  Species H : No 'logarithmic' tag. Using default grid for free atom:
  | Default logarithmic grid data [bohr] : 0.1000E-03 0.1000E+03 0.1012E+01
  Species H : On-site basis accuracy parameter (for Gram-Schmidt orthonormalisation) not specified.
  Using default value basis_acc =  0.1000000E-03.
  Species H                   : Using default innermost maximum threshold i_radial=  2 for radial functions.
  Species H                   : Default cutoff onset for free atom density etc. : 0.40000000E+01 AA.
  Species H                   : Basic radial grid will be enhanced according to radial_multiplier =   2, to contain    49 grid points.
 
  Reading configuration options for species C                   .
  | Found nuclear charge :   6.0000
  | Found atomic mass :    12.0107000000000      amu
  | Found l_max for Hartree potential  :   6
  | Found cutoff potl. onset [A], width [A], scale factor :    4.00000    2.00000    1.00000
  | Threshold for basis-dependent cutoff potential is   0.100000E-03
  | Found data for basic radial integration grid :    34 points, outermost radius =    7.000 A
  | Found multiplier for basic radial grid :   2
  | Found angular grid specification: user-specified.
  | Specified grid contains     6 separate shells.
  | Check grid settings after all constraints further below.
  | Found free-atom valence shell :  2 s   2.000
  | Found free-atom valence shell :  2 p   2.000
  | No ionic wave fns used. Skipping ion_occ.
  | No ionic wave fns used. Skipping ion_occ.
  | Found hydrogenic basis function :  2 p   1.700
  | Found hydrogenic basis function :  3 d   6.000
  | Found hydrogenic basis function :  2 s   4.900
  | Found hydrogenic basis function :  4 f   9.800
  | Found hydrogenic basis function :  3 p   5.200
  | Found hydrogenic basis function :  3 s   4.300
  | Found hydrogenic basis function :  5 g  14.400
  | Found hydrogenic basis function :  3 d   6.200
  Species C                   : Missing cutoff potential type.
  Defaulting to exp(1/x)/(1-x)^2 type cutoff potential.
  Species C : No 'logarithmic' tag. Using default grid for free atom:
  | Default logarithmic grid data [bohr] : 0.1000E-03 0.1000E+03 0.1012E+01
  Species C : On-site basis accuracy parameter (for Gram-Schmidt orthonormalisation) not specified.
  Using default value basis_acc =  0.1000000E-03.
  Species C                   : Using default innermost maximum threshold i_radial=  2 for radial functions.
  Species C                   : Default cutoff onset for free atom density etc. : 0.40000000E+01 AA.
  Species C                   : Basic radial grid will be enhanced according to radial_multiplier =   2, to contain    69 grid points.
 
  Reading configuration options for species N                   .
  | Found nuclear charge :   7.0000
  | Found atomic mass :    14.0067000000000      amu
  | Found l_max for Hartree potential  :   6
  | Found cutoff potl. onset [A], width [A], scale factor :    4.00000    2.00000    1.00000
  | Threshold for basis-dependent cutoff potential is   0.100000E-03
  | Found data for basic radial integration grid :    35 points, outermost radius =    7.000 A
  | Found multiplier for basic radial grid :   2
  | Found angular grid specification: user-specified.
  | Specified grid contains     6 separate shells.
  | Check grid settings after all constraints further below.
  | Found free-atom valence shell :  2 s   2.000
  | Found free-atom valence shell :  2 p   3.000
  | No ionic wave fns used. Skipping ion_occ.
  | No ionic wave fns used. Skipping ion_occ.
  | Found hydrogenic basis function :  2 p   1.800
  | Found hydrogenic basis function :  3 d   6.800
  | Found hydrogenic basis function :  3 s   5.800
  | Found hydrogenic basis function :  4 f  10.800
  | Found hydrogenic basis function :  3 p   5.800
  | Found hydrogenic basis function :  1 s   0.800
  | Found hydrogenic basis function :  5 g  16.000
  | Found hydrogenic basis function :  3 d   4.900
  Species N                   : Missing cutoff potential type.
  Defaulting to exp(1/x)/(1-x)^2 type cutoff potential.
  Species N : No 'logarithmic' tag. Using default grid for free atom:
  | Default logarithmic grid data [bohr] : 0.1000E-03 0.1000E+03 0.1012E+01
  Species N : On-site basis accuracy parameter (for Gram-Schmidt orthonormalisation) not specified.
  Using default value basis_acc =  0.1000000E-03.
  Species N                   : Using default innermost maximum threshold i_radial=  2 for radial functions.
  Species N                   : Default cutoff onset for free atom density etc. : 0.40000000E+01 AA.
  Species N                   : Basic radial grid will be enhanced according to radial_multiplier =   2, to contain    71 grid points.
 
  Reading configuration options for species O                   .
  | Found nuclear charge :   8.0000
  | Found atomic mass :    15.9994000000000      amu
  | Found l_max for Hartree potential  :   6
  | Found cutoff potl. onset [A], width [A], scale factor :    4.00000    2.00000    1.00000
  | Threshold for basis-dependent cutoff potential is   0.100000E-03
  | Found data for basic radial integration grid :    36 points, outermost radius =    7.000 A
  | Found multiplier for basic radial grid :   2
  | Found angular grid specification: user-specified.
  | Specified grid contains     6 separate shells.
  | Check grid settings after all constraints further below.
  | Found free-atom valence shell :  2 s   2.000
  | Found free-atom valence shell :  2 p   4.000
  | No ionic wave fns used. Skipping ion_occ.
  | No ionic wave fns used. Skipping ion_occ.
  | Found hydrogenic basis function :  2 p   1.800
  | Found hydrogenic basis function :  3 d   7.600
  | Found hydrogenic basis function :  3 s   6.400
  | Found hydrogenic basis function :  4 f  11.600
  | Found hydrogenic basis function :  3 p   6.200
  | Found hydrogenic basis function :  3 d   5.600
  | Found hydrogenic basis function :  5 g  17.600
  | Found hydrogenic basis function :  1 s   0.750
  Species O                   : Missing cutoff potential type.
  Defaulting to exp(1/x)/(1-x)^2 type cutoff potential.
  Species O : No 'logarithmic' tag. Using default grid for free atom:
  | Default logarithmic grid data [bohr] : 0.1000E-03 0.1000E+03 0.1012E+01
  Species O : On-site basis accuracy parameter (for Gram-Schmidt orthonormalisation) not specified.
  Using default value basis_acc =  0.1000000E-03.
  Species O                   : Using default innermost maximum threshold i_radial=  2 for radial functions.
  Species O                   : Default cutoff onset for free atom density etc. : 0.40000000E+01 AA.
  Species O                   : Basic radial grid will be enhanced according to radial_multiplier =   2, to contain    73 grid points.
 
  Finished reading input file 'control.in'. Consistency checks are next.
 
  Target number of points in a grid batch is not set. Defaulting to  100
  Method for grid partitioning is not set. Defaulting to parallel hash+maxmin partitioning.
  Batch size limit is not set. Defaulting to    200
  By default, will store active basis functions for each batch.
  If in need of memory, prune_basis_once .false. can be used to disable this option.
  communication_type for Hartree potential was not specified.
  Defaulting to calc_hartree .
  Pulay mixer: Number of initial linear mixing iterations not set.
  Defaulting to    0 iterations.
  Work space size for distributed Hartree potential not set.
  Defaulting to   0.200000E+03 MB.
  Algorithm-dependent basis array size parameters:
  | n_max_pulay                         :       10
  Geometry relaxation not requested: no relaxation will be performed.
  Handling of forces: Unphysical translation and rotation will be removed from forces.
  No accuracy limit for integral partition fn. given. Defaulting to  0.1000E-14.
  No threshold value for u(r) in integrations given. Defaulting to  0.1000E-05.
  No accuracy for occupation numbers given. Defaulting to  0.1000E-07.
  No threshold value for occupation numbers given. Defaulting to  0.0000E+00.
  No accuracy for fermi level given. Defaulting to  0.1000E-19.
  Maximum # of iterations to find E_F not set. Defaulting to  200.
  Preferred method for the eigenvalue solver ('KS_method') not specified in 'control.in'.
  Calling blacs routine to test compilation state
  Since scalapack support is enabled, defaulting to 'elpa'.
  Preferred method for the MBD eigenvalue solver ('mbd_eigensolver') not specified in 'control.in'.
  Calling blacs routine to test compilation state
  Since scalapack support is enabled, defaulting to 'scaLAPACK'.
  Will not use alltoall communication since running on < 1024 CPUs.
  Threshold for basis singularities not set.
  Default threshold for basis singularities:  0.1000E-04
  partition_type (choice of integration weights) for integrals was not specified.
  | Using a version of the partition function of Stratmann and coworkers ('stratmann_smoother').
  | At each grid point, the set of atoms used to build the partition table is smoothly restricted to
  | only those atoms whose free-atom density would be non-zero at that grid point.
  Partitioning for Hartree potential was not defined. Using partition_type for integrals.
  | Adjusted default value of keyword multip_moments_threshold to:       0.10000000E-11
  | This value may affect high angular momentum components of the Hartree potential in periodic systems.
  No q(lm)/r^(l+1) cutoff set for long-range Hartree potential.
  | Using default value of  0.100000E-09 .
  | Verify using the multipole_threshold keyword.
  Defaulting to new monopole extrapolation.
  Density update method: automatic selection selected.
------------------------------------------------------------


------------------------------------------------------------
          Reading geometry description geometry.in.
------------------------------------------------------------
 * Warning! You did not set the 'relativistic' flag in input file 'control.in'.
 * Since you are not attempting to treat any elements beyond Ca(Z=20), FHI-aims
 * will default to 'relativistic none'.
 * You must ensure that this is really what you want!!
 * For example, DO NOT compute total-energy differences between results from
 * different settings of the 'relativistic' flag.
  Input structure read successfully.
  The structure contains       32 atoms,  and a total of        116.000 electrons.

  Input geometry:
  | No unit cell requested.
  | Atomic structure:
  |       Atom                x [A]            y [A]            z [A]
  |    1: Species C             -0.189255        -0.424661        -0.084303
  |    2: Species C              0.115203         0.104855         1.305496
  |    3: Species O              1.247955         0.421585         1.654465
  |    4: Species H             -1.109819        -0.015150        -0.521768
  |    5: Species H             -0.314062        -1.517038        -0.045964
  |    6: Species H              0.663600        -0.198963        -0.730263
  |    7: Species N             -0.945554         0.203319         2.181848
  |    8: Species C             -2.341162        -0.135695         1.934773
  |    9: Species C             -3.117406         0.917260         1.106057
  |   10: Species O             -4.167190         0.616176         0.547680
  |   11: Species H             -0.671542         0.461594         3.126716
  |   12: Species H             -2.402317        -1.062081         1.344936
  |   13: Species C             -3.068501        -0.360664         3.263809
  |   14: Species H             -4.121324        -0.596567         3.074421
  |   15: Species H             -3.027923         0.541772         3.891378
  |   16: Species H             -2.614439        -1.193396         3.816153
  |   17: Species N             -2.554748         2.161505         1.066372
  |   18: Species C             -3.219893         3.315446         0.475462
  |   19: Species C             -2.485003         3.904819        -0.751273
  |   20: Species O             -2.859920         4.963545        -1.248162
  |   21: Species H             -1.724696         2.310069         1.634775
  |   22: Species H             -4.177080         2.930685         0.089921
  |   23: Species C             -3.484828         4.404125         1.517363
  |   24: Species H             -3.953124         5.268163         1.034165
  |   25: Species H             -2.547126         4.744545         1.980775
  |   26: Species H             -4.148412         4.024913         2.304238
  |   27: Species N             -1.439961         3.171573        -1.223015
  |   28: Species C             -0.681237         3.550611        -2.398572
  |   29: Species H             -1.235043         2.296252        -0.756152
  |   30: Species H              0.394453         3.574598        -2.178316
  |   31: Species H             -1.010806         4.551436        -2.698060
  |   32: Species H             -0.858612         2.856532        -3.233096
  |

  | The smallest distance between any two atoms is         1.01298539 AA.
  |
  | The first atom of this pair is atom number                     27 .
  | The second atom of this pair is atom number                    29 .

  Number of empty states per atom not set in control.in - providing a guess from actual geometry.
  | Total number of empty states used during s.c.f. cycle:       71
  If you use a very high smearing, use empty_states (per atom!) in control.in to increase this value.

  Structure-dependent array size parameters: 
  | Maximum number of distinct radial functions  :       40
  | Maximum number of basis functions            :      840
  | Number of Kohn-Sham states (occupied + empty):      129
------------------------------------------------------------

------------------------------------------------------------
          Preparing all fixed parts of the calculation.
------------------------------------------------------------
  Determining machine precision:
    2.225073858507201E-308
  Setting up grids for atomic and cluster calculations.

  Creating wave function, potential, and density for free atoms.

  Species: H

  List of occupied orbitals and eigenvalues:
    n    l              occ      energy [Ha]    energy [eV]
    1    0           1.0000        -0.238382        -6.4867


  Species: C

  List of occupied orbitals and eigenvalues:
    n    l              occ      energy [Ha]    energy [eV]
    1    0           2.0000       -10.041232      -273.2358
    2    0           2.0000        -0.504327       -13.7234
    2    1           2.0000        -0.193750        -5.2722


  Species: N

  List of occupied orbitals and eigenvalues:
    n    l              occ      energy [Ha]    energy [eV]
    1    0           2.0000       -14.129007      -384.4699
    2    0           2.0000        -0.681802       -18.5528
    2    1           3.0000        -0.260543        -7.0897


  Species: O

  List of occupied orbitals and eigenvalues:
    n    l              occ      energy [Ha]    energy [eV]
    1    0           2.0000       -18.898576      -514.2564
    2    0           2.0000        -0.878795       -23.9132
    2    1           4.0000        -0.332075        -9.0362

  Creating fixed part of basis set: Ionic, confined, hydrogenic.
 
  H                    hydrogenic:
 
  List of hydrogenic basis orbitals: 
    n    l      effective z      eigenvalue [eV]  inner max. [A]     outer max. [A]     outer radius [A]   
    2    0         2.100000       -14.9965           0.193243           1.317208           5.373006
    2    1         3.500000       -41.6672           0.602369           0.602369           4.056063
    1    0         0.850000        -9.8292           0.624871           0.624871           5.373006
    2    1         3.700000       -46.5653           0.573622           0.573622           3.910002
    2    0         1.200000        -4.5995           0.334980           2.228188           5.505995
    3    2         7.000000       -74.0753           0.680699           0.680699           3.769201
 
 
  C                    hydrogenic:
 
  List of hydrogenic basis orbitals: 
    n    l      effective z      eigenvalue [eV]  inner max. [A]     outer max. [A]     outer radius [A]   
    2    1         1.700000        -9.8152           1.245706           1.245706           5.401630
    3    2         6.000000       -54.4226           0.792453           0.792453           4.178599
    2    0         4.900000       -81.6681           0.082559           0.562749           3.353238
    4    3         9.800000       -81.6681           0.863254           0.863254           4.028125
    3    1         5.200000       -40.8774           0.305389           1.215618           4.898362
    3    0         4.300000       -27.9508           0.091041           1.610311           5.401630
    5    4        14.400000      -112.8510           0.917666           0.917666           3.883070
    3    2         6.200000       -58.1113           0.763917           0.763917           4.077671
 
 
  N                    hydrogenic:
 
  List of hydrogenic basis orbitals: 
    n    l      effective z      eigenvalue [eV]  inner max. [A]     outer max. [A]     outer radius [A]   
    2    1         1.800000       -11.0118           1.177451           1.177451           5.427479
    3    2         6.800000       -69.9029           0.704619           0.704619           3.854246
    3    0         5.800000       -50.8549           0.067388           1.191934           4.629968
    4    3        10.800000       -99.1854           0.786571           0.786571           3.761152
    3    1         5.800000       -50.8549           0.274880           1.094176           4.518138
    1    0         0.800000        -8.7059           0.662839           0.662839           5.361532
    5    4        16.000000      -139.3222           0.825990           0.825990           3.625711
    3    2         4.900000       -36.2967           0.968267           0.968267           4.862000
 
 
  O                    hydrogenic:
 
  List of hydrogenic basis orbitals: 
    n    l      effective z      eigenvalue [eV]  inner max. [A]     outer max. [A]     outer radius [A]   
    2    1         1.800000       -11.0118           1.178562           1.178562           5.432602
    3    2         7.600000       -87.3182           0.624125           0.624125           3.541477
    3    0         6.400000       -61.9209           0.061167           1.081902           4.306578
    4    3        11.600000      -114.4238           0.731631           0.731631           3.585037
    3    1         6.200000       -58.1113           0.255680           1.030270           4.306578
    3    2         5.600000       -47.4081           0.847233           0.847233           4.413171
    5    4        17.600000      -168.5799           0.749740           0.749740           3.372465
    1    0         0.750000        -7.6499           0.705284           0.705284           5.366593
 

  Adding cutoff potential to free-atom effective potential.
  Creating atomic-like basis functions for current effective potential.

  Species H                   :

  List of atomic basis orbitals and eigenvalues:
    n    l      energy [Ha]    energy [eV]    outer radius [A]
    1    0        -0.238382        -6.4867       5.373006


  Species C                   :

  List of atomic basis orbitals and eigenvalues:
    n    l      energy [Ha]    energy [eV]    outer radius [A]
    1    0       -10.041232      -273.2358       1.934409
    2    0        -0.504327       -13.7234       5.271162
    2    1        -0.193750        -5.2722       5.401630


  Species N                   :

  List of atomic basis orbitals and eigenvalues:
    n    l      energy [Ha]    energy [eV]    outer radius [A]
    1    0       -14.129007      -384.4699       1.637919
    2    0        -0.681802       -18.5528       5.168461
    2    1        -0.260543        -7.0897       5.361532


  Species O                   :

  List of atomic basis orbitals and eigenvalues:
    n    l      energy [Ha]    energy [eV]    outer radius [A]
    1    0       -18.898576      -514.2564       1.415765
    2    0        -0.878795       -23.9132       5.048385
    2    1        -0.332075        -9.0362       5.301386

  Assembling full basis from fixed parts.
  | Species H :   atomic orbital   1 s accepted.
  | Species H :    hydro orbital   2 s accepted.
  | Species H :    hydro orbital   1 s accepted.
  | Species H :    hydro orbital   2 s accepted.
  | Species H :    hydro orbital   2 p accepted.
  | Species H :    hydro orbital   2 p accepted.
  | Species H :    hydro orbital   3 d accepted.
  | Species C :   atomic orbital   1 s accepted.
  | Species C :    hydro orbital   2 s accepted.
  | Species C :   atomic orbital   2 s accepted.
  | Species C :    hydro orbital   3 s accepted.
  | Species C :    hydro orbital   3 p accepted.
  | Species C :   atomic orbital   2 p accepted.
  | Species C :    hydro orbital   2 p accepted.
  | Species C :    hydro orbital   3 d accepted.
  | Species C :    hydro orbital   3 d accepted.
  | Species C :    hydro orbital   4 f accepted.
  | Species C :    hydro orbital   5 g accepted.
  | Species N :   atomic orbital   1 s accepted.
  | Species N :    hydro orbital   3 s accepted.
  | Species N :   atomic orbital   2 s accepted.
  | Species N :    hydro orbital   1 s accepted.
  | Species N :    hydro orbital   3 p accepted.
  | Species N :   atomic orbital   2 p accepted.
  | Species N :    hydro orbital   2 p accepted.
  | Species N :    hydro orbital   3 d accepted.
  | Species N :    hydro orbital   3 d accepted.
  | Species N :    hydro orbital   4 f accepted.
  | Species N :    hydro orbital   5 g accepted.
  | Species O :   atomic orbital   1 s accepted.
  | Species O :    hydro orbital   3 s accepted.
  | Species O :   atomic orbital   2 s accepted.
  | Species O :    hydro orbital   1 s accepted.
  | Species O :    hydro orbital   3 p accepted.
  | Species O :   atomic orbital   2 p accepted.
  | Species O :    hydro orbital   2 p accepted.
  | Species O :    hydro orbital   3 d accepted.
  | Species O :    hydro orbital   3 d accepted.
  | Species O :    hydro orbital   4 f accepted.
  | Species O :    hydro orbital   5 g accepted.
 
  Basis size parameters after reduction:
  | Total number of radial functions:       40
  | Total number of basis functions :      840
 
  Testing on-site integration grid accuracy.
  |  Species  Function  <phi|h_atom|phi> (log., in eV)  <phi|h_atom|phi> (rad., in eV)
           1        1                 -6.4869821809                 -6.4870742227
           1        2                 13.5044133542                 13.5041049177
           1        3                 32.7854418792                 32.7779770519
           1        4                 33.7995553101                 33.7152624900 ***
           1        5                 28.8558651799                 28.8558652046
           1        6                 59.6361831893                 59.6362535845
           1        7                 60.2733718049                 60.2733715484
           2        8               -273.2358277112               -273.2358261765
           2        9                -10.7624923123                -10.7625144012
           2       10                 17.4634079027                 17.4634252127
           2       11                 53.0363661832                 53.0366180446
           2       12                 15.0981351967                 15.0981317714
           2       13                  3.8522181899                  3.8522770949
           2       14                 12.1181835661                 12.1206868578
           2       15                 29.4320778347                 29.4320780959
           2       16                 54.8753777694                 54.8752901936
           2       17                 59.3533975461                 59.3533974833
           2       18                 93.4537491195                 93.4537492066
           3       19               -384.4698526889               -384.4698499465
           3       20                 12.5691022037                 12.5690910168
           3       21                -15.7489097511                -15.7489165588
           3       22                 27.0978334940                 27.0985589490
           3       23                 18.5949116966                 18.5949125562
           3       24                  1.2212828291                  1.2212855301
           3       25                 13.4428926797                 13.4434051125
           3       26                 35.9380614500                 35.9380613666
           3       27                 39.9231532098                 39.9231654735
           3       28                 72.9957335806                 72.9957336833
           3       29                116.4231321147                116.4231321431
           4       30               -514.2564144315               -514.2564099626
           4       31                 15.1726678541                 15.1726530877
           4       32                -21.5447785304                -21.5447874973
           4       33                 14.4944558459                 14.4944698284
           4       34                 20.8882174564                 20.8882178906
           4       35                 -2.4850315908                 -2.4850322289
           4       36                 13.8600193195                 13.8599826966
           4       37                 45.8243383616                 45.8243383675
           4       38                 52.1840606465                 52.1840622440
           4       39                 85.4074185510                 85.4074185819
           4       40                142.0983717302                142.0983717339
 * Note: Onsite integrals marked "***" above are less accurate than
 * onsite_accuracy_threshold =    0.03000 eV. Usually, this is harmless.
 * When in doubt, tighten the "radial" and/or "radial_multiplier" flags to check.

  Preparing densities etc. for the partition functions (integrals / Hartree potential).

  Preparations completed.
  max(cpu_time)          :      0.240 s.
  Wall clock time (cpu1) :      0.235 s.
------------------------------------------------------------

------------------------------------------------------------
          Begin self-consistency loop: Initialization.

          Date     :  20170309, Time     :  181341.233
------------------------------------------------------------

  Initializing index lists of integration centers etc. from given atomic structure:
  | Number of centers in hartree potential         :        32
  | Number of centers in hartree multipole         :        32
  | Number of centers in electron density summation:        32
  | Number of centers in basis integrals           :        32
  | Number of centers in integrals                 :        32
  | Number of centers in hamiltonian               :        32
  Using modified Scalapack Eigenvalue solver (ELPA)
  * Using 32 tasks for Scalapack Eigenvalue solver.
  Detailed listing of tasks and assigned k-points:
  (for non-periodic systems, the "k-point" denotes an internal label only)
   Task     0 k-point     1 on eos195
   Task     1 k-point     1 on eos195
   Task     2 k-point     1 on eos195
   Task     3 k-point     1 on eos195
   Task     4 k-point     1 on eos195
   Task     5 k-point     1 on eos195
   Task     6 k-point     1 on eos195
   Task     7 k-point     1 on eos195
   Task     8 k-point     1 on eos195
   Task     9 k-point     1 on eos195
   Task    10 k-point     1 on eos195
   Task    11 k-point     1 on eos195
   Task    12 k-point     1 on eos195
   Task    13 k-point     1 on eos195
   Task    14 k-point     1 on eos195
   Task    15 k-point     1 on eos195
   Task    16 k-point     1 on eos195
   Task    17 k-point     1 on eos195
   Task    18 k-point     1 on eos195
   Task    19 k-point     1 on eos195
   Task    20 k-point     1 on eos195
   Task    21 k-point     1 on eos195
   Task    22 k-point     1 on eos195
   Task    23 k-point     1 on eos195
   Task    24 k-point     1 on eos195
   Task    25 k-point     1 on eos195
   Task    26 k-point     1 on eos195
   Task    27 k-point     1 on eos195
   Task    28 k-point     1 on eos195
   Task    29 k-point     1 on eos195
   Task    30 k-point     1 on eos195
   Task    31 k-point     1 on eos195
  Tasks:    32 split into      8 X      4 BLACS grid
  Calculating blocksize based on n_basis =          840 max_nprow =            8 max_npcol =            4
  Scalapack blocksize set to:           16
  Required Scalapack workspace - INTEGER:            1 REAL:             1
  Partitioning the integration grid into batches with parallel hashing+maxmin method.
  | Number of batches:     4812
  | Maximal batch size:     200
  | Minimal batch size:      28
  | Average batch size:     109.669
  | Standard deviation of batch sizes:      28.415

  Integration load balanced across    32 MPI tasks.
  Work distribution over tasks is as follows:
  Task     0 has      16429 integration points.
  Task     1 has      16521 integration points.
  Task     2 has      16432 integration points.
  Task     3 has      16488 integration points.
  Task     4 has      16492 integration points.
  Task     5 has      16434 integration points.
  Task     6 has      16487 integration points.
  Task     7 has      16613 integration points.
  Task     8 has      16497 integration points.
  Task     9 has      16555 integration points.
  Task    10 has      16428 integration points.
  Task    11 has      16471 integration points.
  Task    12 has      16424 integration points.
  Task    13 has      16460 integration points.
  Task    14 has      16424 integration points.
  Task    15 has      16426 integration points.
  Task    16 has      16423 integration points.
  Task    17 has      16495 integration points.
  Task    18 has      16560 integration points.
  Task    19 has      16609 integration points.
  Task    20 has      16484 integration points.
  Task    21 has      16467 integration points.
  Task    22 has      16421 integration points.
  Task    23 has      16612 integration points.
  Task    24 has      16510 integration points.
  Task    25 has      16513 integration points.
  Task    26 has      16519 integration points.
  Task    27 has      16485 integration points.
  Task    28 has      16580 integration points.
  Task    29 has      16487 integration points.
  Task    30 has      16477 integration points.
  Task    31 has      16505 integration points.
  Initializing partition tables, free-atom densities, potentials, etc. across the integration grid (initialize_grid_storage).
  | initialize_grid_storage: Actual outermost partition radius vs. multipole_radius_free
  | (-- VB: in principle, multipole_radius_free should be larger, hence this output)
  | Species        1: Confinement radius =              6.000000000000000 AA, multipole_radius_free =              6.071692442739658 AA.
  | Species        1: outer_partition_radius set to              6.071692442739658 AA .
  | Species        2: Confinement radius =              6.000000000000000 AA, multipole_radius_free =              6.029870734432609 AA.
  | Species        2: outer_partition_radius set to              6.029870734432609 AA .
  | Species        3: Confinement radius =              6.000000000000000 AA, multipole_radius_free =              6.058726835495003 AA.
  | Species        3: outer_partition_radius set to              6.058726835495003 AA .
  | Species        4: Confinement radius =              6.000000000000000 AA, multipole_radius_free =              6.064445521808699 AA.
  | Species        4: outer_partition_radius set to              6.064445521808699 AA .
  | Original list of interatomic distances with          32 x         32 entries is created.
  | Net number of integration points:   527728
  | of which are non-zero points    :   413955
  Obtaining max. number of non-zero basis functions in each batch (get_n_compute_maxes).
  | Maximal number of non-zero basis functions:      793 in task     0
  | Maximal number of non-zero basis functions:      789 in task     1
  | Maximal number of non-zero basis functions:      802 in task     2
  | Maximal number of non-zero basis functions:      783 in task     3
  | Maximal number of non-zero basis functions:      798 in task     4
  | Maximal number of non-zero basis functions:      762 in task     5
  | Maximal number of non-zero basis functions:      804 in task     6
  | Maximal number of non-zero basis functions:      775 in task     7
  | Maximal number of non-zero basis functions:      794 in task     8
  | Maximal number of non-zero basis functions:      788 in task     9
  | Maximal number of non-zero basis functions:      773 in task    10
  | Maximal number of non-zero basis functions:      799 in task    11
  | Maximal number of non-zero basis functions:      791 in task    12
  | Maximal number of non-zero basis functions:      781 in task    13
  | Maximal number of non-zero basis functions:      803 in task    14
  | Maximal number of non-zero basis functions:      790 in task    15
  | Maximal number of non-zero basis functions:      773 in task    16
  | Maximal number of non-zero basis functions:      801 in task    17
  | Maximal number of non-zero basis functions:      796 in task    18
  | Maximal number of non-zero basis functions:      781 in task    19
  | Maximal number of non-zero basis functions:      810 in task    20
  | Maximal number of non-zero basis functions:      779 in task    21
  | Maximal number of non-zero basis functions:      785 in task    22
  | Maximal number of non-zero basis functions:      765 in task    23
  | Maximal number of non-zero basis functions:      789 in task    24
  | Maximal number of non-zero basis functions:      775 in task    25
  | Maximal number of non-zero basis functions:      773 in task    26
  | Maximal number of non-zero basis functions:      785 in task    27
  | Maximal number of non-zero basis functions:      802 in task    28
  | Maximal number of non-zero basis functions:      802 in task    29
  | Maximal number of non-zero basis functions:      781 in task    30
  | Maximal number of non-zero basis functions:      804 in task    31
  Selecting the method for density update.
  Loop over occupied states selected for charge density update.
  Integrating Hamiltonian matrix: batch-based integration.
  Time summed over all CPUs for integration: real work       21.315 s, elapsed       22.053 s
  Integrating overlap matrix.
  Time summed over all CPUs for integration: real work       12.695 s, elapsed       13.090 s
  Deallocating overlap matrix.

  Updating Kohn-Sham eigenvalues, eigenvectors, occupation numbers, and Fermi level.
  Solving generalized eigenproblem
  Solving real symmetric generalised eigenvalue problem by standard ScaLAPACK.
  Transforming overlap matrix with ScaLAPACK and checking for singularities.
  : Overlap matrix is nonsingular, using Cholesky decomposition
  | Lowest eigenvalue:  0.755524E-04
  Factoring overlap matrix with Cholesky decomposition
  Using Cholesky factor for transformation
  Using 1-stage real ELPA solver
  Determining occupation numbers for Kohn-Sham eigenstates.
  | Chemical potential (Fermi level) in eV                 : -.96263319E+01
  | Error in electron count due to remaining E_F inaccuracy: 0.00000000E+00
  | Maximum occupation number of highest empty state:  0.00E+00

  Writing Kohn-Sham eigenvalues.

  State    Occupation    Eigenvalue [Ha]    Eigenvalue [eV]
      1       2.00000         -18.974888         -516.33298
      2       2.00000         -18.974592         -516.32491
      3       2.00000         -18.974391         -516.31945
      4       2.00000         -14.256741         -387.94565
      5       2.00000         -14.255258         -387.90530
      6       2.00000         -14.252715         -387.83610
      7       2.00000         -10.171009         -276.76724
      8       2.00000         -10.171009         -276.76724
      9       2.00000         -10.170889         -276.76397
     10       2.00000         -10.166833         -276.65361
     11       2.00000         -10.148543         -276.15590
     12       2.00000         -10.148507         -276.15491
     13       2.00000         -10.135346         -275.79679
     14       2.00000         -10.134787         -275.78157
     15       2.00000         -10.134556         -275.77530
     16       2.00000          -1.134205          -30.86329
     17       2.00000          -1.131883          -30.80011
     18       2.00000          -1.130486          -30.76210
     19       2.00000          -1.026609          -27.93545
     20       2.00000          -1.014081          -27.59456
     21       2.00000          -1.002532          -27.28030
     22       2.00000          -0.886905          -24.13391
     23       2.00000          -0.873745          -23.77580
     24       2.00000          -0.845883          -23.01764
     25       2.00000          -0.822471          -22.38056
     26       2.00000          -0.775085          -21.09115
     27       2.00000          -0.747927          -20.35213
     28       2.00000          -0.698280          -19.00118
     29       2.00000          -0.687056          -18.69574
     30       2.00000          -0.684704          -18.63173
     31       2.00000          -0.653077          -17.77114
     32       2.00000          -0.631001          -17.17040
     33       2.00000          -0.613542          -16.69533
     34       2.00000          -0.602410          -16.39242
     35       2.00000          -0.588030          -16.00112
     36       2.00000          -0.579815          -15.77757
     37       2.00000          -0.562967          -15.31911
     38       2.00000          -0.559703          -15.23029
     39       2.00000          -0.555793          -15.12389
     40       2.00000          -0.554815          -15.09727
     41       2.00000          -0.545661          -14.84819
     42       2.00000          -0.543062          -14.77748
     43       2.00000          -0.538776          -14.66084
     44       2.00000          -0.526937          -14.33868
     45       2.00000          -0.522184          -14.20934
     46       2.00000          -0.516753          -14.06157
     47       2.00000          -0.512959          -13.95831
     48       2.00000          -0.499742          -13.59866
     49       2.00000          -0.497394          -13.53477
     50       2.00000          -0.486581          -13.24054
     51       2.00000          -0.478076          -13.00911
     52       2.00000          -0.473535          -12.88554
     53       2.00000          -0.417517          -11.36121
     54       2.00000          -0.415829          -11.31528
     55       2.00000          -0.402127          -10.94243
     56       2.00000          -0.386237          -10.51006
     57       2.00000          -0.384214          -10.45501
     58       2.00000          -0.374753          -10.19756
     59       0.00000          -0.163551           -4.45044
     60       0.00000          -0.157074           -4.27419
     61       0.00000          -0.154625           -4.20756
     62       0.00000          -0.084937           -2.31126
     63       0.00000          -0.061294           -1.66790
     64       0.00000          -0.056882           -1.54784
     65       0.00000          -0.049544           -1.34817
     66       0.00000          -0.045926           -1.24970
     67       0.00000          -0.037212           -1.01259
     68       0.00000          -0.032862           -0.89422
     69       0.00000          -0.028076           -0.76399
     70       0.00000          -0.025605           -0.69675
     71       0.00000          -0.019718           -0.53654
     72       0.00000          -0.016934           -0.46079
     73       0.00000          -0.014124           -0.38433
     74       0.00000          -0.009439           -0.25684
     75       0.00000          -0.008061           -0.21936
     76       0.00000          -0.002505           -0.06817
     77       0.00000           0.001766            0.04806
     78       0.00000           0.004621            0.12574
     79       0.00000           0.012836            0.34929
     80       0.00000           0.015300            0.41633
     81       0.00000           0.021667            0.58958
     82       0.00000           0.023334            0.63494
     83       0.00000           0.035886            0.97652
     84       0.00000           0.039011            1.06154
     85       0.00000           0.046202            1.25723
     86       0.00000           0.048374            1.31632
     87       0.00000           0.055632            1.51383
     88       0.00000           0.058543            1.59303
     89       0.00000           0.062807            1.70907
     90       0.00000           0.064853            1.76474
     91       0.00000           0.074240            2.02018
     92       0.00000           0.083213            2.26434
     93       0.00000           0.086324            2.34900
     94       0.00000           0.088416            2.40592
     95       0.00000           0.097086            2.64185
     96       0.00000           0.103145            2.80673
     97       0.00000           0.107352            2.92120
     98       0.00000           0.112689            3.06641
     99       0.00000           0.119214            3.24398
    100       0.00000           0.121106            3.29547
    101       0.00000           0.124966            3.40049
    102       0.00000           0.133517            3.63317
    103       0.00000           0.137319            3.73663
    104       0.00000           0.140083            3.81186
    105       0.00000           0.149926            4.07970
    106       0.00000           0.153301            4.17153
    107       0.00000           0.159803            4.34847
    108       0.00000           0.165588            4.50587
    109       0.00000           0.167871            4.56801
    110       0.00000           0.171064            4.65489
    111       0.00000           0.178484            4.85679
    112       0.00000           0.180359            4.90782
    113       0.00000           0.184975            5.03343
    114       0.00000           0.187410            5.09968
    115       0.00000           0.192593            5.24073
    116       0.00000           0.199064            5.41681
    117       0.00000           0.201763            5.49024
    118       0.00000           0.208272            5.66737
    119       0.00000           0.211151            5.74572
    120       0.00000           0.215179            5.85531
    121       0.00000           0.217399            5.91572
    122       0.00000           0.221244            6.02034
    123       0.00000           0.234355            6.37713
    124       0.00000           0.239587            6.51951
    125       0.00000           0.244457            6.65200
    126       0.00000           0.246057            6.69557
    127       0.00000           0.255382            6.94930
    128       0.00000           0.260490            7.08830
    129       0.00000           0.268290            7.30053

  Highest occupied state (VBM) at    -10.19755762 eV
  | Occupation number:      2.00000000

  Lowest unoccupied state (CBM) at    -4.45044065 eV
  | Occupation number:      0.00000000

  Overall HOMO-LUMO gap:      5.74711697 eV.
  Calculating total energy contributions from superposition of free atom densities.

  Total energy components:
  | Sum of eigenvalues            :        -437.91080780 Ha      -11916.15936770 eV
  | XC energy correction          :         -98.82009934 Ha       -2689.03171938 eV
  | XC potential correction       :         127.02102763 Ha        3456.41802237 eV
  | Free-atom electrostatic energy:        -333.58635325 Ha       -9077.34652225 eV
  | Hartree energy correction     :           0.00000000 Ha           0.00000000 eV
  | MBD@rsSCS energy              :           0.00000000 Ha           0.00000000 eV
  | Entropy correction            :          -0.00000000 Ha          -0.00000000 eV
  | ---------------------------
  | Total energy                  :        -743.29623276 Ha      -20226.11958697 eV
  | Total energy, T -> 0          :        -743.29623276 Ha      -20226.11958697 eV  <-- do not rely on this value for anything but (periodic) metals
  | Electronic free energy        :        -743.29623276 Ha      -20226.11958697 eV

  Derived energy quantities:
  | Kinetic energy                :         735.15670094 Ha       20004.63165704 eV
  | Electrostatic energy          :       -1379.63283436 Ha      -37541.71952462 eV
  | Energy correction for multipole
  | error in Hartree potential    :           0.00000000 Ha           0.00000000 eV
  | Sum of eigenvalues per atom                           :        -372.37998024 eV
  | Total energy (T->0) per atom                          :        -632.06623709 eV  <-- do not rely on this value for anything but (periodic) metals
  | Electronic free energy per atom                       :        -632.06623709 eV
  Initialize hartree_potential_storage
  Max. number of atoms included in rho_multipole:           32

  End scf initialization - timings             :  max(cpu_time)    wall_clock(cpu1)
  | Time for scf. initialization               :        1.888 s           1.888 s
  | Boundary condition initialization          :        0.000 s           0.000 s
  | Integration                                :        1.124 s           1.120 s
  | Solution of K.-S. eqns.                    :        0.076 s           0.074 s
  | Grid partitioning                          :        0.324 s           0.324 s
  | Preloading free-atom quantities on grid    :        0.028 s           0.027 s
  | Free-atom superposition energy             :        0.044 s           0.040 s
  | Total energy evaluation                    :        0.004 s           0.001 s
------------------------------------------------------------

------------------------------------------------------------
          Begin self-consistency iteration #    1

  Date     :  20170309, Time     :  181343.122
------------------------------------------------------------
  Evaluating new KS density.
  Integration grid: deviation in total charge (<rho> - N_e) =   5.684342E-14
  Pulay mixing of updated and previous charge densities.

  Evaluating partitioned Hartree potential by multipole expansion.
  | Analytical far-field extrapolation by fixed multipoles:
  | Hartree multipole sum: apparent total charge =   0.690572E-05
  Summing up the Hartree potential.
  Time summed over all CPUs for potential: real work        9.571 s, elapsed        9.857 s
  | RMS charge density error from multipole expansion :   0.106557E-01

  Integrating Hamiltonian matrix: batch-based integration.
  Time summed over all CPUs for integration: real work       21.220 s, elapsed       21.915 s

  Updating Kohn-Sham eigenvalues, eigenvectors, occupation numbers, and Fermi level.
  Solving generalized eigenproblem
  Solving real symmetric generalised eigenvalue problem by standard ScaLAPACK.
  Using Cholesky factor for transformation
  Using 2-stage real ELPA solver
  K-Point:    1, Trafo times: 1-stage=     0.021 s, 2-stage=     0.019 s ==> Using 2-stage solver
  Determining occupation numbers for Kohn-Sham eigenstates.
  | Chemical potential (Fermi level) in eV                 : -.19644820E+01
  | Error in electron count due to remaining E_F inaccuracy: 0.00000000E+00
  | Maximum occupation number of highest empty state:  0.00E+00

  Writing Kohn-Sham eigenvalues.

  State    Occupation    Eigenvalue [Ha]    Eigenvalue [eV]
      1       2.00000         -18.631753         -506.99578
      2       2.00000         -18.621850         -506.72631
      3       2.00000         -18.606025         -506.29570
      4       2.00000         -14.014209         -381.34602
      5       2.00000         -14.009097         -381.20693
      6       2.00000         -13.986032         -380.57931
      7       2.00000         -10.070848         -274.04172
      8       2.00000         -10.068568         -273.97966
      9       2.00000         -10.045486         -273.35159
     10       2.00000          -9.982223         -271.63011
     11       2.00000          -9.962070         -271.08172
     12       2.00000          -9.880982         -268.87519
     13       2.00000          -9.863138         -268.38963
     14       2.00000          -9.854518         -268.15508
     15       2.00000          -9.832323         -267.55112
     16       2.00000          -0.980618          -26.68397
     17       2.00000          -0.969667          -26.38597
     18       2.00000          -0.952661          -25.92322
     19       2.00000          -0.890696          -24.23707
     20       2.00000          -0.876695          -23.85609
     21       2.00000          -0.855180          -23.27062
     22       2.00000          -0.750601          -20.42488
     23       2.00000          -0.727438          -19.79461
     24       2.00000          -0.710610          -19.33668
     25       2.00000          -0.672604          -18.30248
     26       2.00000          -0.641078          -17.44462
     27       2.00000          -0.611694          -16.64505
     28       2.00000          -0.581418          -15.82118
     29       2.00000          -0.575826          -15.66903
     30       2.00000          -0.555701          -15.12138
     31       2.00000          -0.532355          -14.48611
     32       2.00000          -0.505562          -13.75704
     33       2.00000          -0.483771          -13.16408
     34       2.00000          -0.463529          -12.61327
     35       2.00000          -0.455996          -12.40827
     36       2.00000          -0.441183          -12.00519
     37       2.00000          -0.435955          -11.86293
     38       2.00000          -0.422977          -11.50980
     39       2.00000          -0.416846          -11.34295
     40       2.00000          -0.402898          -10.96340
     41       2.00000          -0.399332          -10.86638
     42       2.00000          -0.394298          -10.72941
     43       2.00000          -0.391267          -10.64692
     44       2.00000          -0.383014          -10.42233
     45       2.00000          -0.378418          -10.29728
     46       2.00000          -0.371480          -10.10849
     47       2.00000          -0.367351           -9.99613
     48       2.00000          -0.363531           -9.89217
     49       2.00000          -0.356868           -9.71087
     50       2.00000          -0.349875           -9.52059
     51       2.00000          -0.347074           -9.44437
     52       2.00000          -0.331485           -9.02016
     53       2.00000          -0.260510           -7.08884
     54       2.00000          -0.258522           -7.03474
     55       2.00000          -0.227984           -6.20375
     56       2.00000          -0.224181           -6.10027
     57       2.00000          -0.218703           -5.95121
     58       2.00000          -0.204060           -5.55277
     59       0.00000          -0.061684           -1.67851
     60       0.00000          -0.058770           -1.59921
     61       0.00000          -0.045336           -1.23366
     62       0.00000          -0.034982           -0.95191
     63       0.00000          -0.026736           -0.72751
     64       0.00000          -0.015153           -0.41235
     65       0.00000          -0.005060           -0.13770
     66       0.00000          -0.001975           -0.05374
     67       0.00000           0.007678            0.20893
     68       0.00000           0.015086            0.41052
     69       0.00000           0.017844            0.48557
     70       0.00000           0.025280            0.68789
     71       0.00000           0.029132            0.79272
     72       0.00000           0.036006            0.97979
     73       0.00000           0.040839            1.11128
     74       0.00000           0.047018            1.27943
     75       0.00000           0.050151            1.36467
     76       0.00000           0.053552            1.45723
     77       0.00000           0.058627            1.59532
     78       0.00000           0.062962            1.71328
     79       0.00000           0.071766            1.95284
     80       0.00000           0.080852            2.20009
     81       0.00000           0.084860            2.30915
     82       0.00000           0.089962            2.44799
     83       0.00000           0.093180            2.53555
     84       0.00000           0.103888            2.82693
     85       0.00000           0.104460            2.84249
     86       0.00000           0.111780            3.04169
     87       0.00000           0.115400            3.14019
     88       0.00000           0.122069            3.32167
     89       0.00000           0.126010            3.42891
     90       0.00000           0.126359            3.43841
     91       0.00000           0.136292            3.70869
     92       0.00000           0.143072            3.89318
     93       0.00000           0.144588            3.93445
     94       0.00000           0.153094            4.16590
     95       0.00000           0.162361            4.41807
     96       0.00000           0.163939            4.46102
     97       0.00000           0.168534            4.58605
     98       0.00000           0.176362            4.79905
     99       0.00000           0.176870            4.81289
    100       0.00000           0.182478            4.96548
    101       0.00000           0.184694            5.02579
    102       0.00000           0.190905            5.19479
    103       0.00000           0.196962            5.35960
    104       0.00000           0.203617            5.54069
    105       0.00000           0.204995            5.57821
    106       0.00000           0.211642            5.75906
    107       0.00000           0.216532            5.89214
    108       0.00000           0.221470            6.02651
    109       0.00000           0.225557            6.13772
    110       0.00000           0.228224            6.21029
    111       0.00000           0.234271            6.37484
    112       0.00000           0.235780            6.41589
    113       0.00000           0.241006            6.55810
    114       0.00000           0.244823            6.66198
    115       0.00000           0.251247            6.83677
    116       0.00000           0.254047            6.91296
    117       0.00000           0.260153            7.07912
    118       0.00000           0.266116            7.24139
    119       0.00000           0.269188            7.32499
    120       0.00000           0.283981            7.72751
    121       0.00000           0.288553            7.85193
    122       0.00000           0.289927            7.88933
    123       0.00000           0.294183            8.00512
    124       0.00000           0.298679            8.12748
    125       0.00000           0.303568            8.26052
    126       0.00000           0.310300            8.44370
    127       0.00000           0.314619            8.56121
    128       0.00000           0.322075            8.76410
    129       0.00000           0.329991            8.97952

  Highest occupied state (VBM) at     -5.55276670 eV
  | Occupation number:      2.00000000

  Lowest unoccupied state (CBM) at    -1.67850654 eV
  | Occupation number:      0.00000000

  Overall HOMO-LUMO gap:      3.87426016 eV.

  Total energy components:
  | Sum of eigenvalues            :        -418.34126032 Ha      -11383.64488690 eV
  | XC energy correction          :        -100.75827642 Ha       -2741.77220115 eV
  | XC potential correction       :         129.53493471 Ha        3524.82491467 eV
  | Free-atom electrostatic energy:        -333.58635325 Ha       -9077.34652225 eV
  | Hartree energy correction     :         -19.57621269 Ha        -532.69585061 eV
  | MBD@rsSCS energy              :           0.00000000 Ha           0.00000000 eV
  | Entropy correction            :          -0.00000000 Ha          -0.00000000 eV
  | ---------------------------
  | Total energy                  :        -742.72716797 Ha      -20210.63454625 eV
  | Total energy, T -> 0          :        -742.72716797 Ha      -20210.63454625 eV  <-- do not rely on this value for anything but (periodic) metals
  | Electronic free energy        :        -742.72716797 Ha      -20210.63454625 eV

  Derived energy quantities:
  | Kinetic energy                :         744.05446899 Ha       20246.75224476 eV
  | Electrostatic energy          :       -1386.02336055 Ha      -37715.61458986 eV
  | Energy correction for multipole
  | error in Hartree potential    :          -0.04064189 Ha          -1.10592219 eV
  | Sum of eigenvalues per atom                           :        -355.73890272 eV
  | Total energy (T->0) per atom                          :        -631.58232957 eV  <-- do not rely on this value for anything but (periodic) metals
  | Electronic free energy per atom                       :        -631.58232957 eV

  Self-consistency convergence accuracy:
  | Change of charge density      :  0.9026E+00
  | Change of sum of eigenvalues  :  0.5325E+03 eV
  | Change of total energy        :  0.1549E+02 eV

  End self-consistency iteration #     1       :  max(cpu_time)    wall_clock(cpu1)
  | Time for this iteration                    :        1.532 s           1.531 s
[...]
   Multipole                     :  0.255011E+00 -0.531221E+00  0.222103E+00
   Pulay + GGA                   :  0.451986E+01 -0.114855E+02  0.502633E+01
   MBD@rsSCS                     :  0.259394E-02 -0.149094E-01  0.133193E-01
   ----------------------------------------------------------------
   Total forces(  20)            : -0.861312E-03 -0.166585E-01  0.149913E-01
  atom #   21
   Hellmann-Feynman              : -0.266691E-01 -0.282255E-01 -0.209514E-01
   Ionic forces                  :  0.000000E+00  0.000000E+00  0.000000E+00
   Multipole                     : -0.113056E-01  0.401469E-01 -0.178573E-01
   Pulay + GGA                   :  0.410421E-01 -0.761393E-03  0.335654E-01
   MBD@rsSCS                     :  0.496249E-02 -0.237348E-02 -0.418931E-02
   ----------------------------------------------------------------
   Total forces(  21)            :  0.802992E-02  0.878657E-02 -0.943264E-02
  atom #   22
   Hellmann-Feynman              :  0.499443E-01  0.575770E-02  0.258209E-01
   Ionic forces                  :  0.000000E+00  0.000000E+00  0.000000E+00
   Multipole                     : -0.249841E-02  0.246662E-01 -0.469555E-02
   Pulay + GGA                   : -0.504020E-01 -0.196090E-01 -0.185899E-01
   MBD@rsSCS                     :  0.605318E-02  0.710610E-03  0.139934E-02
   ----------------------------------------------------------------
   Total forces(  22)            :  0.309706E-02  0.115255E-01  0.393471E-02
  atom #   23
   Hellmann-Feynman              : -0.455485E+00  0.915709E+00  0.561513E+00
   Ionic forces                  :  0.000000E+00  0.000000E+00  0.000000E+00
   Multipole                     :  0.237486E-01 -0.229075E+00 -0.200303E+00
   Pulay + GGA                   :  0.432091E+00 -0.676579E+00 -0.364037E+00
   MBD@rsSCS                     :  0.552887E-02 -0.104998E-01 -0.539550E-02
   ----------------------------------------------------------------
   Total forces(  23)            :  0.588387E-02 -0.444846E-03 -0.822303E-02
  atom #   24
   Hellmann-Feynman              :  0.319818E-01 -0.510140E-01 -0.452161E-01
   Ionic forces                  :  0.000000E+00  0.000000E+00  0.000000E+00
   Multipole                     :  0.457705E-02  0.170122E-02  0.394074E-01
   Pulay + GGA                   : -0.359337E-01  0.475941E-01 -0.239265E-02
   MBD@rsSCS                     :  0.409947E-02 -0.753341E-02 -0.635306E-02
   ----------------------------------------------------------------
   Total forces(  24)            :  0.472457E-02 -0.925208E-02 -0.145544E-01
  atom #   25
   Hellmann-Feynman              : -0.310731E-01 -0.604473E-02 -0.413530E-01
   Ionic forces                  :  0.000000E+00  0.000000E+00  0.000000E+00
   Multipole                     : -0.275838E-01  0.125157E-02  0.593026E-02
   Pulay + GGA                   :  0.595467E-01 -0.150941E-02  0.328596E-01
   MBD@rsSCS                     :  0.418026E-02 -0.926502E-02 -0.700096E-02
   ----------------------------------------------------------------
   Total forces(  25)            :  0.507014E-02 -0.155676E-01 -0.956410E-02
  atom #   26
   Hellmann-Feynman              :  0.118699E-01 -0.100169E-01 -0.548164E-01
   Ionic forces                  :  0.000000E+00  0.000000E+00  0.000000E+00
   Multipole                     :  0.174165E-01  0.327802E-01  0.394640E-02
   Pulay + GGA                   : -0.322437E-01 -0.190687E-01  0.502121E-01
   MBD@rsSCS                     :  0.357091E-02 -0.108366E-01 -0.525483E-02
   ----------------------------------------------------------------
   Total forces(  26)            :  0.613651E-03 -0.714188E-02 -0.591275E-02
  atom #   27
   Hellmann-Feynman              : -0.486053E+00  0.264817E+00  0.111402E+01
   Ionic forces                  :  0.000000E+00  0.000000E+00  0.000000E+00
   Multipole                     : -0.152192E+00  0.135247E+00  0.689197E-01
   Pulay + GGA                   :  0.638632E+00 -0.385322E+00 -0.119496E+01
   MBD@rsSCS                     : -0.150842E-01 -0.103171E-01  0.236338E-01
   ----------------------------------------------------------------
   Total forces(  27)            : -0.146975E-01  0.442536E-02  0.116187E-01
  atom #   28
   Hellmann-Feynman              :  0.107296E+01  0.970140E+00 -0.192392E+01
   Ionic forces                  :  0.000000E+00  0.000000E+00  0.000000E+00
   Multipole                     : -0.750020E-01 -0.545022E-01  0.157408E+00
   Pulay + GGA                   : -0.996069E+00 -0.902391E+00  0.175274E+01
   MBD@rsSCS                     : -0.692519E-02 -0.214416E-02  0.104713E-01
   ----------------------------------------------------------------
   Total forces(  28)            : -0.503558E-02  0.111029E-01 -0.330060E-02
  atom #   29
   Hellmann-Feynman              : -0.305233E-01  0.347937E-01 -0.265035E-02
   Ionic forces                  :  0.000000E+00  0.000000E+00  0.000000E+00
   Multipole                     :  0.254926E-01  0.182185E-01 -0.384316E-01
   Pulay + GGA                   :  0.765223E-02 -0.530168E-01  0.331353E-01
   MBD@rsSCS                     :  0.238819E-03 -0.135482E-01  0.107633E-01
   ----------------------------------------------------------------
   Total forces(  29)            :  0.286035E-02 -0.135529E-01  0.281668E-02
  atom #   30
   Hellmann-Feynman              : -0.473212E-01 -0.487950E-03  0.250732E-01
   Ionic forces                  :  0.000000E+00  0.000000E+00  0.000000E+00
   Multipole                     : -0.182316E-01  0.142319E-02 -0.290656E-01
   Pulay + GGA                   :  0.667479E-01 -0.227390E-02  0.247298E-02
   MBD@rsSCS                     : -0.420328E-02 -0.193188E-02  0.516048E-02
   ----------------------------------------------------------------
   Total forces(  30)            : -0.300810E-02 -0.327054E-02  0.364104E-02
  atom #   31
   Hellmann-Feynman              : -0.394766E-01 -0.241398E-01  0.564051E-01
   Ionic forces                  :  0.000000E+00  0.000000E+00  0.000000E+00
   Multipole                     :  0.359970E-01 -0.280559E-01 -0.248128E-01
   Pulay + GGA                   :  0.168758E-02  0.539450E-01 -0.314328E-01
   MBD@rsSCS                     : -0.231456E-02 -0.418154E-02  0.517367E-02
   ----------------------------------------------------------------
   Total forces(  31)            : -0.410658E-02 -0.243226E-02  0.533315E-02
  atom #   32
   Hellmann-Feynman              : -0.244020E-01  0.180983E-01  0.474139E-01
   Ionic forces                  :  0.000000E+00  0.000000E+00  0.000000E+00
   Multipole                     :  0.240796E-01  0.239825E-01  0.815690E-02
   Pulay + GGA                   :  0.321740E-02 -0.422095E-01 -0.549468E-01
   MBD@rsSCS                     : -0.361439E-02 -0.867904E-03  0.610671E-02
   ----------------------------------------------------------------
   Total forces(  32)            : -0.719378E-03 -0.996572E-03  0.673071E-02

  Removing unitary transformations (pure translations, rotations) from forces on atoms.
  Atomic forces before filtering:
  | Net force on center of mass :  -0.133143E-03 -0.834135E-03  0.562127E-03 eV/A
  | Net torque on center of mass:  -0.176999E-03 -0.784323E-03  0.704876E-03 eV
  Atomic forces after filtering:
  | Net force on center of mass :  -0.266564E-16  0.557519E-17 -0.278760E-17 eV/A
  | Net torque on center of mass:  -0.346656E-16 -0.191767E-16  0.387222E-16 eV

  Energy and forces in a compact form:
  | Total energy uncorrected      :         -0.202092040476553E+05 eV
  | Total energy corrected        :         -0.202092040476553E+05 eV  <-- do not rely on this value for anything but (periodic) metals
  | Electronic free energy        :         -0.202092040476553E+05 eV
  Total atomic forces (unitary forces cleaned) [eV/Ang]:
  |   1         -0.183429044502339E-01          0.353610014866773E-02          0.109352680174664E-01
  |   2         -0.236405859838194E-01          0.113672148061058E-01          0.367337596020940E-02
  |   3         -0.212729475794953E-02         -0.538655908598286E-02         -0.431421785537081E-02
  |   4         -0.158597244483642E-01          0.433675005892549E-02          0.240209655967329E-01
  |   5         -0.635368285733406E-02          0.456597143720001E-02          0.112895070723982E-01
  |   6          0.652146529730404E-02         -0.143776300587524E-02          0.259277868683966E-02
  |   7         -0.105505744396685E-01         -0.177943446947443E-02         -0.837952450621740E-02
  |   8          0.115540882083211E-01          0.166395756998325E-02         -0.147869806206865E-01
  |   9          0.223822788740874E-01          0.634667723284237E-02         -0.378273187099978E-02
  |  10          0.397166621822301E-02         -0.639195358385622E-02          0.224674835634295E-01
  |  11         -0.160520139894687E-01         -0.261477964336529E-03          0.372330004017424E-02
  |  12          0.150756952670180E-01          0.217719007945091E-02         -0.923296151427873E-02
  |  13         -0.448349325148699E-02          0.442879569030920E-02         -0.674335851750940E-02
  |  14          0.365905268581269E-02          0.443617842284127E-02         -0.185089715176238E-01
  |  15          0.136238231178383E-01          0.964656346428795E-03         -0.102080327295156E-01
  |  16          0.117442865888021E-01          0.560948924120912E-02         -0.117013997409136E-01
  |  17          0.314125045145536E-02         -0.509674196600292E-02          0.702193597341730E-02
  |  18         -0.517642652299395E-02         -0.333111958875696E-02         -0.518207483199263E-02
  |  19          0.895663452962555E-02          0.736591746465057E-02          0.922926068185248E-02
  |  20         -0.851894717839474E-03         -0.166262641437306E-01          0.149815745995711E-01
  |  21          0.804222664581104E-02          0.881076060326605E-02         -0.945092065600641E-02
  |  22          0.310386002468166E-02          0.115631161783693E-01          0.393056680065524E-02
  |  23          0.590587673247851E-02         -0.411857827673428E-03         -0.822976771237236E-02
  |  24          0.474816356066056E-02         -0.921636749884989E-02         -0.145578207300250E-01
  |  25          0.509639371670093E-02         -0.155396226477718E-01         -0.957575053818246E-02
  |  26          0.638147031527817E-03         -0.710627964535984E-02         -0.591612644928470E-02
  |  27         -0.146967612369847E-01          0.445056163750599E-02          0.115995997206209E-01
  |  28         -0.503953268606443E-02          0.111253029255538E-01         -0.332362218896397E-02
  |  29          0.285932257397837E-02         -0.135291396345583E-01          0.279567079783140E-02
  |  30         -0.301070831609756E-02         -0.325359182967309E-02          0.361207089749958E-02
  |  31         -0.410724683690032E-02         -0.240792539307652E-02          0.531281071626490E-02
  |  32         -0.731387029120714E-03         -0.972541558331103E-03          0.670809285497988E-02

  ------------------------------------ 
  Start decomposition of the XC Energy 
  ------------------------------------ 
  Hartree-Fock part   :          0.000000000 Ha              0.000000000 eV
  ------------------------------------ 
  X Energy            :        -96.989208166 Ha          -2639.210635750 eV
  C Energy GGA        :         -3.869415899 Ha           -105.292163830 eV
  Total XC Energy     :       -100.858624065 Ha          -2744.502799580 eV
  LDA X and C from self-consistent density 
  X Energy LDA        :        -88.006186022 Ha          -2394.770166230 eV
  C Energy LDA        :         -7.532002066 Ha           -204.956204278 eV
  ------------------------------------ 
  End decomposition of the XC Energy 
  ------------------------------------ 
   
  ESP charge fitting starts.
  | Calculation :  00000001  of  00000001
  | Full density
  Computing multipole expansion for total density.
  Generating points for esp charges.
  Partitioning the integration grid into batches with parallel hashing+maxmin method.
  | Number of batches:     3851
  | Maximal batch size:     192
  | Minimal batch size:      54
  | Average batch size:     126.306
  | Standard deviation of batch sizes:      18.011

  Integration load balanced across    32 MPI tasks.
  Work distribution over tasks is as follows:
  Initializing partition tables, free-atom densities, potentials, etc. across the integration grid (initialize_grid_storage).
  | Original list of interatomic distances with          32 x         32 entries is created.
  | Net number of integration points:   486403
  | of which are non-zero points    :   486403
  Summing up potential from multipole expanded  density.
  Summing up the Hartree potential.
  Time summed over all CPUs for potential: real work        6.336 s, elapsed        6.538 s
  Fitting esp charges to potential.
  |
  | ESP charges fitted to the electrostatic potential :
  |
  | Atom         1: C, ESP charge:      0.41479455
  |
  | Atom         2: C, ESP charge:     -0.50019611
  |
  | Atom         3: O, ESP charge:      0.51226362
  |
  | Atom         4: H, ESP charge:     -0.07479764
  |
  | Atom         5: H, ESP charge:     -0.15478176
  |
  | Atom         6: H, ESP charge:     -0.15333146
  |
  | Atom         7: N, ESP charge:      0.39876798
  |
  | Atom         8: C, ESP charge:     -0.26971878
  |
  | Atom         9: C, ESP charge:     -0.22892512
  |
  | Atom        10: O, ESP charge:      0.50532078
  |
  | Atom        11: H, ESP charge:     -0.25554985
  |
  | Atom        12: H, ESP charge:     -0.02818988
  |
  | Atom        13: C, ESP charge:      0.32655310
  |
  | Atom        14: H, ESP charge:     -0.11950322
  |
  | Atom        15: H, ESP charge:     -0.07572974
  |
  | Atom        16: H, ESP charge:     -0.09477407
  |
  | Atom        17: N, ESP charge:     -0.09423551
  |
  | Atom        18: C, ESP charge:     -0.29554801
  |
  | Atom        19: C, ESP charge:     -0.13244987
  |
  | Atom        20: O, ESP charge:      0.45471928
  |
  | Atom        21: H, ESP charge:     -0.02198994
  |
  | Atom        22: H, ESP charge:     -0.02930903
  |
  | Atom        23: C, ESP charge:      0.27964685
  |
  | Atom        24: H, ESP charge:     -0.10146865
  |
  | Atom        25: H, ESP charge:     -0.07000925
  |
  | Atom        26: H, ESP charge:     -0.04104746
  |
  | Atom        27: N, ESP charge:     -0.08294410
  |
  | Atom        28: C, ESP charge:      0.45627268
  |
  | Atom        29: H, ESP charge:     -0.04436499
  |
  | Atom        30: H, ESP charge:     -0.14835341
  |
  | Atom        31: H, ESP charge:     -0.18137829
  |
  | Atom        32: H, ESP charge:     -0.14974270

  RRMS:       0.00600957

  Done.

------------------------------------------------------------------------------
  Final output of selected total energy values:

  The following output summarizes some interesting total energy values
  at the end of a run (AFTER all relaxation, molecular dynamics, etc.).

  | Total energy of the DFT / Hartree-Fock s.c.f. calculation      :         -20209.204047655 eV
  | Final zero-broadening corrected energy (caution - metals only) :         -20209.204047655 eV
  | For reference only, the value of 1 Hartree used in FHI-aims is :             27.211384500 eV

  Before relying on these values, please be sure to understand exactly which
  total energy value is referred to by a given number. Different objects may
  all carry the same name 'total energy'. Definitions:

  Total energy of the DFT / Hartree-Fock s.c.f. calculation:
  | Note that this energy does not include ANY quantities calculated after the
  | s.c.f. cycle, in particular not ANY RPA, MP2, etc. many-body perturbation terms.

  Final zero-broadening corrected energy:
  | For metallic systems only, a broadening of the occupation numbers at the Fermi
  | level can be extrapolated back to zero broadening by an electron-gas inspired
  | formula. For all systems that are not real metals, this value can be
  | meaningless and should be avoided.

------------------------------------------------------------------------------
  Methods described in the following list of references were used in this FHI-aims run.
  If you publish the results, please make sure to cite these reference if they apply.
  FHI-aims is an academic code, and for our developers (often, Ph.D. students
  and postdocs), scientific credit in the community is essential.
  Thank you for helping us!

  For any use of FHI-aims, please cite:

    Volker Blum, Ralf Gehrke, Felix Hanke, Paula Havu, Ville Havu,
    Xinguo Ren, Karsten Reuter, and Matthias Scheffler
    'Ab initio molecular simulations with numeric atom-centered orbitals'
    Computer Physics Communications 180, 2175-2196 (2009)
    http://dx.doi.org/10.1016/j.cpc.2009.06.022


  The scalable eigensolver library ELPA was used in your run.
  ELPA is essential especially for large systems on hundreds or thousands of CPUs.
  For ELPA, please cite:

    Andreas Marek, Volker Blum, Rainer Johanni, Ville Havu, Bruno Lang,
    Thomas Auckenthaler, Alexander Heinecke, Hans-Joachim Bungartz, and Hermann Lederer,
    'The ELPA Library - Scalable Parallel Eigenvalue Solutions
    for Electronic Structure Theory and Computational Science'
    The Journal of Physics: Condensed Matter 26, 213201 (2014).
    http://dx.doi.org/10.1088/0953-8984/26/21/213201


  For ELPA's efficient two-stage tridiagonalization used in your run, please cite:

    T. Auckenthaler, V. Blum, H.-J. Bungartz, T. Huckle, R. Johanni, L. Kraemer,
    B. Lang, H. Lederer, and P. R. Willems,
    'Parallel solution of partial symmetric eigenvalue problems'
    'from  electronic structure calculations'
    Parallel Computing 37, 783-794 (2011).
    http://dx.doi.org/10.1016/j.parco.2011.05.002


  For the real-space grid partitioning and parallelization used in this calculation, please cite:

    Ville Havu, Volker Blum, Paula Havu, and Matthias Scheffler,
    'Efficient O(N) integration for all-electron electronic structure calculation'
    'using numerically tabulated basis functions'
    Journal of Computational Physics 228, 8367-8379 (2009).
    http://dx.doi.org/10.1016/j.jcp.2009.08.008

  Of course, there are many other important community references, e.g., those cited in the
  above references. Our list is limited to references that describe implementations in the
  FHI-aims code. The reason is purely practical (length of this list) - please credit others as well.

------------------------------------------------------------
          Leaving FHI-aims.
          Date     :  20170309, Time     :  181413.791

          Computational steps:
          | Number of self-consistency cycles          :           14

          Detailed time accounting                     :  max(cpu_time)    wall_clock(cpu1)
          | Total time                                 :       33.382 s          33.578 s
          | Preparation time                           :        0.240 s           0.235 s
          | Grid partitioning                          :        0.324 s           0.324 s
          | Preloading free-atom quantities on grid    :        0.028 s           0.027 s
          | Free-atom superposition energy             :        0.044 s           0.040 s
          | Total time for integrations                :       10.953 s          10.934 s
          | Total time for solution of K.-S. equations :        0.532 s           0.502 s
          | Total time for density & force components  :        9.837 s           9.805 s
          | Total time for mixing                      :        0.132 s           0.104 s
          | Total time for Hartree multipole update    :        0.084 s           0.061 s
          | Total time for Hartree multipole sum       :        6.384 s           6.354 s
          | Total time for total energy evaluation     :        0.024 s           0.022 s

          Have a nice day.
------------------------------------------------------------
