  MPI-parallelism will be employed.
------------------------------------------------------------
          Invoking FHI-aims ...
          Version 150427
          Git rev.: 9dd23e0 BL: Update Version stamp
          Compiled on 2015/11/03 at 22:05:20 on host eos03.

          When using FHI-aims, please cite the following reference:

          Volker Blum, Ralf Gehrke, Felix Hanke, Paula Havu,
          Ville Havu, Xinguo Ren, Karsten Reuter, and Matthias Scheffler,
          'Ab Initio Molecular Simulations with Numeric Atom-Centered Orbitals: FHI-aims',
          Computer Physics Communications 180, 2175-2196 (2009)

          For any questions about FHI-aims, please visit the aimsclub website
          with its forums and wiki. Contributions to both the forums and the
          wiki are warmly encouraged - they are for you, and everyone is welcome there.

------------------------------------------------------------

  Date     :  20170309, Time     :  183140.237
  Time zero on CPU 1             :   0.316019000000000E+00  s.
  Internal wall clock time zero  :           258316300.237  s.

  Using       32 parallel tasks.
  Task        0 on host eos399 reporting.
  Task        1 on host eos399 reporting.
  Task        2 on host eos399 reporting.
  Task        3 on host eos399 reporting.
  Task        4 on host eos399 reporting.
  Task        5 on host eos399 reporting.
  Task        6 on host eos399 reporting.
  Task        7 on host eos399 reporting.
  Task        8 on host eos399 reporting.
  Task        9 on host eos399 reporting.
  Task       10 on host eos399 reporting.
  Task       11 on host eos399 reporting.
  Task       12 on host eos399 reporting.
  Task       13 on host eos399 reporting.
  Task       14 on host eos399 reporting.
  Task       15 on host eos399 reporting.
  Task       16 on host eos399 reporting.
  Task       17 on host eos399 reporting.
  Task       18 on host eos399 reporting.
  Task       19 on host eos399 reporting.
  Task       20 on host eos399 reporting.
  Task       21 on host eos399 reporting.
  Task       22 on host eos399 reporting.
  Task       23 on host eos399 reporting.
  Task       24 on host eos399 reporting.
  Task       25 on host eos399 reporting.
  Task       26 on host eos399 reporting.
  Task       27 on host eos399 reporting.
  Task       28 on host eos399 reporting.
  Task       29 on host eos399 reporting.
  Task       30 on host eos399 reporting.
  Task       31 on host eos399 reporting.

  Performing system and environment tests:
  | Environment variable OMP_NUM_THREADS correctly set to 1.
  | Stacksize not measured: no C compiler
  | Checking for scalapack...
  | Testing pdtran()...
  | All pdtran() tests passed.

  Obtaining array dimensions for all initial allocations:
  
  -----------------------------------------------------------------------
  Parsing control.in (first pass over file, find array dimensions only).
  The contents of control.in will be repeated verbatim below
  unless switched off by setting 'verbatim_writeout .false.' .
  in the first line of control.in .
  -----------------------------------------------------------------------
  
  #########################################################################################
  #
  # Input for System
  #
  #########################################################################################
  #
  #
  #  Physical model
  #
    xc                 pbe
    many_body_dispersion
    spin               none
    charge             0.
  #
  #  SCF convergence
  #
    occupation_type    gaussian 0.05
    mixer              pulay
      n_max_pulay        10
      charge_mix_param   0.5
    sc_accuracy_rho    1E-4
    sc_accuracy_eev    1E-2
    sc_accuracy_etot   1E-5
    sc_accuracy_forces 1E-4
    sc_iter_limit      1000
  #
  #  ESP charge
  #
    output esp
    esp equal_grid_n 80 80 80
  #
  #
  ################################################################################
  #
  #  FHI-aims code project
  # Volker Blum, Fritz Haber Institute Berlin, 2009
  #
  #  Suggested "tight" defaults for H atom (to be pasted into control.in file)
  #
  ################################################################################
    species        H
  #     global species definitions
      nucleus             1
      mass                1.00794
  #
      l_hartree           6
  #
      cut_pot             4.0  2.0  1.0
      basis_dep_cutoff    1e-4
  #
      radial_base         24 7.0
      radial_multiplier   2
      angular_grids       specified
        division   0.1930   50
        division   0.3175  110
        division   0.4293  194
        division   0.5066  302
        division   0.5626  434
  #      division   0.5922  590
  #      division   0.6227  974
  #      division   0.6868 1202
  #      outer_grid  770
        outer_grid  434
  ################################################################################
  #
  #  Definition of "minimal" basis
  #
  ################################################################################
  #     valence basis states
      valence      1  s   1.
  #     ion occupancy
      ion_occ      1  s   0.5
  ################################################################################
  #
  #  Suggested additional basis functions. For production calculations,
  #  uncomment them one after another (the most important basis functions are
  #  listed first).
  #
  #  Basis constructed for dimers: 0.5 A, 0.7 A, 1.0 A, 1.5 A, 2.5 A
  #
  ################################################################################
  #  "First tier" - improvements: -1014.90 meV to -62.69 meV
       hydro 2 s 2.1
       hydro 2 p 3.5
  #  "Second tier" - improvements: -12.89 meV to -1.83 meV
       hydro 1 s 0.85
       hydro 2 p 3.7
       hydro 2 s 1.2
       hydro 3 d 7
  #  "Third tier" - improvements: -0.25 meV to -0.12 meV
  #     hydro 4 f 11.2
  #     hydro 3 p 4.8
  #     hydro 4 d 9
  #     hydro 3 s 3.2
  ################################################################################
  #
  # For methods that use the localized form of the "resolution of identity" for
  # the two-electron Coulomb operator (RI_method LVL), particularly Hartree-Fock and
  # hybrid density functional calculations, the highest accuracy can be obtained by
  # uncommenting the line beginning with "for_aux"  below, thus adding an extra g radial
  # function to the construction of the product basis set for the expansion.
  # See Ref. New J. Phys. 17, 093020 (2015) for more information, particularly Figs. 1 and 6.
  #
  ################################################################################
  #
  # for_aux hydro 5 g 6.0
  ################################################################################
  #
  #  FHI-aims code project
  # Volker Blum, Fritz Haber Institute Berlin, 2009
  #
  #  Suggested "tight" defaults for C atom (to be pasted into control.in file)
  #
  ################################################################################
    species        C
  #     global species definitions
      nucleus             6
      mass                12.0107
  #
      l_hartree           6
  #
      cut_pot             4.0  2.0  1.0
      basis_dep_cutoff    1e-4
  #
      radial_base         34 7.0
      radial_multiplier   2
      angular_grids specified
        division   0.2187   50
        division   0.4416  110
        division   0.6335  194
        division   0.7727  302
        division   0.8772  434
  #      division   0.9334  590
  #      division   0.9924  770
  #      division   1.0230  974
  #      division   1.5020 1202
  #     outer_grid  974
        outer_grid  434
  ################################################################################
  #
  #  Definition of "minimal" basis
  #
  ################################################################################
  #     valence basis states
      valence      2  s   2.
      valence      2  p   2.
  #     ion occupancy
      ion_occ      2  s   1.
      ion_occ      2  p   1.
  ################################################################################
  #
  #  Suggested additional basis functions. For production calculations,
  #  uncomment them one after another (the most important basis functions are
  #  listed first).
  #
  #  Constructed for dimers: 1.0 A, 1.25 A, 1.5 A, 2.0 A, 3.0 A
  #
  ################################################################################
  #  "First tier" - improvements: -1214.57 meV to -155.61 meV
       hydro 2 p 1.7
       hydro 3 d 6
       hydro 2 s 4.9
  #  "Second tier" - improvements: -67.75 meV to -5.23 meV
       hydro 4 f 9.8
       hydro 3 p 5.2
       hydro 3 s 4.3
       hydro 5 g 14.4
       hydro 3 d 6.2
  #  "Third tier" - improvements: -2.43 meV to -0.60 meV
  #     hydro 2 p 5.6
  #     hydro 2 s 1.4
  #     hydro 3 d 4.9
  #     hydro 4 f 11.2
  #  "Fourth tier" - improvements: -0.39 meV to -0.18 meV
  #     hydro 2 p 2.1
  #     hydro 5 g 16.4
  #     hydro 4 d 13.2
  #     hydro 3 s 13.6
  #     hydro 4 f 17.6
  #  Further basis functions - improvements: -0.08 meV and below
  #     hydro 3 s 2
  #     hydro 3 p 6
  #     hydro 4 d 20
  ################################################################################
  #
  # For methods that use the localized form of the "resolution of identity" for
  # the two-electron Coulomb operator (RI_method LVL), particularly Hartree-Fock and
  # hybrid density functional calculations, the highest accuracy can be obtained by
  # uncommenting the line beginning with "for_aux"  below, thus adding an extra g radial
  # function to the construction of the product basis set for the expansion.
  # See Ref. New J. Phys. 17, 093020 (2015) for more information, particularly Figs. 1 and 6.
  #
  ################################################################################
  #
  # for_aux hydro 5 g 6.0
  ################################################################################
  #
  #  FHI-aims code project
  # Volker Blum, Fritz Haber Institute Berlin, 2009
  #
  #  Suggested "tight" defaults for N atom (to be pasted into control.in file)
  #
  ################################################################################
    species        N
  #     global species definitions
      nucleus             7
      mass                14.0067
  #
      l_hartree           6
  #
      cut_pot             4.0  2.0  1.0
      basis_dep_cutoff    1e-4
  #
      radial_base         35 7.0
      radial_multiplier   2
      angular_grids       specified
        division   0.1841   50
        division   0.3514  110
        division   0.5126  194
        division   0.6292  302
        division   0.6939  434
  #      division   0.7396  590
  #      division   0.7632  770
  #      division   0.8122  974
  #      division   1.1604 1202
  #      outer_grid  974
        outer_grid  434
  ################################################################################
  #
  #  Definition of "minimal" basis
  #
  ################################################################################
  #     valence basis states
      valence      2  s   2.
      valence      2  p   3.
  #     ion occupancy
      ion_occ      2  s   1.
      ion_occ      2  p   2.
  ################################################################################
  #
  #  Suggested additional basis functions. For production calculations,
  #  uncomment them one after another (the most important basis functions are
  #  listed first).
  #
  #  Constructed for dimers: 1.0 A, 1.1 A, 1.5 A, 2.0 A, 3.0 A
  #
  ################################################################################
  #  "First tier" - improvements: -1193.42 meV to -220.60 meV
       hydro 2 p 1.8
       hydro 3 d 6.8
       hydro 3 s 5.8
  #  "Second tier" - improvements: -80.21 meV to -6.86 meV
       hydro 4 f 10.8
       hydro 3 p 5.8
       hydro 1 s 0.8
       hydro 5 g 16
       hydro 3 d 4.9
  #  "Third tier" - improvements: -4.29 meV to -0.53 meV
  #     hydro 3 s 16
  #     ionic 2 p auto
  #     hydro 3 d 6.6
  #     hydro 4 f 11.6
  #  "Fourth tier" - improvements: -0.75 meV to -0.25 meV
  #     hydro 2 p 4.5
  #     hydro 2 s 2.4
  #     hydro 5 g 14.4
  #     hydro 4 d 14.4
  #     hydro 4 f 16.8
  # Further basis functions - -0.21 meV and below
  #     hydro 3 p 14.8
  #     hydro 3 s 4.4
  #     hydro 3 d 19.6
  #     hydro 5 g 12.8
  ################################################################################
  #
  # For methods that use the localized form of the "resolution of identity" for
  # the two-electron Coulomb operator (RI_method LVL), particularly Hartree-Fock and
  # hybrid density functional calculations, the highest accuracy can be obtained by
  # uncommenting the line beginning with "for_aux"  below, thus adding an extra g radial
  # function to the construction of the product basis set for the expansion.
  # See Ref. New J. Phys. 17, 093020 (2015) for more information, particularly Figs. 1 and 6.
  #
  ################################################################################
  #
  # for_aux hydro 5 g 6.0
  ################################################################################
  #
  #  FHI-aims code project
  # Volker Blum, Fritz Haber Institute Berlin, 2009
  #
  #  Suggested "tight" defaults for O atom (to be pasted into control.in file)
  #
  ################################################################################
    species        O
  #     global species definitions
      nucleus             8
      mass                15.9994
  #
      l_hartree           6
  #
      cut_pot             4.0  2.0  1.0
      basis_dep_cutoff    1e-4
  #
      radial_base         36 7.0
      radial_multiplier   2
       angular_grids specified
        division   0.1817   50
        division   0.3417  110
        division   0.4949  194
        division   0.6251  302
        division   0.8014  434
  #      division   0.8507  590
  #      division   0.8762  770
  #      division   0.9023  974
  #      division   1.2339 1202
  #      outer_grid 974
        outer_grid  434
  ################################################################################
  #
  #  Definition of "minimal" basis
  #
  ################################################################################
  #     valence basis states
      valence      2  s   2.
      valence      2  p   4.
  #     ion occupancy
      ion_occ      2  s   1.
      ion_occ      2  p   3.
  ################################################################################
  #
  #  Suggested additional basis functions. For production calculations,
  #  uncomment them one after another (the most important basis functions are
  #  listed first).
  #
  #  Constructed for dimers: 1.0 A, 1.208 A, 1.5 A, 2.0 A, 3.0 A
  #
  ################################################################################
  #  "First tier" - improvements: -699.05 meV to -159.38 meV
       hydro 2 p 1.8
       hydro 3 d 7.6
       hydro 3 s 6.4
  #  "Second tier" - improvements: -49.91 meV to -5.39 meV
       hydro 4 f 11.6
       hydro 3 p 6.2
       hydro 3 d 5.6
       hydro 5 g 17.6
       hydro 1 s 0.75
  #  "Third tier" - improvements: -2.83 meV to -0.50 meV
  #     ionic 2 p auto
  #     hydro 4 f 10.8
  #     hydro 4 d 4.7
  #     hydro 2 s 6.8
  #  "Fourth tier" - improvements: -0.40 meV to -0.12 meV
  #     hydro 3 p 5
  #     hydro 3 s 3.3
  #     hydro 5 g 15.6
  #     hydro 4 f 17.6
  #     hydro 4 d 14
  # Further basis functions - -0.08 meV and below
  #     hydro 3 s 2.1
  #     hydro 4 d 11.6
  #     hydro 3 p 16
  #     hydro 2 s 17.2
  ################################################################################
  #
  # For methods that use the localized form of the "resolution of identity" for
  # the two-electron Coulomb operator (RI_method LVL), particularly Hartree-Fock and
  # hybrid density functional calculations, the highest accuracy can be obtained by
  # uncommenting the line beginning with "for_aux"  below, thus adding an extra g radial
  # function to the construction of the product basis set for the expansion.
  # See Ref. New J. Phys. 17, 093020 (2015) for more information, particularly Figs. 1 and 6.
  #
  ################################################################################
  #
  # for_aux hydro 5 g 6.0
  
  -----------------------------------------------------------------------
  Completed first pass over input file control.in .
  -----------------------------------------------------------------------
  
  
  -----------------------------------------------------------------------
  Parsing geometry.in (first pass over file, find array dimensions only).
  The contents of geometry.in will be repeated verbatim below
  unless switched off by setting 'verbatim_writeout .false.' .
  in the first line of geometry.in .
  -----------------------------------------------------------------------
  
  #
  # This is the geometry file that corresponds to the current relaxation step.
  # If you do not want this file to be written, set the "write_restart_geometry" flag to .false.
  #
  atom       1.06149540      1.17930406      0.66375909 C
  atom       0.54116731      1.00702530      2.07755796 C
  atom       1.07444091      1.53622271      3.04699549 O
  atom       0.42136431      0.72977319     -0.10547215 H
  atom       2.06132282      0.73063255      0.60106667 H
  atom       1.17114458      2.25115327      0.45934814 H
  atom      -0.59723030      0.23964327      2.20499182 N
  atom      -1.11807365     -0.16297026      3.51661065 C
  atom      -1.43531097      1.07260142      4.40024860 C
  atom      -1.20927074      1.06496208      5.61215554 O
  atom      -0.91126927     -0.28191676      1.39471424 H
  atom      -2.09001834     -0.64132090      3.31337966 H
  atom      -0.21827820     -1.15833854      4.24735486 C
  atom       0.76219938     -0.71492815      4.45256035 H
  atom      -0.08603982     -2.06088019      3.63662562 H
  atom      -0.66956741     -1.44037291      5.20488113 H
  atom      -2.03431413      2.09590688      3.73705679 N
  atom      -2.36716799      3.42277432      4.28003484 C
  atom      -1.11978530      4.31393811      4.52982776 C
  atom      -1.04981527      5.42684855      4.00533589 O
  atom      -2.00457372      2.02962556      2.72486875 H
  atom      -2.88474690      3.94219019      3.46437794 H
  atom      -3.30736995      3.36796055      5.48886961 C
  atom      -4.22868898      2.82999123      5.22865948 H
  atom      -3.57436012      4.39214621      5.77907679 H
  atom      -2.84410973      2.86787026      6.34531027 H
  atom      -0.17994784      3.78434588      5.34967778 N
  atom       1.10859813      4.41272493      5.56314055 C
  atom      -0.32539568      2.82777274      5.67758527 H
  atom       1.35253127      4.44150630      6.63364921 H
  atom       1.05840022      5.43655016      5.17806392 H
  atom       1.90239599      3.86798103      5.03031846 H
  
  -----------------------------------------------------------------------
  Completed first pass over input file geometry.in .
  -----------------------------------------------------------------------
  

  Basic array size parameters:
  | Number of species                 :        4
  | Number of atoms                   :       32
  | Max. basis fn. angular momentum   :        4
  | Max. atomic/ionic basis occupied n:        2
  | Max. number of basis fn. types    :        2
  | Max. radial fns per species/type  :        8
  | Max. logarithmic grid size        :     1301
  | Max. radial integration grid size :       73
  | Max. angular integration grid size:      434
  | Max. angular grid division number :        8
  | Radial grid for Hartree potential :     1301
  | Number of spin channels           :        1

------------------------------------------------------------
          Reading file control.in.
------------------------------------------------------------
  XC: Using PBE gradient-corrected functionals.
  Self-consistent screening and van der Waals energy (TS, TS+SCS,MBD) module
  Spin treatment: No spin polarisation.
  Charge =   0.000000E+00: Neutral system requested explicitly.
  Occupation type: Gaussian broadening, width =   0.500000E-01 eV.
  Using pulay charge density mixing.
  Pulay mixing - number of memorized iterations:   10
  Charge density mixing - mixing parameter:     0.5000
  Convergence accuracy of self-consistent charge density:  0.1000E-03
  Convergence accuracy of sum of eigenvalues:  0.1000E-01
  Convergence accuracy of total energy:  0.1000E-04
  Convergence accuracy of forces:  0.1000E-03
  Maximum number of s.-c. iterations  :  1000
  Fitting ESP-charges to Potential. 
  | Esp charge output options: 
  | ESP Grid method: 3, cubic grid
  | Number of points in x, ,y, z:  0080 0080 0080
  |
 
  Reading configuration options for species H                   .
  | Found nuclear charge :   1.0000
  | Found atomic mass :    1.00794000000000      amu
  | Found l_max for Hartree potential  :   6
  | Found cutoff potl. onset [A], width [A], scale factor :    4.00000    2.00000    1.00000
  | Threshold for basis-dependent cutoff potential is   0.100000E-03
  | Found data for basic radial integration grid :    24 points, outermost radius =    7.000 A
  | Found multiplier for basic radial grid :   2
  | Found angular grid specification: user-specified.
  | Specified grid contains     6 separate shells.
  | Check grid settings after all constraints further below.
  | Found free-atom valence shell :  1 s   1.000
  | No ionic wave fns used. Skipping ion_occ.
  | Found hydrogenic basis function :  2 s   2.100
  | Found hydrogenic basis function :  2 p   3.500
  | Found hydrogenic basis function :  1 s   0.850
  | Found hydrogenic basis function :  2 p   3.700
  | Found hydrogenic basis function :  2 s   1.200
  | Found hydrogenic basis function :  3 d   7.000
  Species H                   : Missing cutoff potential type.
  Defaulting to exp(1/x)/(1-x)^2 type cutoff potential.
  Species H : No 'logarithmic' tag. Using default grid for free atom:
  | Default logarithmic grid data [bohr] : 0.1000E-03 0.1000E+03 0.1012E+01
  Species H : On-site basis accuracy parameter (for Gram-Schmidt orthonormalisation) not specified.
  Using default value basis_acc =  0.1000000E-03.
  Species H                   : Using default innermost maximum threshold i_radial=  2 for radial functions.
  Species H                   : Default cutoff onset for free atom density etc. : 0.40000000E+01 AA.
  Species H                   : Basic radial grid will be enhanced according to radial_multiplier =   2, to contain    49 grid points.
 
  Reading configuration options for species C                   .
  | Found nuclear charge :   6.0000
  | Found atomic mass :    12.0107000000000      amu
  | Found l_max for Hartree potential  :   6
  | Found cutoff potl. onset [A], width [A], scale factor :    4.00000    2.00000    1.00000
  | Threshold for basis-dependent cutoff potential is   0.100000E-03
  | Found data for basic radial integration grid :    34 points, outermost radius =    7.000 A
  | Found multiplier for basic radial grid :   2
  | Found angular grid specification: user-specified.
  | Specified grid contains     6 separate shells.
  | Check grid settings after all constraints further below.
  | Found free-atom valence shell :  2 s   2.000
  | Found free-atom valence shell :  2 p   2.000
  | No ionic wave fns used. Skipping ion_occ.
  | No ionic wave fns used. Skipping ion_occ.
  | Found hydrogenic basis function :  2 p   1.700
  | Found hydrogenic basis function :  3 d   6.000
  | Found hydrogenic basis function :  2 s   4.900
  | Found hydrogenic basis function :  4 f   9.800
  | Found hydrogenic basis function :  3 p   5.200
  | Found hydrogenic basis function :  3 s   4.300
  | Found hydrogenic basis function :  5 g  14.400
  | Found hydrogenic basis function :  3 d   6.200
  Species C                   : Missing cutoff potential type.
  Defaulting to exp(1/x)/(1-x)^2 type cutoff potential.
  Species C : No 'logarithmic' tag. Using default grid for free atom:
  | Default logarithmic grid data [bohr] : 0.1000E-03 0.1000E+03 0.1012E+01
  Species C : On-site basis accuracy parameter (for Gram-Schmidt orthonormalisation) not specified.
  Using default value basis_acc =  0.1000000E-03.
  Species C                   : Using default innermost maximum threshold i_radial=  2 for radial functions.
  Species C                   : Default cutoff onset for free atom density etc. : 0.40000000E+01 AA.
  Species C                   : Basic radial grid will be enhanced according to radial_multiplier =   2, to contain    69 grid points.
 
  Reading configuration options for species N                   .
  | Found nuclear charge :   7.0000
  | Found atomic mass :    14.0067000000000      amu
  | Found l_max for Hartree potential  :   6
  | Found cutoff potl. onset [A], width [A], scale factor :    4.00000    2.00000    1.00000
  | Threshold for basis-dependent cutoff potential is   0.100000E-03
  | Found data for basic radial integration grid :    35 points, outermost radius =    7.000 A
  | Found multiplier for basic radial grid :   2
  | Found angular grid specification: user-specified.
  | Specified grid contains     6 separate shells.
  | Check grid settings after all constraints further below.
  | Found free-atom valence shell :  2 s   2.000
  | Found free-atom valence shell :  2 p   3.000
  | No ionic wave fns used. Skipping ion_occ.
  | No ionic wave fns used. Skipping ion_occ.
  | Found hydrogenic basis function :  2 p   1.800
  | Found hydrogenic basis function :  3 d   6.800
  | Found hydrogenic basis function :  3 s   5.800
  | Found hydrogenic basis function :  4 f  10.800
  | Found hydrogenic basis function :  3 p   5.800
  | Found hydrogenic basis function :  1 s   0.800
  | Found hydrogenic basis function :  5 g  16.000
  | Found hydrogenic basis function :  3 d   4.900
  Species N                   : Missing cutoff potential type.
  Defaulting to exp(1/x)/(1-x)^2 type cutoff potential.
  Species N : No 'logarithmic' tag. Using default grid for free atom:
  | Default logarithmic grid data [bohr] : 0.1000E-03 0.1000E+03 0.1012E+01
  Species N : On-site basis accuracy parameter (for Gram-Schmidt orthonormalisation) not specified.
  Using default value basis_acc =  0.1000000E-03.
  Species N                   : Using default innermost maximum threshold i_radial=  2 for radial functions.
  Species N                   : Default cutoff onset for free atom density etc. : 0.40000000E+01 AA.
  Species N                   : Basic radial grid will be enhanced according to radial_multiplier =   2, to contain    71 grid points.
 
  Reading configuration options for species O                   .
  | Found nuclear charge :   8.0000
  | Found atomic mass :    15.9994000000000      amu
  | Found l_max for Hartree potential  :   6
  | Found cutoff potl. onset [A], width [A], scale factor :    4.00000    2.00000    1.00000
  | Threshold for basis-dependent cutoff potential is   0.100000E-03
  | Found data for basic radial integration grid :    36 points, outermost radius =    7.000 A
  | Found multiplier for basic radial grid :   2
  | Found angular grid specification: user-specified.
  | Specified grid contains     6 separate shells.
  | Check grid settings after all constraints further below.
  | Found free-atom valence shell :  2 s   2.000
  | Found free-atom valence shell :  2 p   4.000
  | No ionic wave fns used. Skipping ion_occ.
  | No ionic wave fns used. Skipping ion_occ.
  | Found hydrogenic basis function :  2 p   1.800
  | Found hydrogenic basis function :  3 d   7.600
  | Found hydrogenic basis function :  3 s   6.400
  | Found hydrogenic basis function :  4 f  11.600
  | Found hydrogenic basis function :  3 p   6.200
  | Found hydrogenic basis function :  3 d   5.600
  | Found hydrogenic basis function :  5 g  17.600
  | Found hydrogenic basis function :  1 s   0.750
  Species O                   : Missing cutoff potential type.
  Defaulting to exp(1/x)/(1-x)^2 type cutoff potential.
  Species O : No 'logarithmic' tag. Using default grid for free atom:
  | Default logarithmic grid data [bohr] : 0.1000E-03 0.1000E+03 0.1012E+01
  Species O : On-site basis accuracy parameter (for Gram-Schmidt orthonormalisation) not specified.
  Using default value basis_acc =  0.1000000E-03.
  Species O                   : Using default innermost maximum threshold i_radial=  2 for radial functions.
  Species O                   : Default cutoff onset for free atom density etc. : 0.40000000E+01 AA.
  Species O                   : Basic radial grid will be enhanced according to radial_multiplier =   2, to contain    73 grid points.
 
  Finished reading input file 'control.in'. Consistency checks are next.
 
  Target number of points in a grid batch is not set. Defaulting to  100
  Method for grid partitioning is not set. Defaulting to parallel hash+maxmin partitioning.
  Batch size limit is not set. Defaulting to    200
  By default, will store active basis functions for each batch.
  If in need of memory, prune_basis_once .false. can be used to disable this option.
  communication_type for Hartree potential was not specified.
  Defaulting to calc_hartree .
  Pulay mixer: Number of initial linear mixing iterations not set.
  Defaulting to    0 iterations.
  Work space size for distributed Hartree potential not set.
  Defaulting to   0.200000E+03 MB.
  Algorithm-dependent basis array size parameters:
  | n_max_pulay                         :       10
  Geometry relaxation not requested: no relaxation will be performed.
  Handling of forces: Unphysical translation and rotation will be removed from forces.
  No accuracy limit for integral partition fn. given. Defaulting to  0.1000E-14.
  No threshold value for u(r) in integrations given. Defaulting to  0.1000E-05.
  No accuracy for occupation numbers given. Defaulting to  0.1000E-07.
  No threshold value for occupation numbers given. Defaulting to  0.0000E+00.
  No accuracy for fermi level given. Defaulting to  0.1000E-19.
  Maximum # of iterations to find E_F not set. Defaulting to  200.
  Preferred method for the eigenvalue solver ('KS_method') not specified in 'control.in'.
  Calling blacs routine to test compilation state
  Since scalapack support is enabled, defaulting to 'elpa'.
  Preferred method for the MBD eigenvalue solver ('mbd_eigensolver') not specified in 'control.in'.
  Calling blacs routine to test compilation state
  Since scalapack support is enabled, defaulting to 'scaLAPACK'.
  Will not use alltoall communication since running on < 1024 CPUs.
  Threshold for basis singularities not set.
  Default threshold for basis singularities:  0.1000E-04
  partition_type (choice of integration weights) for integrals was not specified.
  | Using a version of the partition function of Stratmann and coworkers ('stratmann_smoother').
  | At each grid point, the set of atoms used to build the partition table is smoothly restricted to
  | only those atoms whose free-atom density would be non-zero at that grid point.
  Partitioning for Hartree potential was not defined. Using partition_type for integrals.
  | Adjusted default value of keyword multip_moments_threshold to:       0.10000000E-11
  | This value may affect high angular momentum components of the Hartree potential in periodic systems.
  No q(lm)/r^(l+1) cutoff set for long-range Hartree potential.
  | Using default value of  0.100000E-09 .
  | Verify using the multipole_threshold keyword.
  Defaulting to new monopole extrapolation.
  Density update method: automatic selection selected.
------------------------------------------------------------


------------------------------------------------------------
          Reading geometry description geometry.in.
------------------------------------------------------------
 * Warning! You did not set the 'relativistic' flag in input file 'control.in'.
 * Since you are not attempting to treat any elements beyond Ca(Z=20), FHI-aims
 * will default to 'relativistic none'.
 * You must ensure that this is really what you want!!
 * For example, DO NOT compute total-energy differences between results from
 * different settings of the 'relativistic' flag.
  Input structure read successfully.
  The structure contains       32 atoms,  and a total of        116.000 electrons.

  Input geometry:
  | No unit cell requested.
  | Atomic structure:
  |       Atom                x [A]            y [A]            z [A]
  |    1: Species C              1.061495         1.179304         0.663759
  |    2: Species C              0.541167         1.007025         2.077558
  |    3: Species O              1.074441         1.536223         3.046995
  |    4: Species H              0.421364         0.729773        -0.105472
  |    5: Species H              2.061323         0.730633         0.601067
  |    6: Species H              1.171145         2.251153         0.459348
  |    7: Species N             -0.597230         0.239643         2.204992
  |    8: Species C             -1.118074        -0.162970         3.516611
  |    9: Species C             -1.435311         1.072601         4.400249
  |   10: Species O             -1.209271         1.064962         5.612156
  |   11: Species H             -0.911269        -0.281917         1.394714
  |   12: Species H             -2.090018        -0.641321         3.313380
  |   13: Species C             -0.218278        -1.158339         4.247355
  |   14: Species H              0.762199        -0.714928         4.452560
  |   15: Species H             -0.086040        -2.060880         3.636626
  |   16: Species H             -0.669567        -1.440373         5.204881
  |   17: Species N             -2.034314         2.095907         3.737057
  |   18: Species C             -2.367168         3.422774         4.280035
  |   19: Species C             -1.119785         4.313938         4.529828
  |   20: Species O             -1.049815         5.426849         4.005336
  |   21: Species H             -2.004574         2.029626         2.724869
  |   22: Species H             -2.884747         3.942190         3.464378
  |   23: Species C             -3.307370         3.367961         5.488870
  |   24: Species H             -4.228689         2.829991         5.228659
  |   25: Species H             -3.574360         4.392146         5.779077
  |   26: Species H             -2.844110         2.867870         6.345310
  |   27: Species N             -0.179948         3.784346         5.349678
  |   28: Species C              1.108598         4.412725         5.563141
  |   29: Species H             -0.325396         2.827773         5.677585
  |   30: Species H              1.352531         4.441506         6.633649
  |   31: Species H              1.058400         5.436550         5.178064
  |   32: Species H              1.902396         3.867981         5.030318
  |

  | The smallest distance between any two atoms is         1.01350634 AA.
  |
  | The first atom of this pair is atom number                      7 .
  | The second atom of this pair is atom number                    11 .

  Number of empty states per atom not set in control.in - providing a guess from actual geometry.
  | Total number of empty states used during s.c.f. cycle:       71
  If you use a very high smearing, use empty_states (per atom!) in control.in to increase this value.

  Structure-dependent array size parameters: 
  | Maximum number of distinct radial functions  :       40
  | Maximum number of basis functions            :      840
  | Number of Kohn-Sham states (occupied + empty):      129
------------------------------------------------------------

------------------------------------------------------------
          Preparing all fixed parts of the calculation.
------------------------------------------------------------
  Determining machine precision:
    2.225073858507201E-308
  Setting up grids for atomic and cluster calculations.

  Creating wave function, potential, and density for free atoms.

  Species: H

  List of occupied orbitals and eigenvalues:
    n    l              occ      energy [Ha]    energy [eV]
    1    0           1.0000        -0.238382        -6.4867


  Species: C

  List of occupied orbitals and eigenvalues:
    n    l              occ      energy [Ha]    energy [eV]
    1    0           2.0000       -10.041232      -273.2358
    2    0           2.0000        -0.504327       -13.7234
    2    1           2.0000        -0.193750        -5.2722


  Species: N

  List of occupied orbitals and eigenvalues:
    n    l              occ      energy [Ha]    energy [eV]
    1    0           2.0000       -14.129007      -384.4699
    2    0           2.0000        -0.681802       -18.5528
    2    1           3.0000        -0.260543        -7.0897


  Species: O

  List of occupied orbitals and eigenvalues:
    n    l              occ      energy [Ha]    energy [eV]
    1    0           2.0000       -18.898576      -514.2564
    2    0           2.0000        -0.878795       -23.9132
    2    1           4.0000        -0.332075        -9.0362

  Creating fixed part of basis set: Ionic, confined, hydrogenic.
 
  H                    hydrogenic:
 
  List of hydrogenic basis orbitals: 
    n    l      effective z      eigenvalue [eV]  inner max. [A]     outer max. [A]     outer radius [A]   
    2    0         2.100000       -14.9965           0.193243           1.317208           5.373006
    2    1         3.500000       -41.6672           0.602369           0.602369           4.056063
    1    0         0.850000        -9.8292           0.624871           0.624871           5.373006
    2    1         3.700000       -46.5653           0.573622           0.573622           3.910002
    2    0         1.200000        -4.5995           0.334980           2.228188           5.505995
    3    2         7.000000       -74.0753           0.680699           0.680699           3.769201
 
 
  C                    hydrogenic:
 
  List of hydrogenic basis orbitals: 
    n    l      effective z      eigenvalue [eV]  inner max. [A]     outer max. [A]     outer radius [A]   
    2    1         1.700000        -9.8152           1.245706           1.245706           5.401630
    3    2         6.000000       -54.4226           0.792453           0.792453           4.178599
    2    0         4.900000       -81.6681           0.082559           0.562749           3.353238
    4    3         9.800000       -81.6681           0.863254           0.863254           4.028125
    3    1         5.200000       -40.8774           0.305389           1.215618           4.898362
    3    0         4.300000       -27.9508           0.091041           1.610311           5.401630
    5    4        14.400000      -112.8510           0.917666           0.917666           3.883070
    3    2         6.200000       -58.1113           0.763917           0.763917           4.077671
 
 
  N                    hydrogenic:
 
  List of hydrogenic basis orbitals: 
    n    l      effective z      eigenvalue [eV]  inner max. [A]     outer max. [A]     outer radius [A]   
    2    1         1.800000       -11.0118           1.177451           1.177451           5.427479
    3    2         6.800000       -69.9029           0.704619           0.704619           3.854246
    3    0         5.800000       -50.8549           0.067388           1.191934           4.629968
    4    3        10.800000       -99.1854           0.786571           0.786571           3.761152
    3    1         5.800000       -50.8549           0.274880           1.094176           4.518138
    1    0         0.800000        -8.7059           0.662839           0.662839           5.361532
    5    4        16.000000      -139.3222           0.825990           0.825990           3.625711
    3    2         4.900000       -36.2967           0.968267           0.968267           4.862000
 
 
  O                    hydrogenic:
 
  List of hydrogenic basis orbitals: 
    n    l      effective z      eigenvalue [eV]  inner max. [A]     outer max. [A]     outer radius [A]   
    2    1         1.800000       -11.0118           1.178562           1.178562           5.432602
    3    2         7.600000       -87.3182           0.624125           0.624125           3.541477
    3    0         6.400000       -61.9209           0.061167           1.081902           4.306578
    4    3        11.600000      -114.4238           0.731631           0.731631           3.585037
    3    1         6.200000       -58.1113           0.255680           1.030270           4.306578
    3    2         5.600000       -47.4081           0.847233           0.847233           4.413171
    5    4        17.600000      -168.5799           0.749740           0.749740           3.372465
    1    0         0.750000        -7.6499           0.705284           0.705284           5.366593
 

  Adding cutoff potential to free-atom effective potential.
  Creating atomic-like basis functions for current effective potential.

  Species H                   :

  List of atomic basis orbitals and eigenvalues:
    n    l      energy [Ha]    energy [eV]    outer radius [A]
    1    0        -0.238382        -6.4867       5.373006


  Species C                   :

  List of atomic basis orbitals and eigenvalues:
    n    l      energy [Ha]    energy [eV]    outer radius [A]
    1    0       -10.041232      -273.2358       1.934409
    2    0        -0.504327       -13.7234       5.271162
    2    1        -0.193750        -5.2722       5.401630


  Species N                   :

  List of atomic basis orbitals and eigenvalues:
    n    l      energy [Ha]    energy [eV]    outer radius [A]
    1    0       -14.129007      -384.4699       1.637919
    2    0        -0.681802       -18.5528       5.168461
    2    1        -0.260543        -7.0897       5.361532


  Species O                   :

  List of atomic basis orbitals and eigenvalues:
    n    l      energy [Ha]    energy [eV]    outer radius [A]
    1    0       -18.898576      -514.2564       1.415765
    2    0        -0.878795       -23.9132       5.048385
    2    1        -0.332075        -9.0362       5.301386

  Assembling full basis from fixed parts.
  | Species H :   atomic orbital   1 s accepted.
  | Species H :    hydro orbital   2 s accepted.
  | Species H :    hydro orbital   1 s accepted.
  | Species H :    hydro orbital   2 s accepted.
  | Species H :    hydro orbital   2 p accepted.
  | Species H :    hydro orbital   2 p accepted.
  | Species H :    hydro orbital   3 d accepted.
  | Species C :   atomic orbital   1 s accepted.
  | Species C :    hydro orbital   2 s accepted.
  | Species C :   atomic orbital   2 s accepted.
  | Species C :    hydro orbital   3 s accepted.
  | Species C :    hydro orbital   3 p accepted.
  | Species C :   atomic orbital   2 p accepted.
  | Species C :    hydro orbital   2 p accepted.
  | Species C :    hydro orbital   3 d accepted.
  | Species C :    hydro orbital   3 d accepted.
  | Species C :    hydro orbital   4 f accepted.
  | Species C :    hydro orbital   5 g accepted.
  | Species N :   atomic orbital   1 s accepted.
  | Species N :    hydro orbital   3 s accepted.
  | Species N :   atomic orbital   2 s accepted.
  | Species N :    hydro orbital   1 s accepted.
  | Species N :    hydro orbital   3 p accepted.
  | Species N :   atomic orbital   2 p accepted.
  | Species N :    hydro orbital   2 p accepted.
  | Species N :    hydro orbital   3 d accepted.
  | Species N :    hydro orbital   3 d accepted.
  | Species N :    hydro orbital   4 f accepted.
  | Species N :    hydro orbital   5 g accepted.
  | Species O :   atomic orbital   1 s accepted.
  | Species O :    hydro orbital   3 s accepted.
  | Species O :   atomic orbital   2 s accepted.
  | Species O :    hydro orbital   1 s accepted.
  | Species O :    hydro orbital   3 p accepted.
  | Species O :   atomic orbital   2 p accepted.
  | Species O :    hydro orbital   2 p accepted.
  | Species O :    hydro orbital   3 d accepted.
  | Species O :    hydro orbital   3 d accepted.
  | Species O :    hydro orbital   4 f accepted.
  | Species O :    hydro orbital   5 g accepted.
 
  Basis size parameters after reduction:
  | Total number of radial functions:       40
  | Total number of basis functions :      840
 
  Testing on-site integration grid accuracy.
  |  Species  Function  <phi|h_atom|phi> (log., in eV)  <phi|h_atom|phi> (rad., in eV)
           1        1                 -6.4869821809                 -6.4870742227
           1        2                 13.5044133542                 13.5041049177
           1        3                 32.7854418792                 32.7779770519
           1        4                 33.7995553101                 33.7152624900 ***
           1        5                 28.8558651799                 28.8558652046
           1        6                 59.6361831893                 59.6362535845
           1        7                 60.2733718049                 60.2733715484
           2        8               -273.2358277112               -273.2358261765
           2        9                -10.7624923123                -10.7625144012
           2       10                 17.4634079027                 17.4634252127
           2       11                 53.0363661832                 53.0366180446
           2       12                 15.0981351967                 15.0981317714
           2       13                  3.8522181899                  3.8522770949
           2       14                 12.1181835661                 12.1206868578
           2       15                 29.4320778347                 29.4320780959
           2       16                 54.8753777694                 54.8752901936
           2       17                 59.3533975461                 59.3533974833
           2       18                 93.4537491195                 93.4537492066
           3       19               -384.4698526889               -384.4698499465
           3       20                 12.5691022037                 12.5690910168
           3       21                -15.7489097511                -15.7489165588
           3       22                 27.0978334940                 27.0985589490
           3       23                 18.5949116966                 18.5949125562
           3       24                  1.2212828291                  1.2212855301
           3       25                 13.4428926797                 13.4434051125
           3       26                 35.9380614500                 35.9380613666
           3       27                 39.9231532098                 39.9231654735
           3       28                 72.9957335806                 72.9957336833
           3       29                116.4231321147                116.4231321431
           4       30               -514.2564144315               -514.2564099626
           4       31                 15.1726678541                 15.1726530877
           4       32                -21.5447785304                -21.5447874973
           4       33                 14.4944558459                 14.4944698284
           4       34                 20.8882174564                 20.8882178906
           4       35                 -2.4850315908                 -2.4850322289
           4       36                 13.8600193195                 13.8599826966
           4       37                 45.8243383616                 45.8243383675
           4       38                 52.1840606465                 52.1840622440
           4       39                 85.4074185510                 85.4074185819
           4       40                142.0983717302                142.0983717339
 * Note: Onsite integrals marked "***" above are less accurate than
 * onsite_accuracy_threshold =    0.03000 eV. Usually, this is harmless.
 * When in doubt, tighten the "radial" and/or "radial_multiplier" flags to check.

  Preparing densities etc. for the partition functions (integrals / Hartree potential).

  Preparations completed.
  max(cpu_time)          :      0.236 s.
  Wall clock time (cpu1) :      0.235 s.
------------------------------------------------------------

------------------------------------------------------------
          Begin self-consistency loop: Initialization.

          Date     :  20170309, Time     :  183141.266
------------------------------------------------------------

  Initializing index lists of integration centers etc. from given atomic structure:
  | Number of centers in hartree potential         :        32
  | Number of centers in hartree multipole         :        32
  | Number of centers in electron density summation:        32
  | Number of centers in basis integrals           :        32
  | Number of centers in integrals                 :        32
  | Number of centers in hamiltonian               :        32
  Using modified Scalapack Eigenvalue solver (ELPA)
  * Using 32 tasks for Scalapack Eigenvalue solver.
  Detailed listing of tasks and assigned k-points:
  (for non-periodic systems, the "k-point" denotes an internal label only)
   Task     0 k-point     1 on eos399
   Task     1 k-point     1 on eos399
   Task     2 k-point     1 on eos399
   Task     3 k-point     1 on eos399
   Task     4 k-point     1 on eos399
   Task     5 k-point     1 on eos399
   Task     6 k-point     1 on eos399
   Task     7 k-point     1 on eos399
   Task     8 k-point     1 on eos399
   Task     9 k-point     1 on eos399
   Task    10 k-point     1 on eos399
   Task    11 k-point     1 on eos399
   Task    12 k-point     1 on eos399
   Task    13 k-point     1 on eos399
   Task    14 k-point     1 on eos399
   Task    15 k-point     1 on eos399
   Task    16 k-point     1 on eos399
   Task    17 k-point     1 on eos399
   Task    18 k-point     1 on eos399
   Task    19 k-point     1 on eos399
   Task    20 k-point     1 on eos399
   Task    21 k-point     1 on eos399
   Task    22 k-point     1 on eos399
   Task    23 k-point     1 on eos399
   Task    24 k-point     1 on eos399
   Task    25 k-point     1 on eos399
   Task    26 k-point     1 on eos399
   Task    27 k-point     1 on eos399
   Task    28 k-point     1 on eos399
   Task    29 k-point     1 on eos399
   Task    30 k-point     1 on eos399
   Task    31 k-point     1 on eos399
  Tasks:    32 split into      8 X      4 BLACS grid
  Calculating blocksize based on n_basis =          840 max_nprow =            8 max_npcol =            4
  Scalapack blocksize set to:           16
  Required Scalapack workspace - INTEGER:            1 REAL:             1
  Partitioning the integration grid into batches with parallel hashing+maxmin method.
  | Number of batches:     4852
  | Maximal batch size:     200
  | Minimal batch size:      19
  | Average batch size:     108.765
  | Standard deviation of batch sizes:      29.335

  Integration load balanced across    32 MPI tasks.
  Work distribution over tasks is as follows:
  Task     0 has      16421 integration points.
  Task     1 has      16419 integration points.
  Task     2 has      16532 integration points.
  Task     3 has      16529 integration points.
  Task     4 has      16426 integration points.
  Task     5 has      16542 integration points.
  Task     6 has      16519 integration points.
  Task     7 has      16423 integration points.
  Task     8 has      16536 integration points.
  Task     9 has      16515 integration points.
  Task    10 has      16433 integration points.
  Task    11 has      16426 integration points.
  Task    12 has      16547 integration points.
  Task    13 has      16442 integration points.
  Task    14 has      16524 integration points.
  Task    15 has      16523 integration points.
  Task    16 has      16505 integration points.
  Task    17 has      16504 integration points.
  Task    18 has      16463 integration points.
  Task    19 has      16443 integration points.
  Task    20 has      16543 integration points.
  Task    21 has      16540 integration points.
  Task    22 has      16549 integration points.
  Task    23 has      16538 integration points.
  Task    24 has      16430 integration points.
  Task    25 has      16489 integration points.
  Task    26 has      16422 integration points.
  Task    27 has      16534 integration points.
  Task    28 has      16542 integration points.
  Task    29 has      16514 integration points.
  Task    30 has      16516 integration points.
  Task    31 has      16439 integration points.
  Initializing partition tables, free-atom densities, potentials, etc. across the integration grid (initialize_grid_storage).
  | initialize_grid_storage: Actual outermost partition radius vs. multipole_radius_free
  | (-- VB: in principle, multipole_radius_free should be larger, hence this output)
  | Species        1: Confinement radius =              6.000000000000000 AA, multipole_radius_free =              6.071692442739658 AA.
  | Species        1: outer_partition_radius set to              6.071692442739658 AA .
  | Species        2: Confinement radius =              6.000000000000000 AA, multipole_radius_free =              6.029870734432609 AA.
  | Species        2: outer_partition_radius set to              6.029870734432609 AA .
  | Species        3: Confinement radius =              6.000000000000000 AA, multipole_radius_free =              6.058726835495003 AA.
  | Species        3: outer_partition_radius set to              6.058726835495003 AA .
  | Species        4: Confinement radius =              6.000000000000000 AA, multipole_radius_free =              6.064445521808699 AA.
  | Species        4: outer_partition_radius set to              6.064445521808699 AA .
  | Original list of interatomic distances with          32 x         32 entries is created.
  | Net number of integration points:   527728
  | of which are non-zero points    :   414316
  Obtaining max. number of non-zero basis functions in each batch (get_n_compute_maxes).
  | Maximal number of non-zero basis functions:      795 in task     0
  | Maximal number of non-zero basis functions:      804 in task     1
  | Maximal number of non-zero basis functions:      807 in task     2
  | Maximal number of non-zero basis functions:      803 in task     3
  | Maximal number of non-zero basis functions:      811 in task     4
  | Maximal number of non-zero basis functions:      795 in task     5
  | Maximal number of non-zero basis functions:      777 in task     6
  | Maximal number of non-zero basis functions:      814 in task     7
  | Maximal number of non-zero basis functions:      796 in task     8
  | Maximal number of non-zero basis functions:      791 in task     9
  | Maximal number of non-zero basis functions:      799 in task    10
  | Maximal number of non-zero basis functions:      794 in task    11
  | Maximal number of non-zero basis functions:      776 in task    12
  | Maximal number of non-zero basis functions:      814 in task    13
  | Maximal number of non-zero basis functions:      797 in task    14
  | Maximal number of non-zero basis functions:      800 in task    15
  | Maximal number of non-zero basis functions:      805 in task    16
  | Maximal number of non-zero basis functions:      792 in task    17
  | Maximal number of non-zero basis functions:      782 in task    18
  | Maximal number of non-zero basis functions:      813 in task    19
  | Maximal number of non-zero basis functions:      776 in task    20
  | Maximal number of non-zero basis functions:      809 in task    21
  | Maximal number of non-zero basis functions:      794 in task    22
  | Maximal number of non-zero basis functions:      805 in task    23
  | Maximal number of non-zero basis functions:      814 in task    24
  | Maximal number of non-zero basis functions:      793 in task    25
  | Maximal number of non-zero basis functions:      794 in task    26
  | Maximal number of non-zero basis functions:      784 in task    27
  | Maximal number of non-zero basis functions:      805 in task    28
  | Maximal number of non-zero basis functions:      810 in task    29
  | Maximal number of non-zero basis functions:      808 in task    30
  | Maximal number of non-zero basis functions:      790 in task    31
  Selecting the method for density update.
  Loop over occupied states selected for charge density update.
  Integrating Hamiltonian matrix: batch-based integration.
  Time summed over all CPUs for integration: real work       21.686 s, elapsed       22.429 s
  Integrating overlap matrix.
  Time summed over all CPUs for integration: real work       13.000 s, elapsed       13.359 s
  Deallocating overlap matrix.

  Updating Kohn-Sham eigenvalues, eigenvectors, occupation numbers, and Fermi level.
  Solving generalized eigenproblem
  Solving real symmetric generalised eigenvalue problem by standard ScaLAPACK.
  Transforming overlap matrix with ScaLAPACK and checking for singularities.
  : Overlap matrix is nonsingular, using Cholesky decomposition
  | Lowest eigenvalue:  0.889522E-04
  Factoring overlap matrix with Cholesky decomposition
  Using Cholesky factor for transformation
  Using 1-stage real ELPA solver
  Determining occupation numbers for Kohn-Sham eigenstates.
  | Chemical potential (Fermi level) in eV                 : -.94332761E+01
  | Error in electron count due to remaining E_F inaccuracy: 0.00000000E+00
  | Maximum occupation number of highest empty state:  0.00E+00

  Writing Kohn-Sham eigenvalues.

  State    Occupation    Eigenvalue [Ha]    Eigenvalue [eV]
      1       2.00000         -18.974965         -516.33506
      2       2.00000         -18.974894         -516.33313
      3       2.00000         -18.973202         -516.28709
      4       2.00000         -14.256414         -387.93676
      5       2.00000         -14.254459         -387.88357
      6       2.00000         -14.252356         -387.82635
      7       2.00000         -10.171558         -276.78218
      8       2.00000         -10.170956         -276.76579
      9       2.00000         -10.170927         -276.76501
     10       2.00000         -10.166861         -276.65437
     11       2.00000         -10.147490         -276.12724
     12       2.00000         -10.147108         -276.11685
     13       2.00000         -10.135815         -275.80956
     14       2.00000         -10.134348         -275.76965
     15       2.00000         -10.134227         -275.76635
     16       2.00000          -1.135027          -30.88566
     17       2.00000          -1.130424          -30.76041
     18       2.00000          -1.127070          -30.66914
     19       2.00000          -1.022335          -27.81915
     20       2.00000          -1.014941          -27.61794
     21       2.00000          -1.002776          -27.28691
     22       2.00000          -0.889617          -24.20770
     23       2.00000          -0.876736          -23.85721
     24       2.00000          -0.841839          -22.90762
     25       2.00000          -0.819678          -22.30458
     26       2.00000          -0.781725          -21.27182
     27       2.00000          -0.749019          -20.38185
     28       2.00000          -0.699467          -19.03346
     29       2.00000          -0.683896          -18.60975
     30       2.00000          -0.672973          -18.31252
     31       2.00000          -0.639975          -17.41460
     32       2.00000          -0.636077          -17.30853
     33       2.00000          -0.620022          -16.87166
     34       2.00000          -0.604814          -16.45784
     35       2.00000          -0.581060          -15.81144
     36       2.00000          -0.579155          -15.75960
     37       2.00000          -0.564968          -15.37355
     38       2.00000          -0.563893          -15.34431
     39       2.00000          -0.558804          -15.20584
     40       2.00000          -0.555591          -15.11840
     41       2.00000          -0.550267          -14.97353
     42       2.00000          -0.538405          -14.65074
     43       2.00000          -0.537007          -14.61271
     44       2.00000          -0.529817          -14.41707
     45       2.00000          -0.521212          -14.18291
     46       2.00000          -0.515867          -14.03745
     47       2.00000          -0.509566          -13.86600
     48       2.00000          -0.503188          -13.69245
     49       2.00000          -0.488569          -13.29465
     50       2.00000          -0.485353          -13.20713
     51       2.00000          -0.481171          -13.09332
     52       2.00000          -0.477022          -12.98044
     53       2.00000          -0.417617          -11.36394
     54       2.00000          -0.409965          -11.15570
     55       2.00000          -0.401924          -10.93691
     56       2.00000          -0.386810          -10.52563
     57       2.00000          -0.385136          -10.48010
     58       2.00000          -0.379978          -10.33972
     59       0.00000          -0.170904           -4.65053
     60       0.00000          -0.158673           -4.31770
     61       0.00000          -0.152429           -4.14779
     62       0.00000          -0.079922           -2.17479
     63       0.00000          -0.061662           -1.67790
     64       0.00000          -0.058642           -1.59572
     65       0.00000          -0.050219           -1.36654
     66       0.00000          -0.040326           -1.09732
     67       0.00000          -0.036262           -0.98673
     68       0.00000          -0.033300           -0.90615
     69       0.00000          -0.028617           -0.77872
     70       0.00000          -0.020935           -0.56967
     71       0.00000          -0.019376           -0.52724
     72       0.00000          -0.015195           -0.41349
     73       0.00000          -0.012300           -0.33470
     74       0.00000          -0.006517           -0.17734
     75       0.00000          -0.001671           -0.04547
     76       0.00000          -0.000391           -0.01064
     77       0.00000           0.002244            0.06107
     78       0.00000           0.004055            0.11033
     79       0.00000           0.007687            0.20916
     80       0.00000           0.014968            0.40730
     81       0.00000           0.019818            0.53926
     82       0.00000           0.026183            0.71247
     83       0.00000           0.029489            0.80244
     84       0.00000           0.039478            1.07425
     85       0.00000           0.044410            1.20846
     86       0.00000           0.049708            1.35262
     87       0.00000           0.054302            1.47764
     88       0.00000           0.061633            1.67712
     89       0.00000           0.063969            1.74069
     90       0.00000           0.066600            1.81229
     91       0.00000           0.072565            1.97458
     92       0.00000           0.076544            2.08287
     93       0.00000           0.078154            2.12668
     94       0.00000           0.088627            2.41166
     95       0.00000           0.090325            2.45787
     96       0.00000           0.095680            2.60357
     97       0.00000           0.102230            2.78182
     98       0.00000           0.112213            3.05346
     99       0.00000           0.115228            3.13552
    100       0.00000           0.123199            3.35240
    101       0.00000           0.127252            3.46271
    102       0.00000           0.133042            3.62027
    103       0.00000           0.136873            3.72450
    104       0.00000           0.142398            3.87484
    105       0.00000           0.151115            4.11204
    106       0.00000           0.152768            4.15704
    107       0.00000           0.156598            4.26126
    108       0.00000           0.159817            4.34883
    109       0.00000           0.168442            4.58353
    110       0.00000           0.170684            4.64455
    111       0.00000           0.175804            4.78388
    112       0.00000           0.178448            4.85583
    113       0.00000           0.181592            4.94138
    114       0.00000           0.188661            5.13372
    115       0.00000           0.192452            5.23689
    116       0.00000           0.195117            5.30940
    117       0.00000           0.201860            5.49290
    118       0.00000           0.206281            5.61318
    119       0.00000           0.211520            5.75575
    120       0.00000           0.217514            5.91886
    121       0.00000           0.221217            6.01961
    122       0.00000           0.224444            6.10742
    123       0.00000           0.228198            6.20959
    124       0.00000           0.231890            6.31005
    125       0.00000           0.237829            6.47165
    126       0.00000           0.245037            6.66781
    127       0.00000           0.252294            6.86526
    128       0.00000           0.257709            7.01263
    129       0.00000           0.262334            7.13848

  Highest occupied state (VBM) at    -10.33972003 eV
  | Occupation number:      2.00000000

  Lowest unoccupied state (CBM) at    -4.65053263 eV
  | Occupation number:      0.00000000

  Overall HOMO-LUMO gap:      5.68918740 eV.
  Calculating total energy contributions from superposition of free atom densities.

  Total energy components:
  | Sum of eigenvalues            :        -437.87267492 Ha      -11915.12171936 eV
  | XC energy correction          :         -98.81376285 Ha       -2688.85929493 eV
  | XC potential correction       :         127.01244557 Ha        3456.18449271 eV
  | Free-atom electrostatic energy:        -333.62594079 Ha       -9078.42375414 eV
  | Hartree energy correction     :           0.00000000 Ha           0.00000000 eV
  | MBD@rsSCS energy              :           0.00000000 Ha           0.00000000 eV
  | Entropy correction            :          -0.00000000 Ha          -0.00000000 eV
  | ---------------------------
  | Total energy                  :        -743.29993300 Ha      -20226.22027572 eV
  | Total energy, T -> 0          :        -743.29993300 Ha      -20226.22027572 eV  <-- do not rely on this value for anything but (periodic) metals
  | Electronic free energy        :        -743.29993300 Ha      -20226.22027572 eV

  Derived energy quantities:
  | Kinetic energy                :         735.13323868 Ha       20003.99321634 eV
  | Electrostatic energy          :       -1379.61940882 Ha      -37541.35419713 eV
  | Energy correction for multipole
  | error in Hartree potential    :           0.00000000 Ha           0.00000000 eV
  | Sum of eigenvalues per atom                           :        -372.34755373 eV
  | Total energy (T->0) per atom                          :        -632.06938362 eV  <-- do not rely on this value for anything but (periodic) metals
  | Electronic free energy per atom                       :        -632.06938362 eV
  Initialize hartree_potential_storage
  Max. number of atoms included in rho_multipole:           32

  End scf initialization - timings             :  max(cpu_time)    wall_clock(cpu1)
  | Time for scf. initialization               :        1.900 s           1.897 s
  | Boundary condition initialization          :        0.004 s           0.000 s
  | Integration                                :        1.144 s           1.141 s
  | Solution of K.-S. eqns.                    :        0.076 s           0.074 s
  | Grid partitioning                          :        0.324 s           0.315 s
  | Preloading free-atom quantities on grid    :        0.028 s           0.027 s
  | Free-atom superposition energy             :        0.040 s           0.039 s
  | Total energy evaluation                    :        0.000 s           0.001 s
------------------------------------------------------------

------------------------------------------------------------
          Begin self-consistency iteration #    1

  Date     :  20170309, Time     :  183143.163
------------------------------------------------------------
  Evaluating new KS density.
  Integration grid: deviation in total charge (<rho> - N_e) =   2.842171E-14
  Pulay mixing of updated and previous charge densities.

  Evaluating partitioned Hartree potential by multipole expansion.
  | Analytical far-field extrapolation by fixed multipoles:
  | Hartree multipole sum: apparent total charge =   0.552593E-04
  Summing up the Hartree potential.
  Time summed over all CPUs for potential: real work        9.566 s, elapsed        9.774 s
  | RMS charge density error from multipole expansion :   0.103804E-01

  Integrating Hamiltonian matrix: batch-based integration.
  Time summed over all CPUs for integration: real work       21.398 s, elapsed       22.043 s

  Updating Kohn-Sham eigenvalues, eigenvectors, occupation numbers, and Fermi level.
  Solving generalized eigenproblem
  Solving real symmetric generalised eigenvalue problem by standard ScaLAPACK.
  Using Cholesky factor for transformation
  Using 2-stage real ELPA solver
  K-Point:    1, Trafo times: 1-stage=     0.021 s, 2-stage=     0.019 s ==> Using 2-stage solver
  Determining occupation numbers for Kohn-Sham eigenstates.
  | Chemical potential (Fermi level) in eV                 : -.20317331E+01
  | Error in electron count due to remaining E_F inaccuracy: 0.00000000E+00
  | Maximum occupation number of highest empty state:  0.00E+00

  Writing Kohn-Sham eigenvalues.

  State    Occupation    Eigenvalue [Ha]    Eigenvalue [eV]
      1       2.00000         -18.629468         -506.93361
      2       2.00000         -18.616991         -506.59410
      3       2.00000         -18.599318         -506.11320
      4       2.00000         -14.008661         -381.19505
      5       2.00000         -13.995752         -380.84379
      6       2.00000         -13.952540         -379.66794
      7       2.00000         -10.059665         -273.73742
      8       2.00000         -10.057114         -273.66799
      9       2.00000         -10.027907         -272.87324
     10       2.00000          -9.967988         -271.24275
     11       2.00000          -9.954853         -270.88532
     12       2.00000          -9.857316         -268.23122
     13       2.00000          -9.856743         -268.21562
     14       2.00000          -9.824840         -267.34750
     15       2.00000          -9.823461         -267.30996
     16       2.00000          -0.970984          -26.42183
     17       2.00000          -0.958572          -26.08407
     18       2.00000          -0.936833          -25.49253
     19       2.00000          -0.879199          -23.92421
     20       2.00000          -0.865296          -23.54591
     21       2.00000          -0.831408          -22.62376
     22       2.00000          -0.746561          -20.31496
     23       2.00000          -0.719303          -19.57324
     24       2.00000          -0.691143          -18.80695
     25       2.00000          -0.648156          -17.63723
     26       2.00000          -0.632332          -17.20664
     27       2.00000          -0.604573          -16.45128
     28       2.00000          -0.575414          -15.65782
     29       2.00000          -0.550099          -14.96896
     30       2.00000          -0.524675          -14.27714
     31       2.00000          -0.512902          -13.95677
     32       2.00000          -0.501812          -13.65501
     33       2.00000          -0.475346          -12.93483
     34       2.00000          -0.453019          -12.32729
     35       2.00000          -0.442420          -12.03887
     36       2.00000          -0.436124          -11.86753
     37       2.00000          -0.413954          -11.26425
     38       2.00000          -0.405872          -11.04433
     39       2.00000          -0.401654          -10.92957
     40       2.00000          -0.394860          -10.74469
     41       2.00000          -0.387229          -10.53703
     42       2.00000          -0.383265          -10.42918
     43       2.00000          -0.379556          -10.32823
     44       2.00000          -0.368414          -10.02504
     45       2.00000          -0.365194           -9.93744
     46       2.00000          -0.361870           -9.84698
     47       2.00000          -0.351691           -9.56999
     48       2.00000          -0.348635           -9.48684
     49       2.00000          -0.341037           -9.28008
     50       2.00000          -0.340018           -9.25236
     51       2.00000          -0.334022           -9.08921
     52       2.00000          -0.321627           -8.75193
     53       2.00000          -0.251758           -6.85067
     54       2.00000          -0.246245           -6.70067
     55       2.00000          -0.215988           -5.87734
     56       2.00000          -0.213013           -5.79637
     57       2.00000          -0.205461           -5.59089
     58       2.00000          -0.192961           -5.25074
     59       0.00000          -0.060817           -1.65492
     60       0.00000          -0.050871           -1.38428
     61       0.00000          -0.043930           -1.19539
     62       0.00000          -0.020757           -0.56481
     63       0.00000          -0.016320           -0.44410
     64       0.00000          -0.011436           -0.31119
     65       0.00000          -0.002604           -0.07087
     66       0.00000           0.007349            0.19998
     67       0.00000           0.012461            0.33909
     68       0.00000           0.016805            0.45728
     69       0.00000           0.027709            0.75400
     70       0.00000           0.034779            0.94637
     71       0.00000           0.038085            1.03634
     72       0.00000           0.042160            1.14724
     73       0.00000           0.047684            1.29753
     74       0.00000           0.049095            1.33595
     75       0.00000           0.055516            1.51066
     76       0.00000           0.060871            1.65637
     77       0.00000           0.068971            1.87679
     78       0.00000           0.074408            2.02475
     79       0.00000           0.083772            2.27955
     80       0.00000           0.085164            2.31742
     81       0.00000           0.096488            2.62556
     82       0.00000           0.102180            2.78045
     83       0.00000           0.103658            2.82067
     84       0.00000           0.109752            2.98650
     85       0.00000           0.114720            3.12169
     86       0.00000           0.118248            3.21768
     87       0.00000           0.122512            3.33372
     88       0.00000           0.128619            3.49990
     89       0.00000           0.133350            3.62862
     90       0.00000           0.137582            3.74380
     91       0.00000           0.139933            3.80777
     92       0.00000           0.146177            3.97769
     93       0.00000           0.148246            4.03398
     94       0.00000           0.151619            4.12577
     95       0.00000           0.160067            4.35565
     96       0.00000           0.174354            4.74441
     97       0.00000           0.176610            4.80581
     98       0.00000           0.180558            4.91324
     99       0.00000           0.187393            5.09922
    100       0.00000           0.189689            5.16170
    101       0.00000           0.200203            5.44780
    102       0.00000           0.203240            5.53045
    103       0.00000           0.207967            5.65907
    104       0.00000           0.212747            5.78914
    105       0.00000           0.216888            5.90182
    106       0.00000           0.220327            5.99541
    107       0.00000           0.222432            6.05267
    108       0.00000           0.227925            6.20214
    109       0.00000           0.232746            6.33334
    110       0.00000           0.234850            6.39059
    111       0.00000           0.244591            6.65566
    112       0.00000           0.247104            6.72403
    113       0.00000           0.253870            6.90815
    114       0.00000           0.260257            7.08196
    115       0.00000           0.266688            7.25695
    116       0.00000           0.268810            7.31470
    117       0.00000           0.271615            7.39101
    118       0.00000           0.277540            7.55224
    119       0.00000           0.282516            7.68765
    120       0.00000           0.284392            7.73869
    121       0.00000           0.290322            7.90005
    122       0.00000           0.294206            8.00575
    123       0.00000           0.303912            8.26986
    124       0.00000           0.307559            8.36910
    125       0.00000           0.308563            8.39642
    126       0.00000           0.326799            8.89266
    127       0.00000           0.329431            8.96427
    128       0.00000           0.335038            9.11686
    129       0.00000           0.347277            9.44989

  Highest occupied state (VBM) at     -5.25073932 eV
  | Occupation number:      2.00000000

  Lowest unoccupied state (CBM) at    -1.65492196 eV
  | Occupation number:      0.00000000

  Overall HOMO-LUMO gap:      3.59581736 eV.

  Total energy components:
  | Sum of eigenvalues            :        -416.82622666 Ha      -11342.41872333 eV
  | XC energy correction          :        -100.75060041 Ha       -2741.56332638 eV
  | XC potential correction       :         129.52480462 Ha        3524.54926069 eV
  | Free-atom electrostatic energy:        -333.62594079 Ha       -9078.42375414 eV
  | Hartree energy correction     :         -21.04654627 Ha        -572.70566295 eV
  | MBD@rsSCS energy              :           0.00000000 Ha           0.00000000 eV
  | Entropy correction            :          -0.00000000 Ha          -0.00000000 eV
  | ---------------------------
  | Total energy                  :        -742.72450952 Ha      -20210.56220611 eV
  | Total energy, T -> 0          :        -742.72450952 Ha      -20210.56220611 eV  <-- do not rely on this value for anything but (periodic) metals
  | Electronic free energy        :        -742.72450952 Ha      -20210.56220611 eV

  Derived energy quantities:
  | Kinetic energy                :         744.01339132 Ha       20245.63446434 eV
  | Electrostatic energy          :       -1385.98730043 Ha      -37714.63334407 eV
  | Energy correction for multipole
  | error in Hartree potential    :          -0.04059704 Ha          -1.10470170 eV
  | Sum of eigenvalues per atom                           :        -354.45058510 eV
  | Total energy (T->0) per atom                          :        -631.58006894 eV  <-- do not rely on this value for anything but (periodic) metals
  | Electronic free energy per atom                       :        -631.58006894 eV

  Self-consistency convergence accuracy:
  | Change of charge density      :  0.9015E+00
  | Change of sum of eigenvalues  :  0.5727E+03 eV
  | Change of total energy        :  0.1566E+02 eV

  End self-consistency iteration #     1       :  max(cpu_time)    wall_clock(cpu1)
  | Time for this iteration                    :        1.540 s           1.538 s
[...]
   Multipole                     :  0.217698E-01 -0.515428E+00  0.303117E+00
   Pulay + GGA                   : -0.244333E+00 -0.117431E+02  0.591244E+01
   MBD@rsSCS                     : -0.441269E-02 -0.202094E-01  0.674621E-02
   ----------------------------------------------------------------
   Total forces(  20)            :  0.327418E-02 -0.473723E-02  0.622853E-02
  atom #   21
   Hellmann-Feynman              :  0.253591E-01 -0.495133E-02  0.416367E-01
   Ionic forces                  :  0.000000E+00  0.000000E+00  0.000000E+00
   Multipole                     : -0.211573E-01  0.178625E-01  0.129838E-01
   Pulay + GGA                   : -0.504404E-02 -0.141556E-01 -0.617521E-01
   MBD@rsSCS                     :  0.822045E-02 -0.617668E-03  0.281111E-02
   ----------------------------------------------------------------
   Total forces(  21)            :  0.737820E-02 -0.186210E-02 -0.432047E-02
  atom #   22
   Hellmann-Feynman              :  0.219497E-01  0.728856E-02  0.486562E-01
   Ionic forces                  :  0.000000E+00  0.000000E+00  0.000000E+00
   Multipole                     :  0.334989E-02 -0.348749E-02  0.137157E-01
   Pulay + GGA                   : -0.375586E-01  0.300086E-02 -0.617198E-01
   MBD@rsSCS                     :  0.141368E-02 -0.350710E-02  0.365097E-02
   ----------------------------------------------------------------
   Total forces(  22)            : -0.108454E-01  0.329483E-02  0.430304E-02
  atom #   23
   Hellmann-Feynman              : -0.586709E+00 -0.155087E+00  0.110599E+01
   Ionic forces                  :  0.000000E+00  0.000000E+00  0.000000E+00
   Multipole                     :  0.135077E+00  0.507703E-01 -0.348197E+00
   Pulay + GGA                   :  0.472125E+00  0.937764E-01 -0.756058E+00
   MBD@rsSCS                     :  0.162425E-01 -0.674908E-02 -0.332720E-02
   ----------------------------------------------------------------
   Total forces(  23)            :  0.367349E-01 -0.172899E-01 -0.159121E-02
  atom #   24
   Hellmann-Feynman              :  0.449218E-01  0.156435E-01 -0.257146E-01
   Ionic forces                  :  0.000000E+00  0.000000E+00  0.000000E+00
   Multipole                     :  0.813905E-02  0.124222E-01  0.363575E-01
   Pulay + GGA                   : -0.579211E-01 -0.257512E-01 -0.142886E-01
   MBD@rsSCS                     :  0.909576E-02 -0.299731E-02 -0.669647E-02
   ----------------------------------------------------------------
   Total forces(  24)            :  0.423556E-02 -0.682799E-03 -0.103421E-01
  atom #   25
   Hellmann-Feynman              :  0.323526E-01 -0.166211E-01 -0.494019E-01
   Ionic forces                  :  0.000000E+00  0.000000E+00  0.000000E+00
   Multipole                     : -0.121428E-01 -0.314759E-01  0.263153E-01
   Pulay + GGA                   : -0.240820E-01  0.511768E-01  0.201742E-01
   MBD@rsSCS                     :  0.896061E-02 -0.151037E-03 -0.657507E-02
   ----------------------------------------------------------------
   Total forces(  25)            :  0.508839E-02  0.292880E-02 -0.948738E-02
  atom #   26
   Hellmann-Feynman              :  0.270420E-01 -0.505674E-02 -0.520257E-01
   Ionic forces                  :  0.000000E+00  0.000000E+00  0.000000E+00
   Multipole                     : -0.224269E-01  0.123489E-01 -0.106641E-01
   Pulay + GGA                   :  0.114077E-01 -0.122537E-01  0.499694E-01
   MBD@rsSCS                     :  0.158461E-01 -0.458738E-02 -0.937627E-02
   ----------------------------------------------------------------
   Total forces(  26)            :  0.318689E-01 -0.954885E-02 -0.220967E-01
  atom #   27
   Hellmann-Feynman              : -0.158125E+01 -0.221083E+00  0.821186E+00
   Ionic forces                  :  0.000000E+00  0.000000E+00  0.000000E+00
   Multipole                     : -0.171851E+00  0.718825E-01 -0.555825E-01
   Pulay + GGA                   :  0.173267E+01  0.135332E+00 -0.762809E+00
   MBD@rsSCS                     : -0.219529E-01 -0.187588E-01 -0.163038E-01
   ----------------------------------------------------------------
   Total forces(  27)            : -0.423895E-01 -0.326277E-01 -0.135091E-01
  atom #   28
   Hellmann-Feynman              :  0.196357E+01  0.121568E+01  0.167180E+00
   Ionic forces                  :  0.000000E+00  0.000000E+00  0.000000E+00
   Multipole                     : -0.158490E+00 -0.790406E-01  0.342650E-03
   Pulay + GGA                   : -0.179126E+01 -0.111634E+01 -0.160015E+00
   MBD@rsSCS                     : -0.129390E-01 -0.815395E-02 -0.746472E-02
   ----------------------------------------------------------------
   Total forces(  28)            :  0.877188E-03  0.121537E-01  0.435993E-04
  atom #   29
   Hellmann-Feynman              : -0.152041E-01  0.323490E-01 -0.181669E-01
   Ionic forces                  :  0.000000E+00  0.000000E+00  0.000000E+00
   Multipole                     :  0.322288E-01  0.275354E-01  0.966435E-02
   Pulay + GGA                   : -0.249236E-01 -0.526740E-01  0.173018E-01
   MBD@rsSCS                     : -0.347212E-02  0.127037E-02 -0.771970E-02
   ----------------------------------------------------------------
   Total forces(  29)            : -0.113711E-01  0.848081E-02  0.107953E-02
  atom #   30
   Hellmann-Feynman              : -0.476668E-01 -0.169314E-01 -0.307118E-01
   Ionic forces                  :  0.000000E+00  0.000000E+00  0.000000E+00
   Multipole                     :  0.204056E-01  0.803011E-02 -0.293116E-01
   Pulay + GGA                   :  0.288531E-01  0.639326E-02  0.628625E-01
   MBD@rsSCS                     : -0.588401E-02 -0.241093E-02 -0.259001E-02
   ----------------------------------------------------------------
   Total forces(  30)            : -0.429210E-02 -0.491900E-02  0.249154E-03
  atom #   31
   Hellmann-Feynman              : -0.634014E-01 -0.353806E-01 -0.132808E-01
   Ionic forces                  :  0.000000E+00  0.000000E+00  0.000000E+00
   Multipole                     :  0.414838E-01 -0.191189E-01  0.202490E-01
   Pulay + GGA                   :  0.215291E-01  0.582162E-01 -0.743099E-02
   MBD@rsSCS                     : -0.486379E-02 -0.483926E-02 -0.863063E-03
   ----------------------------------------------------------------
   Total forces(  31)            : -0.525227E-02 -0.112249E-02 -0.132592E-02
  atom #   32
   Hellmann-Feynman              : -0.680542E-01 -0.124258E-01 -0.549137E-02
   Ionic forces                  :  0.000000E+00  0.000000E+00  0.000000E+00
   Multipole                     : -0.557127E-03  0.247735E-01  0.251130E-01
   Pulay + GGA                   :  0.694101E-01 -0.985798E-02 -0.128857E-01
   MBD@rsSCS                     : -0.680517E-02 -0.646985E-02 -0.572242E-02
   ----------------------------------------------------------------
   Total forces(  32)            : -0.600642E-02 -0.398014E-02  0.101347E-02

  Removing unitary transformations (pure translations, rotations) from forces on atoms.
  Atomic forces before filtering:
  | Net force on center of mass :   0.641247E-04 -0.377848E-03 -0.285721E-03 eV/A
  | Net torque on center of mass:   0.224803E-02 -0.286293E-02  0.333851E-03 eV
  Atomic forces after filtering:
  | Net force on center of mass :   0.975658E-17 -0.696899E-18 -0.168998E-16 eV/A
  | Net torque on center of mass:   0.154889E-16 -0.129074E-16 -0.516296E-16 eV

  Energy and forces in a compact form:
  | Total energy uncorrected      :         -0.202091843303027E+05 eV
  | Total energy corrected        :         -0.202091843303027E+05 eV  <-- do not rely on this value for anything but (periodic) metals
  | Electronic free energy        :         -0.202091843303027E+05 eV
  Total atomic forces (unitary forces cleaned) [eV/Ang]:
  |   1         -0.372501400703793E-02         -0.388413449690191E-02         -0.694088335958625E-02
  |   2         -0.257548584501922E-01         -0.912162361660475E-02          0.376506491538595E-01
  |   3         -0.125775084807410E-01         -0.222562310012416E-01         -0.613914285322896E-02
  |   4         -0.646690975865413E-02         -0.477167819901452E-02          0.821414736270571E-02
  |   5         -0.559973855087020E-03          0.248958938383820E-02          0.637076511885348E-02
  |   6          0.163363197662928E-02          0.185724984977379E-04          0.608873937250127E-02
  |   7          0.101253297504804E-01          0.396755180625708E-04          0.551545044273460E-03
  |   8          0.226954214632623E-02          0.310492753030735E-02         -0.970368603077366E-04
  |   9          0.123259560405905E-01          0.455221826584413E-01          0.132850047795206E-01
  |  10         -0.694573493717505E-02          0.107514153893725E-01         -0.114442418702221E-01
  |  11          0.246362408861653E-02         -0.454592109351663E-03         -0.344833132701168E-02
  |  12          0.416398686368737E-02          0.308057017175186E-02          0.426051212674821E-02
  |  13          0.736917000512315E-02          0.189427296959005E-01         -0.945829438376590E-02
  |  14         -0.109326931694998E-01          0.280306019198514E-01         -0.159067719183839E-01
  |  15         -0.674275127320020E-02          0.512443692728683E-02         -0.693077770110072E-02
  |  16         -0.104780905940543E-01          0.156542741309866E-01         -0.326441609490657E-02
  |  17          0.312030155054133E-01         -0.188576245091335E-01          0.179227873471447E-01
  |  18          0.333833566665842E-02         -0.608312644733976E-02          0.660511569307534E-02
  |  19         -0.166202508917474E-03         -0.177239737568153E-01          0.124779460510406E-01
  |  20          0.326171891154115E-02         -0.472528912188009E-02          0.620619380041180E-02
  |  21          0.735681030584791E-02         -0.186753262585876E-02         -0.429004540904792E-02
  |  22         -0.108614146861051E-01          0.329415412184728E-02          0.432751987046327E-02
  |  23          0.367548968656993E-01         -0.172702300393878E-01         -0.155342762997255E-02
  |  24          0.425318169835517E-02         -0.669350886619910E-03         -0.102830911428349E-01
  |  25          0.510947894532204E-02          0.295061877643959E-02         -0.945620066427758E-02
  |  26          0.319051026865615E-01         -0.951821822135447E-02         -0.220612615218474E-01
  |  27         -0.423733203978197E-01         -0.325980246984994E-01         -0.135282500784017E-01
  |  28          0.894581168872678E-03          0.121904645288005E-01         -0.394407584000293E-05
  |  29         -0.113459705419595E-01          0.851350680949912E-02          0.107316586822238E-02
  |  30         -0.425686557543765E-02         -0.486977034471884E-02          0.197210581032420E-03
  |  31         -0.524510352112973E-02         -0.109009129604469E-02         -0.138369901197183E-02
  |  32         -0.599595086871405E-02         -0.394622869011634E-02          0.958513732855054E-03

  ------------------------------------ 
  Start decomposition of the XC Energy 
  ------------------------------------ 
  Hartree-Fock part   :          0.000000000 Ha              0.000000000 eV
  ------------------------------------ 
  X Energy            :        -96.988475608 Ha          -2639.190701841 eV
  C Energy GGA        :         -3.870109892 Ha           -105.311048328 eV
  Total XC Energy     :       -100.858585500 Ha          -2744.501750169 eV
  LDA X and C from self-consistent density 
  X Energy LDA        :        -88.007170415 Ha          -2394.796952922 eV
  C Energy LDA        :         -7.532493053 Ha           -204.969564697 eV
  ------------------------------------ 
  End decomposition of the XC Energy 
  ------------------------------------ 
   
  ESP charge fitting starts.
  | Calculation :  00000001  of  00000001
  | Full density
  Computing multipole expansion for total density.
  Generating points for esp charges.
  Partitioning the integration grid into batches with parallel hashing+maxmin method.
  | Number of batches:     3854
  | Maximal batch size:     198
  | Minimal batch size:      83
  | Average batch size:     126.319
  | Standard deviation of batch sizes:      16.689

  Integration load balanced across    32 MPI tasks.
  Work distribution over tasks is as follows:
  Initializing partition tables, free-atom densities, potentials, etc. across the integration grid (initialize_grid_storage).
  | Original list of interatomic distances with          32 x         32 entries is created.
  | Net number of integration points:   486834
  | of which are non-zero points    :   486834
  Summing up potential from multipole expanded  density.
  Summing up the Hartree potential.
  Time summed over all CPUs for potential: real work        6.254 s, elapsed        6.746 s
  Fitting esp charges to potential.
  |
  | ESP charges fitted to the electrostatic potential :
  |
  | Atom         1: C, ESP charge:      0.71154937
  |
  | Atom         2: C, ESP charge:     -0.82267854
  |
  | Atom         3: O, ESP charge:      0.57233679
  |
  | Atom         4: H, ESP charge:     -0.17795387
  |
  | Atom         5: H, ESP charge:     -0.20375585
  |
  | Atom         6: H, ESP charge:     -0.21367808
  |
  | Atom         7: N, ESP charge:      0.94423321
  |
  | Atom         8: C, ESP charge:     -0.74523361
  |
  | Atom         9: C, ESP charge:     -0.34300281
  |
  | Atom        10: O, ESP charge:      0.46878089
  |
  | Atom        11: H, ESP charge:     -0.38874220
  |
  | Atom        12: H, ESP charge:      0.06661387
  |
  | Atom        13: C, ESP charge:      0.54780994
  |
  | Atom        14: H, ESP charge:     -0.18005805
  |
  | Atom        15: H, ESP charge:     -0.11632843
  |
  | Atom        16: H, ESP charge:     -0.10967230
  |
  | Atom        17: N, ESP charge:      0.49315556
  |
  | Atom        18: C, ESP charge:     -0.02909889
  |
  | Atom        19: C, ESP charge:     -0.53163776
  |
  | Atom        20: O, ESP charge:      0.55968160
  |
  | Atom        21: H, ESP charge:     -0.31073635
  |
  | Atom        22: H, ESP charge:     -0.10381506
  |
  | Atom        23: C, ESP charge:      0.42526602
  |
  | Atom        24: H, ESP charge:     -0.14200526
  |
  | Atom        25: H, ESP charge:     -0.12858572
  |
  | Atom        26: H, ESP charge:     -0.11784592
  |
  | Atom        27: N, ESP charge:      0.15579342
  |
  | Atom        28: C, ESP charge:      0.60359941
  |
  | Atom        29: H, ESP charge:     -0.27748896
  |
  | Atom        30: H, ESP charge:     -0.18115555
  |
  | Atom        31: H, ESP charge:     -0.22104335
  |
  | Atom        32: H, ESP charge:     -0.20430352

  RRMS:       0.00326289

  Done.

------------------------------------------------------------------------------
  Final output of selected total energy values:

  The following output summarizes some interesting total energy values
  at the end of a run (AFTER all relaxation, molecular dynamics, etc.).

  | Total energy of the DFT / Hartree-Fock s.c.f. calculation      :         -20209.184330303 eV
  | Final zero-broadening corrected energy (caution - metals only) :         -20209.184330303 eV
  | For reference only, the value of 1 Hartree used in FHI-aims is :             27.211384500 eV

  Before relying on these values, please be sure to understand exactly which
  total energy value is referred to by a given number. Different objects may
  all carry the same name 'total energy'. Definitions:

  Total energy of the DFT / Hartree-Fock s.c.f. calculation:
  | Note that this energy does not include ANY quantities calculated after the
  | s.c.f. cycle, in particular not ANY RPA, MP2, etc. many-body perturbation terms.

  Final zero-broadening corrected energy:
  | For metallic systems only, a broadening of the occupation numbers at the Fermi
  | level can be extrapolated back to zero broadening by an electron-gas inspired
  | formula. For all systems that are not real metals, this value can be
  | meaningless and should be avoided.

------------------------------------------------------------------------------
  Methods described in the following list of references were used in this FHI-aims run.
  If you publish the results, please make sure to cite these reference if they apply.
  FHI-aims is an academic code, and for our developers (often, Ph.D. students
  and postdocs), scientific credit in the community is essential.
  Thank you for helping us!

  For any use of FHI-aims, please cite:

    Volker Blum, Ralf Gehrke, Felix Hanke, Paula Havu, Ville Havu,
    Xinguo Ren, Karsten Reuter, and Matthias Scheffler
    'Ab initio molecular simulations with numeric atom-centered orbitals'
    Computer Physics Communications 180, 2175-2196 (2009)
    http://dx.doi.org/10.1016/j.cpc.2009.06.022


  The scalable eigensolver library ELPA was used in your run.
  ELPA is essential especially for large systems on hundreds or thousands of CPUs.
  For ELPA, please cite:

    Andreas Marek, Volker Blum, Rainer Johanni, Ville Havu, Bruno Lang,
    Thomas Auckenthaler, Alexander Heinecke, Hans-Joachim Bungartz, and Hermann Lederer,
    'The ELPA Library - Scalable Parallel Eigenvalue Solutions
    for Electronic Structure Theory and Computational Science'
    The Journal of Physics: Condensed Matter 26, 213201 (2014).
    http://dx.doi.org/10.1088/0953-8984/26/21/213201


  For ELPA's efficient two-stage tridiagonalization used in your run, please cite:

    T. Auckenthaler, V. Blum, H.-J. Bungartz, T. Huckle, R. Johanni, L. Kraemer,
    B. Lang, H. Lederer, and P. R. Willems,
    'Parallel solution of partial symmetric eigenvalue problems'
    'from  electronic structure calculations'
    Parallel Computing 37, 783-794 (2011).
    http://dx.doi.org/10.1016/j.parco.2011.05.002


  For the real-space grid partitioning and parallelization used in this calculation, please cite:

    Ville Havu, Volker Blum, Paula Havu, and Matthias Scheffler,
    'Efficient O(N) integration for all-electron electronic structure calculation'
    'using numerically tabulated basis functions'
    Journal of Computational Physics 228, 8367-8379 (2009).
    http://dx.doi.org/10.1016/j.jcp.2009.08.008

  Of course, there are many other important community references, e.g., those cited in the
  above references. Our list is limited to references that describe implementations in the
  FHI-aims code. The reason is purely practical (length of this list) - please credit others as well.

------------------------------------------------------------
          Leaving FHI-aims.
          Date     :  20170309, Time     :  183209.948

          Computational steps:
          | Number of self-consistency cycles          :           13

          Detailed time accounting                     :  max(cpu_time)    wall_clock(cpu1)
          | Total time                                 :       29.566 s          29.711 s
          | Preparation time                           :        0.236 s           0.235 s
          | Grid partitioning                          :        0.324 s           0.315 s
          | Preloading free-atom quantities on grid    :        0.028 s           0.027 s
          | Free-atom superposition energy             :        0.040 s           0.039 s
          | Total time for integrations                :       10.293 s          10.268 s
          | Total time for solution of K.-S. equations :        0.500 s           0.467 s
          | Total time for density & force components  :        7.760 s           7.742 s
          | Total time for mixing                      :        0.112 s           0.097 s
          | Total time for Hartree multipole update    :        0.064 s           0.055 s
          | Total time for Hartree multipole sum       :        5.352 s           5.331 s
          | Total time for total energy evaluation     :        0.016 s           0.016 s

          Have a nice day.
------------------------------------------------------------
