  MPI-parallelism will be employed.
------------------------------------------------------------
          Invoking FHI-aims ...
          Version 150427
          Git rev.: 9dd23e0 BL: Update Version stamp
          Compiled on 2015/11/03 at 22:05:20 on host eos03.

          When using FHI-aims, please cite the following reference:

          Volker Blum, Ralf Gehrke, Felix Hanke, Paula Havu,
          Ville Havu, Xinguo Ren, Karsten Reuter, and Matthias Scheffler,
          'Ab Initio Molecular Simulations with Numeric Atom-Centered Orbitals: FHI-aims',
          Computer Physics Communications 180, 2175-2196 (2009)

          For any questions about FHI-aims, please visit the aimsclub website
          with its forums and wiki. Contributions to both the forums and the
          wiki are warmly encouraged - they are for you, and everyone is welcome there.

------------------------------------------------------------

  Date     :  20170309, Time     :  190610.279
  Time zero on CPU 1             :   0.324020000000000E+00  s.
  Internal wall clock time zero  :           258318370.279  s.

  Using       32 parallel tasks.
  Task        0 on host eos036 reporting.
  Task        1 on host eos036 reporting.
  Task        2 on host eos036 reporting.
  Task        3 on host eos036 reporting.
  Task        4 on host eos036 reporting.
  Task        5 on host eos036 reporting.
  Task        6 on host eos036 reporting.
  Task        7 on host eos036 reporting.
  Task        8 on host eos036 reporting.
  Task        9 on host eos036 reporting.
  Task       10 on host eos036 reporting.
  Task       11 on host eos036 reporting.
  Task       12 on host eos036 reporting.
  Task       13 on host eos036 reporting.
  Task       14 on host eos036 reporting.
  Task       15 on host eos036 reporting.
  Task       16 on host eos036 reporting.
  Task       17 on host eos036 reporting.
  Task       18 on host eos036 reporting.
  Task       19 on host eos036 reporting.
  Task       20 on host eos036 reporting.
  Task       21 on host eos036 reporting.
  Task       22 on host eos036 reporting.
  Task       23 on host eos036 reporting.
  Task       24 on host eos036 reporting.
  Task       25 on host eos036 reporting.
  Task       26 on host eos036 reporting.
  Task       27 on host eos036 reporting.
  Task       28 on host eos036 reporting.
  Task       29 on host eos036 reporting.
  Task       30 on host eos036 reporting.
  Task       31 on host eos036 reporting.

  Performing system and environment tests:
  | Environment variable OMP_NUM_THREADS correctly set to 1.
  | Stacksize not measured: no C compiler
  | Checking for scalapack...
  | Testing pdtran()...
  | All pdtran() tests passed.

  Obtaining array dimensions for all initial allocations:
  
  -----------------------------------------------------------------------
  Parsing control.in (first pass over file, find array dimensions only).
  The contents of control.in will be repeated verbatim below
  unless switched off by setting 'verbatim_writeout .false.' .
  in the first line of control.in .
  -----------------------------------------------------------------------
  
  #########################################################################################
  #
  # Input for System
  #
  #########################################################################################
  #
  #
  #  Physical model
  #
    xc                 pbe
    many_body_dispersion
    spin               none
    charge             0.
  #
  #  SCF convergence
  #
    occupation_type    gaussian 0.05
    mixer              pulay
      n_max_pulay        10
      charge_mix_param   0.5
    sc_accuracy_rho    1E-4
    sc_accuracy_eev    1E-2
    sc_accuracy_etot   1E-5
    sc_accuracy_forces 1E-4
    sc_iter_limit      1000
  #
  #  ESP charge
  #
    output esp
    esp equal_grid_n 80 80 80
  #
  #
  ################################################################################
  #
  #  FHI-aims code project
  # Volker Blum, Fritz Haber Institute Berlin, 2009
  #
  #  Suggested "tight" defaults for H atom (to be pasted into control.in file)
  #
  ################################################################################
    species        H
  #     global species definitions
      nucleus             1
      mass                1.00794
  #
      l_hartree           6
  #
      cut_pot             4.0  2.0  1.0
      basis_dep_cutoff    1e-4
  #
      radial_base         24 7.0
      radial_multiplier   2
      angular_grids       specified
        division   0.1930   50
        division   0.3175  110
        division   0.4293  194
        division   0.5066  302
        division   0.5626  434
  #      division   0.5922  590
  #      division   0.6227  974
  #      division   0.6868 1202
  #      outer_grid  770
        outer_grid  434
  ################################################################################
  #
  #  Definition of "minimal" basis
  #
  ################################################################################
  #     valence basis states
      valence      1  s   1.
  #     ion occupancy
      ion_occ      1  s   0.5
  ################################################################################
  #
  #  Suggested additional basis functions. For production calculations,
  #  uncomment them one after another (the most important basis functions are
  #  listed first).
  #
  #  Basis constructed for dimers: 0.5 A, 0.7 A, 1.0 A, 1.5 A, 2.5 A
  #
  ################################################################################
  #  "First tier" - improvements: -1014.90 meV to -62.69 meV
       hydro 2 s 2.1
       hydro 2 p 3.5
  #  "Second tier" - improvements: -12.89 meV to -1.83 meV
       hydro 1 s 0.85
       hydro 2 p 3.7
       hydro 2 s 1.2
       hydro 3 d 7
  #  "Third tier" - improvements: -0.25 meV to -0.12 meV
  #     hydro 4 f 11.2
  #     hydro 3 p 4.8
  #     hydro 4 d 9
  #     hydro 3 s 3.2
  ################################################################################
  #
  # For methods that use the localized form of the "resolution of identity" for
  # the two-electron Coulomb operator (RI_method LVL), particularly Hartree-Fock and
  # hybrid density functional calculations, the highest accuracy can be obtained by
  # uncommenting the line beginning with "for_aux"  below, thus adding an extra g radial
  # function to the construction of the product basis set for the expansion.
  # See Ref. New J. Phys. 17, 093020 (2015) for more information, particularly Figs. 1 and 6.
  #
  ################################################################################
  #
  # for_aux hydro 5 g 6.0
  ################################################################################
  #
  #  FHI-aims code project
  # Volker Blum, Fritz Haber Institute Berlin, 2009
  #
  #  Suggested "tight" defaults for C atom (to be pasted into control.in file)
  #
  ################################################################################
    species        C
  #     global species definitions
      nucleus             6
      mass                12.0107
  #
      l_hartree           6
  #
      cut_pot             4.0  2.0  1.0
      basis_dep_cutoff    1e-4
  #
      radial_base         34 7.0
      radial_multiplier   2
      angular_grids specified
        division   0.2187   50
        division   0.4416  110
        division   0.6335  194
        division   0.7727  302
        division   0.8772  434
  #      division   0.9334  590
  #      division   0.9924  770
  #      division   1.0230  974
  #      division   1.5020 1202
  #     outer_grid  974
        outer_grid  434
  ################################################################################
  #
  #  Definition of "minimal" basis
  #
  ################################################################################
  #     valence basis states
      valence      2  s   2.
      valence      2  p   2.
  #     ion occupancy
      ion_occ      2  s   1.
      ion_occ      2  p   1.
  ################################################################################
  #
  #  Suggested additional basis functions. For production calculations,
  #  uncomment them one after another (the most important basis functions are
  #  listed first).
  #
  #  Constructed for dimers: 1.0 A, 1.25 A, 1.5 A, 2.0 A, 3.0 A
  #
  ################################################################################
  #  "First tier" - improvements: -1214.57 meV to -155.61 meV
       hydro 2 p 1.7
       hydro 3 d 6
       hydro 2 s 4.9
  #  "Second tier" - improvements: -67.75 meV to -5.23 meV
       hydro 4 f 9.8
       hydro 3 p 5.2
       hydro 3 s 4.3
       hydro 5 g 14.4
       hydro 3 d 6.2
  #  "Third tier" - improvements: -2.43 meV to -0.60 meV
  #     hydro 2 p 5.6
  #     hydro 2 s 1.4
  #     hydro 3 d 4.9
  #     hydro 4 f 11.2
  #  "Fourth tier" - improvements: -0.39 meV to -0.18 meV
  #     hydro 2 p 2.1
  #     hydro 5 g 16.4
  #     hydro 4 d 13.2
  #     hydro 3 s 13.6
  #     hydro 4 f 17.6
  #  Further basis functions - improvements: -0.08 meV and below
  #     hydro 3 s 2
  #     hydro 3 p 6
  #     hydro 4 d 20
  ################################################################################
  #
  # For methods that use the localized form of the "resolution of identity" for
  # the two-electron Coulomb operator (RI_method LVL), particularly Hartree-Fock and
  # hybrid density functional calculations, the highest accuracy can be obtained by
  # uncommenting the line beginning with "for_aux"  below, thus adding an extra g radial
  # function to the construction of the product basis set for the expansion.
  # See Ref. New J. Phys. 17, 093020 (2015) for more information, particularly Figs. 1 and 6.
  #
  ################################################################################
  #
  # for_aux hydro 5 g 6.0
  ################################################################################
  #
  #  FHI-aims code project
  # Volker Blum, Fritz Haber Institute Berlin, 2009
  #
  #  Suggested "tight" defaults for N atom (to be pasted into control.in file)
  #
  ################################################################################
    species        N
  #     global species definitions
      nucleus             7
      mass                14.0067
  #
      l_hartree           6
  #
      cut_pot             4.0  2.0  1.0
      basis_dep_cutoff    1e-4
  #
      radial_base         35 7.0
      radial_multiplier   2
      angular_grids       specified
        division   0.1841   50
        division   0.3514  110
        division   0.5126  194
        division   0.6292  302
        division   0.6939  434
  #      division   0.7396  590
  #      division   0.7632  770
  #      division   0.8122  974
  #      division   1.1604 1202
  #      outer_grid  974
        outer_grid  434
  ################################################################################
  #
  #  Definition of "minimal" basis
  #
  ################################################################################
  #     valence basis states
      valence      2  s   2.
      valence      2  p   3.
  #     ion occupancy
      ion_occ      2  s   1.
      ion_occ      2  p   2.
  ################################################################################
  #
  #  Suggested additional basis functions. For production calculations,
  #  uncomment them one after another (the most important basis functions are
  #  listed first).
  #
  #  Constructed for dimers: 1.0 A, 1.1 A, 1.5 A, 2.0 A, 3.0 A
  #
  ################################################################################
  #  "First tier" - improvements: -1193.42 meV to -220.60 meV
       hydro 2 p 1.8
       hydro 3 d 6.8
       hydro 3 s 5.8
  #  "Second tier" - improvements: -80.21 meV to -6.86 meV
       hydro 4 f 10.8
       hydro 3 p 5.8
       hydro 1 s 0.8
       hydro 5 g 16
       hydro 3 d 4.9
  #  "Third tier" - improvements: -4.29 meV to -0.53 meV
  #     hydro 3 s 16
  #     ionic 2 p auto
  #     hydro 3 d 6.6
  #     hydro 4 f 11.6
  #  "Fourth tier" - improvements: -0.75 meV to -0.25 meV
  #     hydro 2 p 4.5
  #     hydro 2 s 2.4
  #     hydro 5 g 14.4
  #     hydro 4 d 14.4
  #     hydro 4 f 16.8
  # Further basis functions - -0.21 meV and below
  #     hydro 3 p 14.8
  #     hydro 3 s 4.4
  #     hydro 3 d 19.6
  #     hydro 5 g 12.8
  ################################################################################
  #
  # For methods that use the localized form of the "resolution of identity" for
  # the two-electron Coulomb operator (RI_method LVL), particularly Hartree-Fock and
  # hybrid density functional calculations, the highest accuracy can be obtained by
  # uncommenting the line beginning with "for_aux"  below, thus adding an extra g radial
  # function to the construction of the product basis set for the expansion.
  # See Ref. New J. Phys. 17, 093020 (2015) for more information, particularly Figs. 1 and 6.
  #
  ################################################################################
  #
  # for_aux hydro 5 g 6.0
  ################################################################################
  #
  #  FHI-aims code project
  # Volker Blum, Fritz Haber Institute Berlin, 2009
  #
  #  Suggested "tight" defaults for O atom (to be pasted into control.in file)
  #
  ################################################################################
    species        O
  #     global species definitions
      nucleus             8
      mass                15.9994
  #
      l_hartree           6
  #
      cut_pot             4.0  2.0  1.0
      basis_dep_cutoff    1e-4
  #
      radial_base         36 7.0
      radial_multiplier   2
       angular_grids specified
        division   0.1817   50
        division   0.3417  110
        division   0.4949  194
        division   0.6251  302
        division   0.8014  434
  #      division   0.8507  590
  #      division   0.8762  770
  #      division   0.9023  974
  #      division   1.2339 1202
  #      outer_grid 974
        outer_grid  434
  ################################################################################
  #
  #  Definition of "minimal" basis
  #
  ################################################################################
  #     valence basis states
      valence      2  s   2.
      valence      2  p   4.
  #     ion occupancy
      ion_occ      2  s   1.
      ion_occ      2  p   3.
  ################################################################################
  #
  #  Suggested additional basis functions. For production calculations,
  #  uncomment them one after another (the most important basis functions are
  #  listed first).
  #
  #  Constructed for dimers: 1.0 A, 1.208 A, 1.5 A, 2.0 A, 3.0 A
  #
  ################################################################################
  #  "First tier" - improvements: -699.05 meV to -159.38 meV
       hydro 2 p 1.8
       hydro 3 d 7.6
       hydro 3 s 6.4
  #  "Second tier" - improvements: -49.91 meV to -5.39 meV
       hydro 4 f 11.6
       hydro 3 p 6.2
       hydro 3 d 5.6
       hydro 5 g 17.6
       hydro 1 s 0.75
  #  "Third tier" - improvements: -2.83 meV to -0.50 meV
  #     ionic 2 p auto
  #     hydro 4 f 10.8
  #     hydro 4 d 4.7
  #     hydro 2 s 6.8
  #  "Fourth tier" - improvements: -0.40 meV to -0.12 meV
  #     hydro 3 p 5
  #     hydro 3 s 3.3
  #     hydro 5 g 15.6
  #     hydro 4 f 17.6
  #     hydro 4 d 14
  # Further basis functions - -0.08 meV and below
  #     hydro 3 s 2.1
  #     hydro 4 d 11.6
  #     hydro 3 p 16
  #     hydro 2 s 17.2
  ################################################################################
  #
  # For methods that use the localized form of the "resolution of identity" for
  # the two-electron Coulomb operator (RI_method LVL), particularly Hartree-Fock and
  # hybrid density functional calculations, the highest accuracy can be obtained by
  # uncommenting the line beginning with "for_aux"  below, thus adding an extra g radial
  # function to the construction of the product basis set for the expansion.
  # See Ref. New J. Phys. 17, 093020 (2015) for more information, particularly Figs. 1 and 6.
  #
  ################################################################################
  #
  # for_aux hydro 5 g 6.0
  
  -----------------------------------------------------------------------
  Completed first pass over input file control.in .
  -----------------------------------------------------------------------
  
  
  -----------------------------------------------------------------------
  Parsing geometry.in (first pass over file, find array dimensions only).
  The contents of geometry.in will be repeated verbatim below
  unless switched off by setting 'verbatim_writeout .false.' .
  in the first line of geometry.in .
  -----------------------------------------------------------------------
  
  #
  # This is the geometry file that corresponds to the current relaxation step.
  # If you do not want this file to be written, set the "write_restart_geometry" flag to .false.
  #
  atom       0.74272422     -0.83828349      0.89495101 C
  atom      -0.26659357     -1.42978286      1.86061595 C
  atom      -0.05640313     -2.49569467      2.43334096 O
  atom       1.17527938      0.08983912      1.29135495 H
  atom       0.29304541     -0.61984652     -0.08215743 H
  atom       1.54393381     -1.57047834      0.76521304 H
  atom      -1.43474800     -0.74141758      2.10958574 N
  atom      -2.01165542      0.45681726      1.48408372 C
  atom      -2.46012949      0.11560328      0.03285032 C
  atom      -3.39820124     -0.67031663     -0.09632040 O
  atom      -2.07434839     -1.29579542      2.67096761 H
  atom      -2.98941863      0.55664107      1.97465755 H
  atom      -1.24443644      1.74159479      1.80162311 C
  atom      -1.77003767      2.62059180      1.40860611 H
  atom      -0.22098223      1.76599368      1.41695202 H
  atom      -1.18747856      1.84529857      2.89256540 H
  atom      -1.84062712      0.59511548     -1.09763065 N
  atom      -0.88350523      1.66686327     -1.34999309 C
  atom      -1.38930101      3.12115168     -1.19090457 C
  atom      -0.59534229      3.97641372     -0.80197306 O
  atom      -2.27973334      0.19336952     -1.92397921 H
  atom      -0.06194984      1.60691890     -0.62832944 H
  atom      -0.28778566      1.48427294     -2.75100141 C
  atom       0.43850720      2.27937956     -2.95354067 H
  atom      -1.06447620      1.52566013     -3.52851495 H
  atom       0.22231899      0.51495929     -2.82388934 H
  atom      -2.68335472      3.44358824     -1.48821499 N
  atom      -3.73909923      2.66105622     -2.12079436 C
  atom      -2.86109644      4.43450387     -1.35448242 H
  atom      -4.53177074      3.35317641     -2.42534153 H
  atom      -4.17973143      1.91563499     -1.44597364 H
  atom      -3.38903197      2.15226570     -3.02951532 H
  
  -----------------------------------------------------------------------
  Completed first pass over input file geometry.in .
  -----------------------------------------------------------------------
  

  Basic array size parameters:
  | Number of species                 :        4
  | Number of atoms                   :       32
  | Max. basis fn. angular momentum   :        4
  | Max. atomic/ionic basis occupied n:        2
  | Max. number of basis fn. types    :        2
  | Max. radial fns per species/type  :        8
  | Max. logarithmic grid size        :     1301
  | Max. radial integration grid size :       73
  | Max. angular integration grid size:      434
  | Max. angular grid division number :        8
  | Radial grid for Hartree potential :     1301
  | Number of spin channels           :        1

------------------------------------------------------------
          Reading file control.in.
------------------------------------------------------------
  XC: Using PBE gradient-corrected functionals.
  Self-consistent screening and van der Waals energy (TS, TS+SCS,MBD) module
  Spin treatment: No spin polarisation.
  Charge =   0.000000E+00: Neutral system requested explicitly.
  Occupation type: Gaussian broadening, width =   0.500000E-01 eV.
  Using pulay charge density mixing.
  Pulay mixing - number of memorized iterations:   10
  Charge density mixing - mixing parameter:     0.5000
  Convergence accuracy of self-consistent charge density:  0.1000E-03
  Convergence accuracy of sum of eigenvalues:  0.1000E-01
  Convergence accuracy of total energy:  0.1000E-04
  Convergence accuracy of forces:  0.1000E-03
  Maximum number of s.-c. iterations  :  1000
  Fitting ESP-charges to Potential. 
  | Esp charge output options: 
  | ESP Grid method: 3, cubic grid
  | Number of points in x, ,y, z:  0080 0080 0080
  |
 
  Reading configuration options for species H                   .
  | Found nuclear charge :   1.0000
  | Found atomic mass :    1.00794000000000      amu
  | Found l_max for Hartree potential  :   6
  | Found cutoff potl. onset [A], width [A], scale factor :    4.00000    2.00000    1.00000
  | Threshold for basis-dependent cutoff potential is   0.100000E-03
  | Found data for basic radial integration grid :    24 points, outermost radius =    7.000 A
  | Found multiplier for basic radial grid :   2
  | Found angular grid specification: user-specified.
  | Specified grid contains     6 separate shells.
  | Check grid settings after all constraints further below.
  | Found free-atom valence shell :  1 s   1.000
  | No ionic wave fns used. Skipping ion_occ.
  | Found hydrogenic basis function :  2 s   2.100
  | Found hydrogenic basis function :  2 p   3.500
  | Found hydrogenic basis function :  1 s   0.850
  | Found hydrogenic basis function :  2 p   3.700
  | Found hydrogenic basis function :  2 s   1.200
  | Found hydrogenic basis function :  3 d   7.000
  Species H                   : Missing cutoff potential type.
  Defaulting to exp(1/x)/(1-x)^2 type cutoff potential.
  Species H : No 'logarithmic' tag. Using default grid for free atom:
  | Default logarithmic grid data [bohr] : 0.1000E-03 0.1000E+03 0.1012E+01
  Species H : On-site basis accuracy parameter (for Gram-Schmidt orthonormalisation) not specified.
  Using default value basis_acc =  0.1000000E-03.
  Species H                   : Using default innermost maximum threshold i_radial=  2 for radial functions.
  Species H                   : Default cutoff onset for free atom density etc. : 0.40000000E+01 AA.
  Species H                   : Basic radial grid will be enhanced according to radial_multiplier =   2, to contain    49 grid points.
 
  Reading configuration options for species C                   .
  | Found nuclear charge :   6.0000
  | Found atomic mass :    12.0107000000000      amu
  | Found l_max for Hartree potential  :   6
  | Found cutoff potl. onset [A], width [A], scale factor :    4.00000    2.00000    1.00000
  | Threshold for basis-dependent cutoff potential is   0.100000E-03
  | Found data for basic radial integration grid :    34 points, outermost radius =    7.000 A
  | Found multiplier for basic radial grid :   2
  | Found angular grid specification: user-specified.
  | Specified grid contains     6 separate shells.
  | Check grid settings after all constraints further below.
  | Found free-atom valence shell :  2 s   2.000
  | Found free-atom valence shell :  2 p   2.000
  | No ionic wave fns used. Skipping ion_occ.
  | No ionic wave fns used. Skipping ion_occ.
  | Found hydrogenic basis function :  2 p   1.700
  | Found hydrogenic basis function :  3 d   6.000
  | Found hydrogenic basis function :  2 s   4.900
  | Found hydrogenic basis function :  4 f   9.800
  | Found hydrogenic basis function :  3 p   5.200
  | Found hydrogenic basis function :  3 s   4.300
  | Found hydrogenic basis function :  5 g  14.400
  | Found hydrogenic basis function :  3 d   6.200
  Species C                   : Missing cutoff potential type.
  Defaulting to exp(1/x)/(1-x)^2 type cutoff potential.
  Species C : No 'logarithmic' tag. Using default grid for free atom:
  | Default logarithmic grid data [bohr] : 0.1000E-03 0.1000E+03 0.1012E+01
  Species C : On-site basis accuracy parameter (for Gram-Schmidt orthonormalisation) not specified.
  Using default value basis_acc =  0.1000000E-03.
  Species C                   : Using default innermost maximum threshold i_radial=  2 for radial functions.
  Species C                   : Default cutoff onset for free atom density etc. : 0.40000000E+01 AA.
  Species C                   : Basic radial grid will be enhanced according to radial_multiplier =   2, to contain    69 grid points.
 
  Reading configuration options for species N                   .
  | Found nuclear charge :   7.0000
  | Found atomic mass :    14.0067000000000      amu
  | Found l_max for Hartree potential  :   6
  | Found cutoff potl. onset [A], width [A], scale factor :    4.00000    2.00000    1.00000
  | Threshold for basis-dependent cutoff potential is   0.100000E-03
  | Found data for basic radial integration grid :    35 points, outermost radius =    7.000 A
  | Found multiplier for basic radial grid :   2
  | Found angular grid specification: user-specified.
  | Specified grid contains     6 separate shells.
  | Check grid settings after all constraints further below.
  | Found free-atom valence shell :  2 s   2.000
  | Found free-atom valence shell :  2 p   3.000
  | No ionic wave fns used. Skipping ion_occ.
  | No ionic wave fns used. Skipping ion_occ.
  | Found hydrogenic basis function :  2 p   1.800
  | Found hydrogenic basis function :  3 d   6.800
  | Found hydrogenic basis function :  3 s   5.800
  | Found hydrogenic basis function :  4 f  10.800
  | Found hydrogenic basis function :  3 p   5.800
  | Found hydrogenic basis function :  1 s   0.800
  | Found hydrogenic basis function :  5 g  16.000
  | Found hydrogenic basis function :  3 d   4.900
  Species N                   : Missing cutoff potential type.
  Defaulting to exp(1/x)/(1-x)^2 type cutoff potential.
  Species N : No 'logarithmic' tag. Using default grid for free atom:
  | Default logarithmic grid data [bohr] : 0.1000E-03 0.1000E+03 0.1012E+01
  Species N : On-site basis accuracy parameter (for Gram-Schmidt orthonormalisation) not specified.
  Using default value basis_acc =  0.1000000E-03.
  Species N                   : Using default innermost maximum threshold i_radial=  2 for radial functions.
  Species N                   : Default cutoff onset for free atom density etc. : 0.40000000E+01 AA.
  Species N                   : Basic radial grid will be enhanced according to radial_multiplier =   2, to contain    71 grid points.
 
  Reading configuration options for species O                   .
  | Found nuclear charge :   8.0000
  | Found atomic mass :    15.9994000000000      amu
  | Found l_max for Hartree potential  :   6
  | Found cutoff potl. onset [A], width [A], scale factor :    4.00000    2.00000    1.00000
  | Threshold for basis-dependent cutoff potential is   0.100000E-03
  | Found data for basic radial integration grid :    36 points, outermost radius =    7.000 A
  | Found multiplier for basic radial grid :   2
  | Found angular grid specification: user-specified.
  | Specified grid contains     6 separate shells.
  | Check grid settings after all constraints further below.
  | Found free-atom valence shell :  2 s   2.000
  | Found free-atom valence shell :  2 p   4.000
  | No ionic wave fns used. Skipping ion_occ.
  | No ionic wave fns used. Skipping ion_occ.
  | Found hydrogenic basis function :  2 p   1.800
  | Found hydrogenic basis function :  3 d   7.600
  | Found hydrogenic basis function :  3 s   6.400
  | Found hydrogenic basis function :  4 f  11.600
  | Found hydrogenic basis function :  3 p   6.200
  | Found hydrogenic basis function :  3 d   5.600
  | Found hydrogenic basis function :  5 g  17.600
  | Found hydrogenic basis function :  1 s   0.750
  Species O                   : Missing cutoff potential type.
  Defaulting to exp(1/x)/(1-x)^2 type cutoff potential.
  Species O : No 'logarithmic' tag. Using default grid for free atom:
  | Default logarithmic grid data [bohr] : 0.1000E-03 0.1000E+03 0.1012E+01
  Species O : On-site basis accuracy parameter (for Gram-Schmidt orthonormalisation) not specified.
  Using default value basis_acc =  0.1000000E-03.
  Species O                   : Using default innermost maximum threshold i_radial=  2 for radial functions.
  Species O                   : Default cutoff onset for free atom density etc. : 0.40000000E+01 AA.
  Species O                   : Basic radial grid will be enhanced according to radial_multiplier =   2, to contain    73 grid points.
 
  Finished reading input file 'control.in'. Consistency checks are next.
 
  Target number of points in a grid batch is not set. Defaulting to  100
  Method for grid partitioning is not set. Defaulting to parallel hash+maxmin partitioning.
  Batch size limit is not set. Defaulting to    200
  By default, will store active basis functions for each batch.
  If in need of memory, prune_basis_once .false. can be used to disable this option.
  communication_type for Hartree potential was not specified.
  Defaulting to calc_hartree .
  Pulay mixer: Number of initial linear mixing iterations not set.
  Defaulting to    0 iterations.
  Work space size for distributed Hartree potential not set.
  Defaulting to   0.200000E+03 MB.
  Algorithm-dependent basis array size parameters:
  | n_max_pulay                         :       10
  Geometry relaxation not requested: no relaxation will be performed.
  Handling of forces: Unphysical translation and rotation will be removed from forces.
  No accuracy limit for integral partition fn. given. Defaulting to  0.1000E-14.
  No threshold value for u(r) in integrations given. Defaulting to  0.1000E-05.
  No accuracy for occupation numbers given. Defaulting to  0.1000E-07.
  No threshold value for occupation numbers given. Defaulting to  0.0000E+00.
  No accuracy for fermi level given. Defaulting to  0.1000E-19.
  Maximum # of iterations to find E_F not set. Defaulting to  200.
  Preferred method for the eigenvalue solver ('KS_method') not specified in 'control.in'.
  Calling blacs routine to test compilation state
  Since scalapack support is enabled, defaulting to 'elpa'.
  Preferred method for the MBD eigenvalue solver ('mbd_eigensolver') not specified in 'control.in'.
  Calling blacs routine to test compilation state
  Since scalapack support is enabled, defaulting to 'scaLAPACK'.
  Will not use alltoall communication since running on < 1024 CPUs.
  Threshold for basis singularities not set.
  Default threshold for basis singularities:  0.1000E-04
  partition_type (choice of integration weights) for integrals was not specified.
  | Using a version of the partition function of Stratmann and coworkers ('stratmann_smoother').
  | At each grid point, the set of atoms used to build the partition table is smoothly restricted to
  | only those atoms whose free-atom density would be non-zero at that grid point.
  Partitioning for Hartree potential was not defined. Using partition_type for integrals.
  | Adjusted default value of keyword multip_moments_threshold to:       0.10000000E-11
  | This value may affect high angular momentum components of the Hartree potential in periodic systems.
  No q(lm)/r^(l+1) cutoff set for long-range Hartree potential.
  | Using default value of  0.100000E-09 .
  | Verify using the multipole_threshold keyword.
  Defaulting to new monopole extrapolation.
  Density update method: automatic selection selected.
------------------------------------------------------------


------------------------------------------------------------
          Reading geometry description geometry.in.
------------------------------------------------------------
 * Warning! You did not set the 'relativistic' flag in input file 'control.in'.
 * Since you are not attempting to treat any elements beyond Ca(Z=20), FHI-aims
 * will default to 'relativistic none'.
 * You must ensure that this is really what you want!!
 * For example, DO NOT compute total-energy differences between results from
 * different settings of the 'relativistic' flag.
  Input structure read successfully.
  The structure contains       32 atoms,  and a total of        116.000 electrons.

  Input geometry:
  | No unit cell requested.
  | Atomic structure:
  |       Atom                x [A]            y [A]            z [A]
  |    1: Species C              0.742724        -0.838283         0.894951
  |    2: Species C             -0.266594        -1.429783         1.860616
  |    3: Species O             -0.056403        -2.495695         2.433341
  |    4: Species H              1.175279         0.089839         1.291355
  |    5: Species H              0.293045        -0.619847        -0.082157
  |    6: Species H              1.543934        -1.570478         0.765213
  |    7: Species N             -1.434748        -0.741418         2.109586
  |    8: Species C             -2.011655         0.456817         1.484084
  |    9: Species C             -2.460129         0.115603         0.032850
  |   10: Species O             -3.398201        -0.670317        -0.096320
  |   11: Species H             -2.074348        -1.295795         2.670968
  |   12: Species H             -2.989419         0.556641         1.974658
  |   13: Species C             -1.244436         1.741595         1.801623
  |   14: Species H             -1.770038         2.620592         1.408606
  |   15: Species H             -0.220982         1.765994         1.416952
  |   16: Species H             -1.187479         1.845299         2.892565
  |   17: Species N             -1.840627         0.595115        -1.097631
  |   18: Species C             -0.883505         1.666863        -1.349993
  |   19: Species C             -1.389301         3.121152        -1.190905
  |   20: Species O             -0.595342         3.976414        -0.801973
  |   21: Species H             -2.279733         0.193370        -1.923979
  |   22: Species H             -0.061950         1.606919        -0.628329
  |   23: Species C             -0.287786         1.484273        -2.751001
  |   24: Species H              0.438507         2.279380        -2.953541
  |   25: Species H             -1.064476         1.525660        -3.528515
  |   26: Species H              0.222319         0.514959        -2.823889
  |   27: Species N             -2.683355         3.443588        -1.488215
  |   28: Species C             -3.739099         2.661056        -2.120794
  |   29: Species H             -2.861096         4.434504        -1.354482
  |   30: Species H             -4.531771         3.353176        -2.425342
  |   31: Species H             -4.179731         1.915635        -1.445974
  |   32: Species H             -3.389032         2.152266        -3.029515
  |

  | The smallest distance between any two atoms is         1.01557388 AA.
  |
  | The first atom of this pair is atom number                     27 .
  | The second atom of this pair is atom number                    29 .

  Number of empty states per atom not set in control.in - providing a guess from actual geometry.
  | Total number of empty states used during s.c.f. cycle:       71
  If you use a very high smearing, use empty_states (per atom!) in control.in to increase this value.

  Structure-dependent array size parameters: 
  | Maximum number of distinct radial functions  :       40
  | Maximum number of basis functions            :      840
  | Number of Kohn-Sham states (occupied + empty):      129
------------------------------------------------------------

------------------------------------------------------------
          Preparing all fixed parts of the calculation.
------------------------------------------------------------
  Determining machine precision:
    2.225073858507201E-308
  Setting up grids for atomic and cluster calculations.

  Creating wave function, potential, and density for free atoms.

  Species: H

  List of occupied orbitals and eigenvalues:
    n    l              occ      energy [Ha]    energy [eV]
    1    0           1.0000        -0.238382        -6.4867


  Species: C

  List of occupied orbitals and eigenvalues:
    n    l              occ      energy [Ha]    energy [eV]
    1    0           2.0000       -10.041232      -273.2358
    2    0           2.0000        -0.504327       -13.7234
    2    1           2.0000        -0.193750        -5.2722


  Species: N

  List of occupied orbitals and eigenvalues:
    n    l              occ      energy [Ha]    energy [eV]
    1    0           2.0000       -14.129007      -384.4699
    2    0           2.0000        -0.681802       -18.5528
    2    1           3.0000        -0.260543        -7.0897


  Species: O

  List of occupied orbitals and eigenvalues:
    n    l              occ      energy [Ha]    energy [eV]
    1    0           2.0000       -18.898576      -514.2564
    2    0           2.0000        -0.878795       -23.9132
    2    1           4.0000        -0.332075        -9.0362

  Creating fixed part of basis set: Ionic, confined, hydrogenic.
 
  H                    hydrogenic:
 
  List of hydrogenic basis orbitals: 
    n    l      effective z      eigenvalue [eV]  inner max. [A]     outer max. [A]     outer radius [A]   
    2    0         2.100000       -14.9965           0.193243           1.317208           5.373006
    2    1         3.500000       -41.6672           0.602369           0.602369           4.056063
    1    0         0.850000        -9.8292           0.624871           0.624871           5.373006
    2    1         3.700000       -46.5653           0.573622           0.573622           3.910002
    2    0         1.200000        -4.5995           0.334980           2.228188           5.505995
    3    2         7.000000       -74.0753           0.680699           0.680699           3.769201
 
 
  C                    hydrogenic:
 
  List of hydrogenic basis orbitals: 
    n    l      effective z      eigenvalue [eV]  inner max. [A]     outer max. [A]     outer radius [A]   
    2    1         1.700000        -9.8152           1.245706           1.245706           5.401630
    3    2         6.000000       -54.4226           0.792453           0.792453           4.178599
    2    0         4.900000       -81.6681           0.082559           0.562749           3.353238
    4    3         9.800000       -81.6681           0.863254           0.863254           4.028125
    3    1         5.200000       -40.8774           0.305389           1.215618           4.898362
    3    0         4.300000       -27.9508           0.091041           1.610311           5.401630
    5    4        14.400000      -112.8510           0.917666           0.917666           3.883070
    3    2         6.200000       -58.1113           0.763917           0.763917           4.077671
 
 
  N                    hydrogenic:
 
  List of hydrogenic basis orbitals: 
    n    l      effective z      eigenvalue [eV]  inner max. [A]     outer max. [A]     outer radius [A]   
    2    1         1.800000       -11.0118           1.177451           1.177451           5.427479
    3    2         6.800000       -69.9029           0.704619           0.704619           3.854246
    3    0         5.800000       -50.8549           0.067388           1.191934           4.629968
    4    3        10.800000       -99.1854           0.786571           0.786571           3.761152
    3    1         5.800000       -50.8549           0.274880           1.094176           4.518138
    1    0         0.800000        -8.7059           0.662839           0.662839           5.361532
    5    4        16.000000      -139.3222           0.825990           0.825990           3.625711
    3    2         4.900000       -36.2967           0.968267           0.968267           4.862000
 
 
  O                    hydrogenic:
 
  List of hydrogenic basis orbitals: 
    n    l      effective z      eigenvalue [eV]  inner max. [A]     outer max. [A]     outer radius [A]   
    2    1         1.800000       -11.0118           1.178562           1.178562           5.432602
    3    2         7.600000       -87.3182           0.624125           0.624125           3.541477
    3    0         6.400000       -61.9209           0.061167           1.081902           4.306578
    4    3        11.600000      -114.4238           0.731631           0.731631           3.585037
    3    1         6.200000       -58.1113           0.255680           1.030270           4.306578
    3    2         5.600000       -47.4081           0.847233           0.847233           4.413171
    5    4        17.600000      -168.5799           0.749740           0.749740           3.372465
    1    0         0.750000        -7.6499           0.705284           0.705284           5.366593
 

  Adding cutoff potential to free-atom effective potential.
  Creating atomic-like basis functions for current effective potential.

  Species H                   :

  List of atomic basis orbitals and eigenvalues:
    n    l      energy [Ha]    energy [eV]    outer radius [A]
    1    0        -0.238382        -6.4867       5.373006


  Species C                   :

  List of atomic basis orbitals and eigenvalues:
    n    l      energy [Ha]    energy [eV]    outer radius [A]
    1    0       -10.041232      -273.2358       1.934409
    2    0        -0.504327       -13.7234       5.271162
    2    1        -0.193750        -5.2722       5.401630


  Species N                   :

  List of atomic basis orbitals and eigenvalues:
    n    l      energy [Ha]    energy [eV]    outer radius [A]
    1    0       -14.129007      -384.4699       1.637919
    2    0        -0.681802       -18.5528       5.168461
    2    1        -0.260543        -7.0897       5.361532


  Species O                   :

  List of atomic basis orbitals and eigenvalues:
    n    l      energy [Ha]    energy [eV]    outer radius [A]
    1    0       -18.898576      -514.2564       1.415765
    2    0        -0.878795       -23.9132       5.048385
    2    1        -0.332075        -9.0362       5.301386

  Assembling full basis from fixed parts.
  | Species H :   atomic orbital   1 s accepted.
  | Species H :    hydro orbital   2 s accepted.
  | Species H :    hydro orbital   1 s accepted.
  | Species H :    hydro orbital   2 s accepted.
  | Species H :    hydro orbital   2 p accepted.
  | Species H :    hydro orbital   2 p accepted.
  | Species H :    hydro orbital   3 d accepted.
  | Species C :   atomic orbital   1 s accepted.
  | Species C :    hydro orbital   2 s accepted.
  | Species C :   atomic orbital   2 s accepted.
  | Species C :    hydro orbital   3 s accepted.
  | Species C :    hydro orbital   3 p accepted.
  | Species C :   atomic orbital   2 p accepted.
  | Species C :    hydro orbital   2 p accepted.
  | Species C :    hydro orbital   3 d accepted.
  | Species C :    hydro orbital   3 d accepted.
  | Species C :    hydro orbital   4 f accepted.
  | Species C :    hydro orbital   5 g accepted.
  | Species N :   atomic orbital   1 s accepted.
  | Species N :    hydro orbital   3 s accepted.
  | Species N :   atomic orbital   2 s accepted.
  | Species N :    hydro orbital   1 s accepted.
  | Species N :    hydro orbital   3 p accepted.
  | Species N :   atomic orbital   2 p accepted.
  | Species N :    hydro orbital   2 p accepted.
  | Species N :    hydro orbital   3 d accepted.
  | Species N :    hydro orbital   3 d accepted.
  | Species N :    hydro orbital   4 f accepted.
  | Species N :    hydro orbital   5 g accepted.
  | Species O :   atomic orbital   1 s accepted.
  | Species O :    hydro orbital   3 s accepted.
  | Species O :   atomic orbital   2 s accepted.
  | Species O :    hydro orbital   1 s accepted.
  | Species O :    hydro orbital   3 p accepted.
  | Species O :   atomic orbital   2 p accepted.
  | Species O :    hydro orbital   2 p accepted.
  | Species O :    hydro orbital   3 d accepted.
  | Species O :    hydro orbital   3 d accepted.
  | Species O :    hydro orbital   4 f accepted.
  | Species O :    hydro orbital   5 g accepted.
 
  Basis size parameters after reduction:
  | Total number of radial functions:       40
  | Total number of basis functions :      840
 
  Testing on-site integration grid accuracy.
  |  Species  Function  <phi|h_atom|phi> (log., in eV)  <phi|h_atom|phi> (rad., in eV)
           1        1                 -6.4869821809                 -6.4870742227
           1        2                 13.5044133542                 13.5041049177
           1        3                 32.7854418792                 32.7779770519
           1        4                 33.7995553101                 33.7152624900 ***
           1        5                 28.8558651799                 28.8558652046
           1        6                 59.6361831893                 59.6362535845
           1        7                 60.2733718049                 60.2733715484
           2        8               -273.2358277112               -273.2358261765
           2        9                -10.7624923123                -10.7625144012
           2       10                 17.4634079027                 17.4634252127
           2       11                 53.0363661832                 53.0366180446
           2       12                 15.0981351967                 15.0981317714
           2       13                  3.8522181899                  3.8522770949
           2       14                 12.1181835661                 12.1206868578
           2       15                 29.4320778347                 29.4320780959
           2       16                 54.8753777694                 54.8752901936
           2       17                 59.3533975461                 59.3533974833
           2       18                 93.4537491195                 93.4537492066
           3       19               -384.4698526889               -384.4698499465
           3       20                 12.5691022037                 12.5690910168
           3       21                -15.7489097511                -15.7489165588
           3       22                 27.0978334940                 27.0985589490
           3       23                 18.5949116966                 18.5949125562
           3       24                  1.2212828291                  1.2212855301
           3       25                 13.4428926797                 13.4434051125
           3       26                 35.9380614500                 35.9380613666
           3       27                 39.9231532098                 39.9231654735
           3       28                 72.9957335806                 72.9957336833
           3       29                116.4231321147                116.4231321431
           4       30               -514.2564144315               -514.2564099626
           4       31                 15.1726678541                 15.1726530877
           4       32                -21.5447785304                -21.5447874973
           4       33                 14.4944558459                 14.4944698284
           4       34                 20.8882174564                 20.8882178906
           4       35                 -2.4850315908                 -2.4850322289
           4       36                 13.8600193195                 13.8599826966
           4       37                 45.8243383616                 45.8243383675
           4       38                 52.1840606465                 52.1840622440
           4       39                 85.4074185510                 85.4074185819
           4       40                142.0983717302                142.0983717339
 * Note: Onsite integrals marked "***" above are less accurate than
 * onsite_accuracy_threshold =    0.03000 eV. Usually, this is harmless.
 * When in doubt, tighten the "radial" and/or "radial_multiplier" flags to check.

  Preparing densities etc. for the partition functions (integrals / Hartree potential).

  Preparations completed.
  max(cpu_time)          :      0.236 s.
  Wall clock time (cpu1) :      0.233 s.
------------------------------------------------------------

------------------------------------------------------------
          Begin self-consistency loop: Initialization.

          Date     :  20170309, Time     :  190611.325
------------------------------------------------------------

  Initializing index lists of integration centers etc. from given atomic structure:
  | Number of centers in hartree potential         :        32
  | Number of centers in hartree multipole         :        32
  | Number of centers in electron density summation:        32
  | Number of centers in basis integrals           :        32
  | Number of centers in integrals                 :        32
  | Number of centers in hamiltonian               :        32
  Using modified Scalapack Eigenvalue solver (ELPA)
  * Using 32 tasks for Scalapack Eigenvalue solver.
  Detailed listing of tasks and assigned k-points:
  (for non-periodic systems, the "k-point" denotes an internal label only)
   Task     0 k-point     1 on eos036
   Task     1 k-point     1 on eos036
   Task     2 k-point     1 on eos036
   Task     3 k-point     1 on eos036
   Task     4 k-point     1 on eos036
   Task     5 k-point     1 on eos036
   Task     6 k-point     1 on eos036
   Task     7 k-point     1 on eos036
   Task     8 k-point     1 on eos036
   Task     9 k-point     1 on eos036
   Task    10 k-point     1 on eos036
   Task    11 k-point     1 on eos036
   Task    12 k-point     1 on eos036
   Task    13 k-point     1 on eos036
   Task    14 k-point     1 on eos036
   Task    15 k-point     1 on eos036
   Task    16 k-point     1 on eos036
   Task    17 k-point     1 on eos036
   Task    18 k-point     1 on eos036
   Task    19 k-point     1 on eos036
   Task    20 k-point     1 on eos036
   Task    21 k-point     1 on eos036
   Task    22 k-point     1 on eos036
   Task    23 k-point     1 on eos036
   Task    24 k-point     1 on eos036
   Task    25 k-point     1 on eos036
   Task    26 k-point     1 on eos036
   Task    27 k-point     1 on eos036
   Task    28 k-point     1 on eos036
   Task    29 k-point     1 on eos036
   Task    30 k-point     1 on eos036
   Task    31 k-point     1 on eos036
  Tasks:    32 split into      8 X      4 BLACS grid
  Calculating blocksize based on n_basis =          840 max_nprow =            8 max_npcol =            4
  Scalapack blocksize set to:           16
  Required Scalapack workspace - INTEGER:            1 REAL:             1
  Partitioning the integration grid into batches with parallel hashing+maxmin method.
  | Number of batches:     4996
  | Maximal batch size:     198
  | Minimal batch size:      34
  | Average batch size:     105.630
  | Standard deviation of batch sizes:      36.161

  Integration load balanced across    32 MPI tasks.
  Work distribution over tasks is as follows:
  Task     0 has      16449 integration points.
  Task     1 has      16447 integration points.
  Task     2 has      16574 integration points.
  Task     3 has      16479 integration points.
  Task     4 has      16468 integration points.
  Task     5 has      16449 integration points.
  Task     6 has      16439 integration points.
  Task     7 has      16472 integration points.
  Task     8 has      16444 integration points.
  Task     9 has      16536 integration points.
  Task    10 has      16473 integration points.
  Task    11 has      16583 integration points.
  Task    12 has      16440 integration points.
  Task    13 has      16588 integration points.
  Task    14 has      16457 integration points.
  Task    15 has      16489 integration points.
  Task    16 has      16456 integration points.
  Task    17 has      16492 integration points.
  Task    18 has      16450 integration points.
  Task    19 has      16495 integration points.
  Task    20 has      16452 integration points.
  Task    21 has      16458 integration points.
  Task    22 has      16487 integration points.
  Task    23 has      16445 integration points.
  Task    24 has      16449 integration points.
  Task    25 has      16454 integration points.
  Task    26 has      16579 integration points.
  Task    27 has      16578 integration points.
  Task    28 has      16484 integration points.
  Task    29 has      16504 integration points.
  Task    30 has      16583 integration points.
  Task    31 has      16575 integration points.
  Initializing partition tables, free-atom densities, potentials, etc. across the integration grid (initialize_grid_storage).
  | initialize_grid_storage: Actual outermost partition radius vs. multipole_radius_free
  | (-- VB: in principle, multipole_radius_free should be larger, hence this output)
  | Species        1: Confinement radius =              6.000000000000000 AA, multipole_radius_free =              6.071692442739658 AA.
  | Species        1: outer_partition_radius set to              6.071692442739658 AA .
  | Species        2: Confinement radius =              6.000000000000000 AA, multipole_radius_free =              6.029870734432609 AA.
  | Species        2: outer_partition_radius set to              6.029870734432609 AA .
  | Species        3: Confinement radius =              6.000000000000000 AA, multipole_radius_free =              6.058726835495003 AA.
  | Species        3: outer_partition_radius set to              6.058726835495003 AA .
  | Species        4: Confinement radius =              6.000000000000000 AA, multipole_radius_free =              6.064445521808699 AA.
  | Species        4: outer_partition_radius set to              6.064445521808699 AA .
  | Original list of interatomic distances with          32 x         32 entries is created.
  | Net number of integration points:   527728
  | of which are non-zero points    :   412146
  Obtaining max. number of non-zero basis functions in each batch (get_n_compute_maxes).
  | Maximal number of non-zero basis functions:      802 in task     0
  | Maximal number of non-zero basis functions:      789 in task     1
  | Maximal number of non-zero basis functions:      781 in task     2
  | Maximal number of non-zero basis functions:      780 in task     3
  | Maximal number of non-zero basis functions:      795 in task     4
  | Maximal number of non-zero basis functions:      797 in task     5
  | Maximal number of non-zero basis functions:      789 in task     6
  | Maximal number of non-zero basis functions:      800 in task     7
  | Maximal number of non-zero basis functions:      800 in task     8
  | Maximal number of non-zero basis functions:      798 in task     9
  | Maximal number of non-zero basis functions:      793 in task    10
  | Maximal number of non-zero basis functions:      793 in task    11
  | Maximal number of non-zero basis functions:      796 in task    12
  | Maximal number of non-zero basis functions:      792 in task    13
  | Maximal number of non-zero basis functions:      799 in task    14
  | Maximal number of non-zero basis functions:      791 in task    15
  | Maximal number of non-zero basis functions:      780 in task    16
  | Maximal number of non-zero basis functions:      790 in task    17
  | Maximal number of non-zero basis functions:      793 in task    18
  | Maximal number of non-zero basis functions:      798 in task    19
  | Maximal number of non-zero basis functions:      791 in task    20
  | Maximal number of non-zero basis functions:      801 in task    21
  | Maximal number of non-zero basis functions:      799 in task    22
  | Maximal number of non-zero basis functions:      798 in task    23
  | Maximal number of non-zero basis functions:      802 in task    24
  | Maximal number of non-zero basis functions:      782 in task    25
  | Maximal number of non-zero basis functions:      801 in task    26
  | Maximal number of non-zero basis functions:      797 in task    27
  | Maximal number of non-zero basis functions:      792 in task    28
  | Maximal number of non-zero basis functions:      780 in task    29
  | Maximal number of non-zero basis functions:      793 in task    30
  | Maximal number of non-zero basis functions:      781 in task    31
  Selecting the method for density update.
  Loop over occupied states selected for charge density update.
  Integrating Hamiltonian matrix: batch-based integration.
  Time summed over all CPUs for integration: real work       23.983 s, elapsed       25.304 s
  Integrating overlap matrix.
  Time summed over all CPUs for integration: real work       14.878 s, elapsed       15.567 s
  Deallocating overlap matrix.

  Updating Kohn-Sham eigenvalues, eigenvectors, occupation numbers, and Fermi level.
  Solving generalized eigenproblem
  Solving real symmetric generalised eigenvalue problem by standard ScaLAPACK.
  Transforming overlap matrix with ScaLAPACK and checking for singularities.
  : Overlap matrix is nonsingular, using Cholesky decomposition
  | Lowest eigenvalue:  0.913284E-04
  Factoring overlap matrix with Cholesky decomposition
  Using Cholesky factor for transformation
  Using 1-stage real ELPA solver
  Determining occupation numbers for Kohn-Sham eigenstates.
  | Chemical potential (Fermi level) in eV                 : -.96206387E+01
  | Error in electron count due to remaining E_F inaccuracy: 0.00000000E+00
  | Maximum occupation number of highest empty state:  0.00E+00

  Writing Kohn-Sham eigenvalues.

  State    Occupation    Eigenvalue [Ha]    Eigenvalue [eV]
      1       2.00000         -18.974230         -516.31508
      2       2.00000         -18.973971         -516.30801
      3       2.00000         -18.973902         -516.30613
      4       2.00000         -14.253945         -387.86959
      5       2.00000         -14.252524         -387.83090
      6       2.00000         -14.251207         -387.79506
      7       2.00000         -10.171610         -276.78360
      8       2.00000         -10.171303         -276.77525
      9       2.00000         -10.170912         -276.76460
     10       2.00000         -10.166323         -276.63972
     11       2.00000         -10.148671         -276.15940
     12       2.00000         -10.146675         -276.10508
     13       2.00000         -10.135319         -275.79607
     14       2.00000         -10.133903         -275.75754
     15       2.00000         -10.131757         -275.69914
     16       2.00000          -1.134177          -30.86252
     17       2.00000          -1.131962          -30.80224
     18       2.00000          -1.130423          -30.76037
     19       2.00000          -1.015236          -27.62598
     20       2.00000          -1.007367          -27.41186
     21       2.00000          -1.001784          -27.25992
     22       2.00000          -0.881533          -23.98774
     23       2.00000          -0.874739          -23.80286
     24       2.00000          -0.848823          -23.09764
     25       2.00000          -0.817124          -22.23509
     26       2.00000          -0.774786          -21.08299
     27       2.00000          -0.765509          -20.83057
     28       2.00000          -0.707186          -19.24350
     29       2.00000          -0.687881          -18.71819
     30       2.00000          -0.667784          -18.17132
     31       2.00000          -0.637293          -17.34162
     32       2.00000          -0.622325          -16.93433
     33       2.00000          -0.613354          -16.69022
     34       2.00000          -0.597827          -16.26771
     35       2.00000          -0.593972          -16.16279
     36       2.00000          -0.579043          -15.75657
     37       2.00000          -0.566598          -15.41791
     38       2.00000          -0.561525          -15.27987
     39       2.00000          -0.557068          -15.15858
     40       2.00000          -0.554683          -15.09370
     41       2.00000          -0.547741          -14.90480
     42       2.00000          -0.536878          -14.60921
     43       2.00000          -0.535184          -14.56310
     44       2.00000          -0.528632          -14.38481
     45       2.00000          -0.524209          -14.26445
     46       2.00000          -0.516016          -14.04151
     47       2.00000          -0.514947          -14.01243
     48       2.00000          -0.503245          -13.69400
     49       2.00000          -0.491882          -13.38480
     50       2.00000          -0.483899          -13.16757
     51       2.00000          -0.482178          -13.12072
     52       2.00000          -0.465733          -12.67323
     53       2.00000          -0.416846          -11.34297
     54       2.00000          -0.407478          -11.08804
     55       2.00000          -0.401448          -10.92396
     56       2.00000          -0.383997          -10.44910
     57       2.00000          -0.380715          -10.35979
     58       2.00000          -0.375580          -10.22006
     59       0.00000          -0.170231           -4.63222
     60       0.00000          -0.164748           -4.48303
     61       0.00000          -0.156621           -4.26186
     62       0.00000          -0.087592           -2.38349
     63       0.00000          -0.067558           -1.83836
     64       0.00000          -0.063713           -1.73372
     65       0.00000          -0.057527           -1.56538
     66       0.00000          -0.042897           -1.16728
     67       0.00000          -0.039141           -1.06507
     68       0.00000          -0.032964           -0.89700
     69       0.00000          -0.030668           -0.83451
     70       0.00000          -0.025917           -0.70523
     71       0.00000          -0.019562           -0.53232
     72       0.00000          -0.018305           -0.49810
     73       0.00000          -0.014645           -0.39850
     74       0.00000          -0.013716           -0.37323
     75       0.00000          -0.006949           -0.18910
     76       0.00000          -0.004651           -0.12657
     77       0.00000           0.005229            0.14228
     78       0.00000           0.009746            0.26519
     79       0.00000           0.014626            0.39800
     80       0.00000           0.015648            0.42580
     81       0.00000           0.022817            0.62087
     82       0.00000           0.027661            0.75268
     83       0.00000           0.041077            1.11776
     84       0.00000           0.044629            1.21443
     85       0.00000           0.047322            1.28770
     86       0.00000           0.053709            1.46149
     87       0.00000           0.061311            1.66836
     88       0.00000           0.063758            1.73494
     89       0.00000           0.069093            1.88012
     90       0.00000           0.071724            1.95170
     91       0.00000           0.078331            2.13149
     92       0.00000           0.084027            2.28648
     93       0.00000           0.090056            2.45056
     94       0.00000           0.097568            2.65496
     95       0.00000           0.099059            2.69554
     96       0.00000           0.102130            2.77910
     97       0.00000           0.106880            2.90835
     98       0.00000           0.115241            3.13586
     99       0.00000           0.119630            3.25530
    100       0.00000           0.123852            3.37017
    101       0.00000           0.128111            3.48609
    102       0.00000           0.131154            3.56887
    103       0.00000           0.137996            3.75506
    104       0.00000           0.145522            3.95984
    105       0.00000           0.150775            4.10280
    106       0.00000           0.153262            4.17046
    107       0.00000           0.160386            4.36433
    108       0.00000           0.166218            4.52303
    109       0.00000           0.168851            4.59467
    110       0.00000           0.171210            4.65887
    111       0.00000           0.175326            4.77086
    112       0.00000           0.176744            4.80944
    113       0.00000           0.185569            5.04959
    114       0.00000           0.193291            5.25972
    115       0.00000           0.195222            5.31227
    116       0.00000           0.201063            5.47120
    117       0.00000           0.203993            5.55094
    118       0.00000           0.209939            5.71274
    119       0.00000           0.215781            5.87171
    120       0.00000           0.223586            6.08410
    121       0.00000           0.231579            6.30158
    122       0.00000           0.231679            6.30431
    123       0.00000           0.238429            6.48800
    124       0.00000           0.241358            6.56769
    125       0.00000           0.247959            6.74730
    126       0.00000           0.252305            6.86556
    127       0.00000           0.255486            6.95213
    128       0.00000           0.262458            7.14183
    129       0.00000           0.268747            7.31298

  Highest occupied state (VBM) at    -10.22005748 eV
  | Occupation number:      2.00000000

  Lowest unoccupied state (CBM) at    -4.63222208 eV
  | Occupation number:      0.00000000

  Overall HOMO-LUMO gap:      5.58783541 eV.
  Calculating total energy contributions from superposition of free atom densities.

  Total energy components:
  | Sum of eigenvalues            :        -437.76572705 Ha      -11912.21151980 eV
  | XC energy correction          :         -98.81478635 Ha       -2688.88714564 eV
  | XC potential correction       :         127.01537035 Ha        3456.26408012 eV
  | Free-atom electrostatic energy:        -333.69280551 Ha       -9080.24323571 eV
  | Hartree energy correction     :           0.00000000 Ha           0.00000000 eV
  | MBD@rsSCS energy              :           0.00000000 Ha           0.00000000 eV
  | Entropy correction            :          -0.00000000 Ha          -0.00000000 eV
  | ---------------------------
  | Total energy                  :        -743.25794856 Ha      -20225.07782102 eV
  | Total energy, T -> 0          :        -743.25794856 Ha      -20225.07782102 eV  <-- do not rely on this value for anything but (periodic) metals
  | Electronic free energy        :        -743.25794856 Ha      -20225.07782102 eV

  Derived energy quantities:
  | Kinetic energy                :         735.15611798 Ha       20004.61579390 eV
  | Electrostatic energy          :       -1379.59928019 Ha      -37540.80646928 eV
  | Energy correction for multipole
  | error in Hartree potential    :           0.00000000 Ha           0.00000000 eV
  | Sum of eigenvalues per atom                           :        -372.25660999 eV
  | Total energy (T->0) per atom                          :        -632.03368191 eV  <-- do not rely on this value for anything but (periodic) metals
  | Electronic free energy per atom                       :        -632.03368191 eV
  Initialize hartree_potential_storage
  Max. number of atoms included in rho_multipole:           32

  End scf initialization - timings             :  max(cpu_time)    wall_clock(cpu1)
  | Time for scf. initialization               :        2.048 s           2.048 s
  | Boundary condition initialization          :        0.000 s           0.000 s
  | Integration                                :        1.300 s           1.299 s
  | Solution of K.-S. eqns.                    :        0.076 s           0.074 s
  | Grid partitioning                          :        0.300 s           0.296 s
  | Preloading free-atom quantities on grid    :        0.028 s           0.028 s
  | Free-atom superposition energy             :        0.044 s           0.042 s
  | Total energy evaluation                    :        0.000 s           0.001 s
------------------------------------------------------------

------------------------------------------------------------
          Begin self-consistency iteration #    1

  Date     :  20170309, Time     :  190613.374
------------------------------------------------------------
  Evaluating new KS density.
  Integration grid: deviation in total charge (<rho> - N_e) =   9.947598E-14
  Pulay mixing of updated and previous charge densities.

  Evaluating partitioned Hartree potential by multipole expansion.
  | Analytical far-field extrapolation by fixed multipoles:
  | Hartree multipole sum: apparent total charge =  -0.253298E-04
  Summing up the Hartree potential.
  Time summed over all CPUs for potential: real work        9.631 s, elapsed        9.906 s
  | RMS charge density error from multipole expansion :   0.107553E-01

  Integrating Hamiltonian matrix: batch-based integration.
  Time summed over all CPUs for integration: real work       24.388 s, elapsed       25.792 s

  Updating Kohn-Sham eigenvalues, eigenvectors, occupation numbers, and Fermi level.
  Solving generalized eigenproblem
  Solving real symmetric generalised eigenvalue problem by standard ScaLAPACK.
  Using Cholesky factor for transformation
  Using 2-stage real ELPA solver
  K-Point:    1, Trafo times: 1-stage=     0.021 s, 2-stage=     0.019 s ==> Using 2-stage solver
  Determining occupation numbers for Kohn-Sham eigenstates.
  | Chemical potential (Fermi level) in eV                 : -.39476290E+01
  | Error in electron count due to remaining E_F inaccuracy: 0.00000000E+00
  | Maximum occupation number of highest empty state:  0.00E+00

  Writing Kohn-Sham eigenvalues.

  State    Occupation    Eigenvalue [Ha]    Eigenvalue [eV]
      1       2.00000         -18.624432         -506.79658
      2       2.00000         -18.622278         -506.73796
      3       2.00000         -18.601535         -506.17352
      4       2.00000         -14.008905         -381.20169
      5       2.00000         -13.996607         -380.86705
      6       2.00000         -13.981207         -380.44801
      7       2.00000         -10.075698         -274.17369
      8       2.00000         -10.062151         -273.80505
      9       2.00000         -10.044842         -273.33407
     10       2.00000          -9.978797         -271.53688
     11       2.00000          -9.974627         -271.42340
     12       2.00000          -9.905337         -269.53794
     13       2.00000          -9.854482         -268.15409
     14       2.00000          -9.846040         -267.92437
     15       2.00000          -9.844486         -267.88211
     16       2.00000          -0.977988          -26.61242
     17       2.00000          -0.968292          -26.34858
     18       2.00000          -0.948652          -25.81414
     19       2.00000          -0.879083          -23.92106
     20       2.00000          -0.863371          -23.49353
     21       2.00000          -0.856020          -23.29348
     22       2.00000          -0.742745          -20.21112
     23       2.00000          -0.729210          -19.84281
     24       2.00000          -0.695301          -18.92010
     25       2.00000          -0.684449          -18.62480
     26       2.00000          -0.639267          -17.39533
     27       2.00000          -0.634568          -17.26746
     28       2.00000          -0.588585          -16.01622
     29       2.00000          -0.573932          -15.61748
     30       2.00000          -0.540497          -14.70766
     31       2.00000          -0.509317          -13.85921
     32       2.00000          -0.493315          -13.42380
     33       2.00000          -0.475981          -12.95210
     34       2.00000          -0.463752          -12.61933
     35       2.00000          -0.455312          -12.38967
     36       2.00000          -0.445553          -12.12411
     37       2.00000          -0.441758          -12.02086
     38       2.00000          -0.425303          -11.57309
     39       2.00000          -0.415787          -11.31415
     40       2.00000          -0.408650          -11.11993
     41       2.00000          -0.401474          -10.92467
     42       2.00000          -0.395833          -10.77116
     43       2.00000          -0.388648          -10.57566
     44       2.00000          -0.387453          -10.54314
     45       2.00000          -0.383285          -10.42973
     46       2.00000          -0.378505          -10.29965
     47       2.00000          -0.365493           -9.94556
     48       2.00000          -0.362204           -9.85606
     49       2.00000          -0.350076           -9.52604
     50       2.00000          -0.346158           -9.41944
     51       2.00000          -0.339563           -9.23998
     52       2.00000          -0.336908           -9.16772
     53       2.00000          -0.257406           -7.00439
     54       2.00000          -0.238633           -6.49353
     55       2.00000          -0.232549           -6.32798
     56       2.00000          -0.216911           -5.90245
     57       2.00000          -0.214872           -5.84696
     58       2.00000          -0.200262           -5.44940
     59       0.00000          -0.068511           -1.86427
     60       0.00000          -0.059351           -1.61503
     61       0.00000          -0.042531           -1.15734
     62       0.00000          -0.038398           -1.04486
     63       0.00000          -0.024713           -0.67249
     64       0.00000          -0.020707           -0.56347
     65       0.00000          -0.016790           -0.45687
     66       0.00000           0.003975            0.10815
     67       0.00000           0.009370            0.25496
     68       0.00000           0.013373            0.36391
     69       0.00000           0.016972            0.46183
     70       0.00000           0.027813            0.75682
     71       0.00000           0.029558            0.80432
     72       0.00000           0.038839            1.05685
     73       0.00000           0.044222            1.20334
     74       0.00000           0.050317            1.36921
     75       0.00000           0.052513            1.42896
     76       0.00000           0.060887            1.65681
     77       0.00000           0.068943            1.87603
     78       0.00000           0.071237            1.93847
     79       0.00000           0.077010            2.09555
     80       0.00000           0.085069            2.31485
     81       0.00000           0.087288            2.37523
     82       0.00000           0.094333            2.56692
     83       0.00000           0.095622            2.60201
     84       0.00000           0.102233            2.78191
     85       0.00000           0.107315            2.92020
     86       0.00000           0.119142            3.24202
     87       0.00000           0.120790            3.28685
     88       0.00000           0.124992            3.40119
     89       0.00000           0.129039            3.51133
     90       0.00000           0.134164            3.65078
     91       0.00000           0.137059            3.72955
     92       0.00000           0.143727            3.91101
     93       0.00000           0.148321            4.03603
     94       0.00000           0.158849            4.32251
     95       0.00000           0.164225            4.46879
     96       0.00000           0.166525            4.53138
     97       0.00000           0.170933            4.65132
     98       0.00000           0.175933            4.78739
     99       0.00000           0.181962            4.95145
    100       0.00000           0.187353            5.09814
    101       0.00000           0.190196            5.17551
    102       0.00000           0.192633            5.24182
    103       0.00000           0.198870            5.41152
    104       0.00000           0.200523            5.45651
    105       0.00000           0.208672            5.67825
    106       0.00000           0.212064            5.77056
    107       0.00000           0.218964            5.95832
    108       0.00000           0.220621            6.00340
    109       0.00000           0.222890            6.06515
    110       0.00000           0.229196            6.23675
    111       0.00000           0.231934            6.31124
    112       0.00000           0.236441            6.43389
    113       0.00000           0.243687            6.63107
    114       0.00000           0.248783            6.76972
    115       0.00000           0.253742            6.90468
    116       0.00000           0.255790            6.96041
    117       0.00000           0.264696            7.20275
    118       0.00000           0.269810            7.34192
    119       0.00000           0.274769            7.47686
    120       0.00000           0.284910            7.75280
    121       0.00000           0.289123            7.86744
    122       0.00000           0.291513            7.93247
    123       0.00000           0.295949            8.05319
    124       0.00000           0.302848            8.24092
    125       0.00000           0.311273            8.47018
    126       0.00000           0.313693            8.53601
    127       0.00000           0.325663            8.86173
    128       0.00000           0.329699            8.97156
    129       0.00000           0.336985            9.16982

  Highest occupied state (VBM) at     -5.44940241 eV
  | Occupation number:      2.00000000

  Lowest unoccupied state (CBM) at    -1.86426886 eV
  | Occupation number:      0.00000000

  Overall HOMO-LUMO gap:      3.58513354 eV.

  Total energy components:
  | Sum of eigenvalues            :        -418.14868672 Ha      -11378.40469241 eV
  | XC energy correction          :        -100.73865709 Ha       -2741.23833200 eV
  | XC potential correction       :         129.50936412 Ha        3524.12910340 eV
  | Free-atom electrostatic energy:        -333.69280551 Ha       -9080.24323571 eV
  | Hartree energy correction     :         -19.62338393 Ha        -533.97944544 eV
  | MBD@rsSCS energy              :           0.00000000 Ha           0.00000000 eV
  | Entropy correction            :           0.00000000 Ha           0.00000000 eV
  | ---------------------------
  | Total energy                  :        -742.69416913 Ha      -20209.73660215 eV
  | Total energy, T -> 0          :        -742.69416913 Ha      -20209.73660215 eV  <-- do not rely on this value for anything but (periodic) metals
  | Electronic free energy        :        -742.69416913 Ha      -20209.73660215 eV

  Derived energy quantities:
  | Kinetic energy                :         743.99300044 Ha       20245.07960024 eV
  | Electrostatic energy          :       -1385.94851248 Ha      -37713.57787039 eV
  | Energy correction for multipole
  | error in Hartree potential    :          -0.04218970 Ha          -1.14804024 eV
  | Sum of eigenvalues per atom                           :        -355.57514664 eV
  | Total energy (T->0) per atom                          :        -631.55426882 eV  <-- do not rely on this value for anything but (periodic) metals
  | Electronic free energy per atom                       :        -631.55426882 eV

  Self-consistency convergence accuracy:
  | Change of charge density      :  0.9046E+00
  | Change of sum of eigenvalues  :  0.5338E+03 eV
  | Change of total energy        :  0.1534E+02 eV

  End self-consistency iteration #     1       :  max(cpu_time)    wall_clock(cpu1)
  | Time for this iteration                    :        1.704 s           1.704 s
[...]
   Multipole                     : -0.370242E+00 -0.344309E+00 -0.209901E+00
   Pulay + GGA                   : -0.873928E+01 -0.870229E+01 -0.415076E+01
   MBD@rsSCS                     : -0.521181E-02 -0.230361E-01  0.254251E-02
   ----------------------------------------------------------------
   Total forces(  20)            :  0.664367E-02 -0.107494E-01 -0.181612E-02
  atom #   21
   Hellmann-Feynman              : -0.167297E-01 -0.424276E-02  0.689045E-01
   Ionic forces                  :  0.000000E+00  0.000000E+00  0.000000E+00
   Multipole                     :  0.267616E-01  0.246255E-01 -0.301728E-01
   Pulay + GGA                   : -0.187891E-01 -0.100288E-01 -0.566164E-01
   MBD@rsSCS                     :  0.201509E-02  0.118420E-01 -0.206611E-02
   ----------------------------------------------------------------
   Total forces(  21)            : -0.674211E-02  0.221959E-01 -0.199508E-01
  atom #   22
   Hellmann-Feynman              : -0.335630E-01  0.221980E-01 -0.454954E-01
   Ionic forces                  :  0.000000E+00  0.000000E+00  0.000000E+00
   Multipole                     : -0.639576E-02 -0.615550E-02  0.503003E-02
   Pulay + GGA                   :  0.435147E-01 -0.252029E-01  0.479249E-01
   MBD@rsSCS                     : -0.946323E-04 -0.105013E-01  0.161200E-01
   ----------------------------------------------------------------
   Total forces(  22)            :  0.346126E-02 -0.196617E-01  0.235795E-01
  atom #   23
   Hellmann-Feynman              :  0.666656E+00 -0.124295E+00 -0.930461E+00
   Ionic forces                  :  0.000000E+00  0.000000E+00  0.000000E+00
   Multipole                     : -0.574848E-01  0.605210E-01  0.286358E+00
   Pulay + GGA                   : -0.596206E+00  0.737660E-01  0.630318E+00
   MBD@rsSCS                     : -0.140295E-01  0.679645E-03  0.151489E-01
   ----------------------------------------------------------------
   Total forces(  23)            : -0.106386E-02  0.106711E-01  0.136443E-02
  atom #   24
   Hellmann-Feynman              : -0.293431E-01 -0.648811E-02  0.553192E-01
   Ionic forces                  :  0.000000E+00  0.000000E+00  0.000000E+00
   Multipole                     : -0.935670E-02 -0.239696E-01 -0.273770E-01
   Pulay + GGA                   :  0.407288E-01  0.359242E-01 -0.233000E-01
   MBD@rsSCS                     : -0.561560E-02  0.296397E-02  0.886899E-02
   ----------------------------------------------------------------
   Total forces(  24)            : -0.358659E-02  0.843043E-02  0.135112E-01
  atom #   25
   Hellmann-Feynman              :  0.330772E-01  0.116402E-01  0.242014E-01
   Ionic forces                  :  0.000000E+00  0.000000E+00  0.000000E+00
   Multipole                     :  0.227701E-01 -0.620070E-02  0.105797E-01
   Pulay + GGA                   : -0.600705E-01 -0.920534E-02 -0.298867E-01
   MBD@rsSCS                     : -0.136294E-01  0.319695E-02  0.106633E-01
   ----------------------------------------------------------------
   Total forces(  25)            : -0.178526E-01 -0.568923E-03  0.155578E-01
  atom #   26
   Hellmann-Feynman              : -0.195557E-01  0.310336E-01  0.294646E-01
   Ionic forces                  :  0.000000E+00  0.000000E+00  0.000000E+00
   Multipole                     : -0.830175E-02  0.221408E-01 -0.254159E-01
   Pulay + GGA                   :  0.250418E-01 -0.533198E-01 -0.552450E-02
   MBD@rsSCS                     : -0.577129E-02 -0.282851E-02  0.123058E-01
   ----------------------------------------------------------------
   Total forces(  26)            : -0.858693E-02 -0.297389E-02  0.108300E-01
  atom #   27
   Hellmann-Feynman              :  0.706866E+00  0.506850E+00  0.158337E+01
   Ionic forces                  :  0.000000E+00  0.000000E+00  0.000000E+00
   Multipole                     :  0.143658E+00  0.649891E-01  0.142323E-01
   Pulay + GGA                   : -0.860649E+00 -0.563868E+00 -0.161041E+01
   MBD@rsSCS                     :  0.165195E-01 -0.253925E-01  0.713250E-02
   ----------------------------------------------------------------
   Total forces(  27)            :  0.639491E-02 -0.174215E-01 -0.568271E-02
  atom #   28
   Hellmann-Feynman              : -0.189761E+01 -0.108381E+01 -0.843523E+00
   Ionic forces                  :  0.000000E+00  0.000000E+00  0.000000E+00
   Multipole                     :  0.119244E+00  0.919003E-01  0.479904E-01
   Pulay + GGA                   :  0.178054E+01  0.989270E+00  0.795552E+00
   MBD@rsSCS                     :  0.191902E-01 -0.104934E-01  0.113742E-01
   ----------------------------------------------------------------
   Total forces(  28)            :  0.213654E-01 -0.131367E-01  0.113936E-01
  atom #   29
   Hellmann-Feynman              :  0.586836E-01 -0.337619E-01  0.581370E-02
   Ionic forces                  :  0.000000E+00  0.000000E+00  0.000000E+00
   Multipole                     : -0.381206E-01 -0.144322E-01 -0.147956E-01
   Pulay + GGA                   : -0.246208E-01  0.607518E-01  0.693037E-02
   MBD@rsSCS                     :  0.387298E-03 -0.742169E-02 -0.204610E-04
   ----------------------------------------------------------------
   Total forces(  29)            : -0.367044E-02  0.513596E-02 -0.207198E-02
  atom #   30
   Hellmann-Feynman              :  0.524692E-01 -0.140704E-02  0.230190E-01
   Ionic forces                  :  0.000000E+00  0.000000E+00  0.000000E+00
   Multipole                     : -0.150776E-01 -0.393945E-01 -0.763545E-02
   Pulay + GGA                   : -0.438637E-01  0.466126E-01 -0.169603E-01
   MBD@rsSCS                     :  0.604953E-02 -0.304860E-03  0.285107E-02
   ----------------------------------------------------------------
   Total forces(  30)            : -0.422649E-03  0.550613E-02  0.127437E-02
  atom #   31
   Hellmann-Feynman              :  0.287776E-01  0.157153E-01  0.537873E-03
   Ionic forces                  :  0.000000E+00  0.000000E+00  0.000000E+00
   Multipole                     :  0.120307E-01  0.695347E-02 -0.259922E-01
   Pulay + GGA                   : -0.341570E-01 -0.331644E-01  0.262657E-01
   MBD@rsSCS                     :  0.145191E-01 -0.930996E-02  0.814267E-02
   ----------------------------------------------------------------
   Total forces(  31)            :  0.211704E-01 -0.198056E-01  0.895403E-02
  atom #   32
   Hellmann-Feynman              :  0.977749E-03  0.476618E-01  0.334868E-01
   Ionic forces                  :  0.000000E+00  0.000000E+00  0.000000E+00
   Multipole                     : -0.150992E-01 -0.801363E-02  0.217626E-01
   Pulay + GGA                   :  0.232269E-01 -0.438761E-01 -0.538225E-01
   MBD@rsSCS                     :  0.169708E-01 -0.753555E-02  0.527927E-02
   ----------------------------------------------------------------
   Total forces(  32)            :  0.260763E-01 -0.117635E-01  0.670616E-02

  Removing unitary transformations (pure translations, rotations) from forces on atoms.
  Atomic forces before filtering:
  | Net force on center of mass :   0.312684E-03  0.270605E-03 -0.116077E-03 eV/A
  | Net torque on center of mass:  -0.178213E-02 -0.489807E-03 -0.137079E-02 eV
  Atomic forces after filtering:
  | Net force on center of mass :   0.000000E+00  0.390263E-16  0.000000E+00 eV/A
  | Net torque on center of mass:   0.295026E-16  0.206518E-16  0.177016E-16 eV

  Energy and forces in a compact form:
  | Total energy uncorrected      :         -0.202084087600352E+05 eV
  | Total energy corrected        :         -0.202084087600352E+05 eV  <-- do not rely on this value for anything but (periodic) metals
  | Electronic free energy        :         -0.202084087600352E+05 eV
  Total atomic forces (unitary forces cleaned) [eV/Ang]:
  |   1         -0.248863163226687E-01          0.224223149665143E-01          0.642916404112453E-02
  |   2         -0.107334543145888E-01          0.173773128419720E-01         -0.301441182003470E-02
  |   3          0.454275712199034E-02         -0.135794660107369E-02         -0.715201382264250E-03
  |   4         -0.137221784879225E-01          0.915396875824722E-02          0.375439975029447E-02
  |   5         -0.322418928229762E-01          0.195087567379438E-01          0.503865723726266E-03
  |   6          0.176277750203227E-02         -0.558086305610001E-02          0.386141318888907E-02
  |   7          0.165199996205844E-01          0.143027218356672E-01         -0.200164825914354E-01
  |   8          0.322761658659536E-01         -0.305041442530546E-03         -0.224929296190492E-01
  |   9          0.397241357922914E-01          0.161225260316474E-01          0.681602009356970E-02
  |  10         -0.570983748798209E-02         -0.553313874433130E-02          0.110210228754953E-01
  |  11         -0.595180630844192E-02          0.120627651865273E-02         -0.340271570673400E-02
  |  12         -0.200289972738364E-02          0.563692715829789E-02          0.653832254261469E-02
  |  13          0.164890144562546E-01         -0.271976145478777E-01         -0.466473671493751E-01
  |  14         -0.119503260566404E-02         -0.161471406493044E-02         -0.251214719095881E-01
  |  15          0.204784361173011E-02         -0.228516877105190E-01         -0.188684284914069E-01
  |  16         -0.663065698327380E-02         -0.749077789918961E-02          0.398273204628255E-02
  |  17         -0.454767695739960E-02          0.429042817545872E-01         -0.465179962374158E-02
  |  18         -0.306551883592181E-01         -0.384828802086020E-02          0.356623147847970E-01
  |  19         -0.180388751965199E-01         -0.287713077941108E-01          0.252554366734434E-02
  |  20          0.660651108248359E-02         -0.107446204743200E-01         -0.178245957057815E-02
  |  21         -0.674002376658127E-02          0.221951258185370E-01         -0.199576031419321E-01
  |  22          0.344700666694123E-02         -0.196534265980430E-01          0.235908865522306E-01
  |  23         -0.107285151970568E-02          0.106980776697298E-01          0.137416800304374E-02
  |  24         -0.360299473273329E-02          0.846647740513242E-02          0.135300977725641E-01
  |  25         -0.178605379097195E-01         -0.541966524495589E-03          0.155664272537944E-01
  |  26         -0.858627772847628E-02         -0.294124332734833E-02          0.108311380740255E-01
  |  27          0.636428214000409E-02         -0.174305242253352E-01         -0.565828234528688E-02
  |  28          0.213436738127145E-01         -0.131498324506492E-01          0.114082831602140E-01
  |  29         -0.371104470867265E-02          0.512391963682203E-02         -0.203814810296785E-02
  |  30         -0.450597578437654E-03          0.548822714007399E-02          0.129437785433457E-02
  |  31          0.211547078847077E-01         -0.198296729347490E-01          0.896057796362262E-02
  |  32          0.260612679606778E-01         -0.117642478573612E-01          0.671654610642674E-02

  ------------------------------------ 
  Start decomposition of the XC Energy 
  ------------------------------------ 
  Hartree-Fock part   :          0.000000000 Ha              0.000000000 eV
  ------------------------------------ 
  X Energy            :        -96.973902310 Ha          -2638.794142217 eV
  C Energy GGA        :         -3.868056642 Ha           -105.255176541 eV
  Total XC Energy     :       -100.841958951 Ha          -2744.049318758 eV
  LDA X and C from self-consistent density 
  X Energy LDA        :        -87.989736005 Ha          -2394.322538493 eV
  C Energy LDA        :         -7.531607508 Ha           -204.945467805 eV
  ------------------------------------ 
  End decomposition of the XC Energy 
  ------------------------------------ 
   
  ESP charge fitting starts.
  | Calculation :  00000001  of  00000001
  | Full density
  Computing multipole expansion for total density.
  Generating points for esp charges.
  Partitioning the integration grid into batches with parallel hashing+maxmin method.
  | Number of batches:     3880
  | Maximal batch size:     200
  | Minimal batch size:      53
  | Average batch size:     125.647
  | Standard deviation of batch sizes:      17.662

  Integration load balanced across    32 MPI tasks.
  Work distribution over tasks is as follows:
  Initializing partition tables, free-atom densities, potentials, etc. across the integration grid (initialize_grid_storage).
  | Original list of interatomic distances with          32 x         32 entries is created.
  | Net number of integration points:   487511
  | of which are non-zero points    :   487511
  Summing up potential from multipole expanded  density.
  Summing up the Hartree potential.
  Time summed over all CPUs for potential: real work        6.400 s, elapsed        6.602 s
  Fitting esp charges to potential.
  |
  | ESP charges fitted to the electrostatic potential :
  |
  | Atom         1: C, ESP charge:      0.27673754
  |
  | Atom         2: C, ESP charge:     -0.59645763
  |
  | Atom         3: O, ESP charge:      0.53411714
  |
  | Atom         4: H, ESP charge:     -0.08326205
  |
  | Atom         5: H, ESP charge:     -0.10257137
  |
  | Atom         6: H, ESP charge:     -0.09308832
  |
  | Atom         7: N, ESP charge:      0.64318752
  |
  | Atom         8: C, ESP charge:     -0.35244546
  |
  | Atom         9: C, ESP charge:     -0.46649974
  |
  | Atom        10: O, ESP charge:      0.52407147
  |
  | Atom        11: H, ESP charge:     -0.32908697
  |
  | Atom        12: H, ESP charge:     -0.03318875
  |
  | Atom        13: C, ESP charge:      0.30271742
  |
  | Atom        14: H, ESP charge:     -0.06047066
  |
  | Atom        15: H, ESP charge:     -0.11874399
  |
  | Atom        16: H, ESP charge:     -0.09121309
  |
  | Atom        17: N, ESP charge:      0.58862738
  |
  | Atom        18: C, ESP charge:     -0.56786603
  |
  | Atom        19: C, ESP charge:     -0.23529811
  |
  | Atom        20: O, ESP charge:      0.48511819
  |
  | Atom        21: H, ESP charge:     -0.31717168
  |
  | Atom        22: H, ESP charge:      0.06495023
  |
  | Atom        23: C, ESP charge:      0.63283243
  |
  | Atom        24: H, ESP charge:     -0.19764957
  |
  | Atom        25: H, ESP charge:     -0.18149830
  |
  | Atom        26: H, ESP charge:     -0.14782617
  |
  | Atom        27: N, ESP charge:      0.36476655
  |
  | Atom        28: C, ESP charge:      0.08134942
  |
  | Atom        29: H, ESP charge:     -0.31686257
  |
  | Atom        30: H, ESP charge:     -0.10614846
  |
  | Atom        31: H, ESP charge:     -0.05343420
  |
  | Atom        32: H, ESP charge:     -0.04769218

  RRMS:       0.00278283

  Done.

------------------------------------------------------------------------------
  Final output of selected total energy values:

  The following output summarizes some interesting total energy values
  at the end of a run (AFTER all relaxation, molecular dynamics, etc.).

  | Total energy of the DFT / Hartree-Fock s.c.f. calculation      :         -20208.408760035 eV
  | Final zero-broadening corrected energy (caution - metals only) :         -20208.408760035 eV
  | For reference only, the value of 1 Hartree used in FHI-aims is :             27.211384500 eV

  Before relying on these values, please be sure to understand exactly which
  total energy value is referred to by a given number. Different objects may
  all carry the same name 'total energy'. Definitions:

  Total energy of the DFT / Hartree-Fock s.c.f. calculation:
  | Note that this energy does not include ANY quantities calculated after the
  | s.c.f. cycle, in particular not ANY RPA, MP2, etc. many-body perturbation terms.

  Final zero-broadening corrected energy:
  | For metallic systems only, a broadening of the occupation numbers at the Fermi
  | level can be extrapolated back to zero broadening by an electron-gas inspired
  | formula. For all systems that are not real metals, this value can be
  | meaningless and should be avoided.

------------------------------------------------------------------------------
  Methods described in the following list of references were used in this FHI-aims run.
  If you publish the results, please make sure to cite these reference if they apply.
  FHI-aims is an academic code, and for our developers (often, Ph.D. students
  and postdocs), scientific credit in the community is essential.
  Thank you for helping us!

  For any use of FHI-aims, please cite:

    Volker Blum, Ralf Gehrke, Felix Hanke, Paula Havu, Ville Havu,
    Xinguo Ren, Karsten Reuter, and Matthias Scheffler
    'Ab initio molecular simulations with numeric atom-centered orbitals'
    Computer Physics Communications 180, 2175-2196 (2009)
    http://dx.doi.org/10.1016/j.cpc.2009.06.022


  The scalable eigensolver library ELPA was used in your run.
  ELPA is essential especially for large systems on hundreds or thousands of CPUs.
  For ELPA, please cite:

    Andreas Marek, Volker Blum, Rainer Johanni, Ville Havu, Bruno Lang,
    Thomas Auckenthaler, Alexander Heinecke, Hans-Joachim Bungartz, and Hermann Lederer,
    'The ELPA Library - Scalable Parallel Eigenvalue Solutions
    for Electronic Structure Theory and Computational Science'
    The Journal of Physics: Condensed Matter 26, 213201 (2014).
    http://dx.doi.org/10.1088/0953-8984/26/21/213201


  For ELPA's efficient two-stage tridiagonalization used in your run, please cite:

    T. Auckenthaler, V. Blum, H.-J. Bungartz, T. Huckle, R. Johanni, L. Kraemer,
    B. Lang, H. Lederer, and P. R. Willems,
    'Parallel solution of partial symmetric eigenvalue problems'
    'from  electronic structure calculations'
    Parallel Computing 37, 783-794 (2011).
    http://dx.doi.org/10.1016/j.parco.2011.05.002


  For the real-space grid partitioning and parallelization used in this calculation, please cite:

    Ville Havu, Volker Blum, Paula Havu, and Matthias Scheffler,
    'Efficient O(N) integration for all-electron electronic structure calculation'
    'using numerically tabulated basis functions'
    Journal of Computational Physics 228, 8367-8379 (2009).
    http://dx.doi.org/10.1016/j.jcp.2009.08.008

  Of course, there are many other important community references, e.g., those cited in the
  above references. Our list is limited to references that describe implementations in the
  FHI-aims code. The reason is purely practical (length of this list) - please credit others as well.

------------------------------------------------------------
          Leaving FHI-aims.
          Date     :  20170309, Time     :  190646.631

          Computational steps:
          | Number of self-consistency cycles          :           14

          Detailed time accounting                     :  max(cpu_time)    wall_clock(cpu1)
          | Total time                                 :       36.010 s          36.352 s
          | Preparation time                           :        0.236 s           0.233 s
          | Grid partitioning                          :        0.300 s           0.296 s
          | Preloading free-atom quantities on grid    :        0.028 s           0.028 s
          | Free-atom superposition energy             :        0.044 s           0.042 s
          | Total time for integrations                :       12.789 s          12.774 s
          | Total time for solution of K.-S. equations :        0.528 s           0.494 s
          | Total time for density & force components  :       10.841 s          10.823 s
          | Total time for mixing                      :        0.124 s           0.106 s
          | Total time for Hartree multipole update    :        0.072 s           0.059 s
          | Total time for Hartree multipole sum       :        6.296 s           6.280 s
          | Total time for total energy evaluation     :        0.024 s           0.023 s

          Have a nice day.
------------------------------------------------------------
