  MPI-parallelism will be employed.
------------------------------------------------------------
          Invoking FHI-aims ...
          Version 150427
          Git rev.: 9dd23e0 BL: Update Version stamp
          Compiled on 2015/11/03 at 22:05:20 on host eos03.

          When using FHI-aims, please cite the following reference:

          Volker Blum, Ralf Gehrke, Felix Hanke, Paula Havu,
          Ville Havu, Xinguo Ren, Karsten Reuter, and Matthias Scheffler,
          'Ab Initio Molecular Simulations with Numeric Atom-Centered Orbitals: FHI-aims',
          Computer Physics Communications 180, 2175-2196 (2009)

          For any questions about FHI-aims, please visit the aimsclub website
          with its forums and wiki. Contributions to both the forums and the
          wiki are warmly encouraged - they are for you, and everyone is welcome there.

------------------------------------------------------------

  Date     :  20170309, Time     :  160741.067
  Time zero on CPU 1             :   0.348021000000000E+00  s.
  Internal wall clock time zero  :           258307661.067  s.

  Using       32 parallel tasks.
  Task        0 on host eos132 reporting.
  Task        1 on host eos132 reporting.
  Task        2 on host eos132 reporting.
  Task        3 on host eos132 reporting.
  Task        4 on host eos132 reporting.
  Task        5 on host eos132 reporting.
  Task        6 on host eos132 reporting.
  Task        7 on host eos132 reporting.
  Task        8 on host eos132 reporting.
  Task        9 on host eos132 reporting.
  Task       10 on host eos132 reporting.
  Task       11 on host eos132 reporting.
  Task       12 on host eos132 reporting.
  Task       13 on host eos132 reporting.
  Task       14 on host eos132 reporting.
  Task       15 on host eos132 reporting.
  Task       16 on host eos132 reporting.
  Task       17 on host eos132 reporting.
  Task       18 on host eos132 reporting.
  Task       19 on host eos132 reporting.
  Task       20 on host eos132 reporting.
  Task       21 on host eos132 reporting.
  Task       22 on host eos132 reporting.
  Task       23 on host eos132 reporting.
  Task       24 on host eos132 reporting.
  Task       25 on host eos132 reporting.
  Task       26 on host eos132 reporting.
  Task       27 on host eos132 reporting.
  Task       28 on host eos132 reporting.
  Task       29 on host eos132 reporting.
  Task       30 on host eos132 reporting.
  Task       31 on host eos132 reporting.

  Performing system and environment tests:
  | Environment variable OMP_NUM_THREADS correctly set to 1.
  | Stacksize not measured: no C compiler
  | Checking for scalapack...
  | Testing pdtran()...
  | All pdtran() tests passed.

  Obtaining array dimensions for all initial allocations:
  
  -----------------------------------------------------------------------
  Parsing control.in (first pass over file, find array dimensions only).
  The contents of control.in will be repeated verbatim below
  unless switched off by setting 'verbatim_writeout .false.' .
  in the first line of control.in .
  -----------------------------------------------------------------------
  
  #########################################################################################
  #
  # Input for System
  #
  #########################################################################################
  #
  #
  #  Physical model
  #
    xc                 pbe
    many_body_dispersion
    spin               none
    charge             0.
  #
  #  SCF convergence
  #
    occupation_type    gaussian 0.05
    mixer              pulay
      n_max_pulay        10
      charge_mix_param   0.5
    sc_accuracy_rho    1E-4
    sc_accuracy_eev    1E-2
    sc_accuracy_etot   1E-5
    sc_accuracy_forces 1E-4
    sc_iter_limit      1000
  #
  #  ESP charge
  #
    output esp
    esp equal_grid_n 80 80 80
  #
  #
  ################################################################################
  #
  #  FHI-aims code project
  # Volker Blum, Fritz Haber Institute Berlin, 2009
  #
  #  Suggested "tight" defaults for H atom (to be pasted into control.in file)
  #
  ################################################################################
    species        H
  #     global species definitions
      nucleus             1
      mass                1.00794
  #
      l_hartree           6
  #
      cut_pot             4.0  2.0  1.0
      basis_dep_cutoff    1e-4
  #
      radial_base         24 7.0
      radial_multiplier   2
      angular_grids       specified
        division   0.1930   50
        division   0.3175  110
        division   0.4293  194
        division   0.5066  302
        division   0.5626  434
  #      division   0.5922  590
  #      division   0.6227  974
  #      division   0.6868 1202
  #      outer_grid  770
        outer_grid  434
  ################################################################################
  #
  #  Definition of "minimal" basis
  #
  ################################################################################
  #     valence basis states
      valence      1  s   1.
  #     ion occupancy
      ion_occ      1  s   0.5
  ################################################################################
  #
  #  Suggested additional basis functions. For production calculations,
  #  uncomment them one after another (the most important basis functions are
  #  listed first).
  #
  #  Basis constructed for dimers: 0.5 A, 0.7 A, 1.0 A, 1.5 A, 2.5 A
  #
  ################################################################################
  #  "First tier" - improvements: -1014.90 meV to -62.69 meV
       hydro 2 s 2.1
       hydro 2 p 3.5
  #  "Second tier" - improvements: -12.89 meV to -1.83 meV
       hydro 1 s 0.85
       hydro 2 p 3.7
       hydro 2 s 1.2
       hydro 3 d 7
  #  "Third tier" - improvements: -0.25 meV to -0.12 meV
  #     hydro 4 f 11.2
  #     hydro 3 p 4.8
  #     hydro 4 d 9
  #     hydro 3 s 3.2
  ################################################################################
  #
  # For methods that use the localized form of the "resolution of identity" for
  # the two-electron Coulomb operator (RI_method LVL), particularly Hartree-Fock and
  # hybrid density functional calculations, the highest accuracy can be obtained by
  # uncommenting the line beginning with "for_aux"  below, thus adding an extra g radial
  # function to the construction of the product basis set for the expansion.
  # See Ref. New J. Phys. 17, 093020 (2015) for more information, particularly Figs. 1 and 6.
  #
  ################################################################################
  #
  # for_aux hydro 5 g 6.0
  ################################################################################
  #
  #  FHI-aims code project
  # Volker Blum, Fritz Haber Institute Berlin, 2009
  #
  #  Suggested "tight" defaults for C atom (to be pasted into control.in file)
  #
  ################################################################################
    species        C
  #     global species definitions
      nucleus             6
      mass                12.0107
  #
      l_hartree           6
  #
      cut_pot             4.0  2.0  1.0
      basis_dep_cutoff    1e-4
  #
      radial_base         34 7.0
      radial_multiplier   2
      angular_grids specified
        division   0.2187   50
        division   0.4416  110
        division   0.6335  194
        division   0.7727  302
        division   0.8772  434
  #      division   0.9334  590
  #      division   0.9924  770
  #      division   1.0230  974
  #      division   1.5020 1202
  #     outer_grid  974
        outer_grid  434
  ################################################################################
  #
  #  Definition of "minimal" basis
  #
  ################################################################################
  #     valence basis states
      valence      2  s   2.
      valence      2  p   2.
  #     ion occupancy
      ion_occ      2  s   1.
      ion_occ      2  p   1.
  ################################################################################
  #
  #  Suggested additional basis functions. For production calculations,
  #  uncomment them one after another (the most important basis functions are
  #  listed first).
  #
  #  Constructed for dimers: 1.0 A, 1.25 A, 1.5 A, 2.0 A, 3.0 A
  #
  ################################################################################
  #  "First tier" - improvements: -1214.57 meV to -155.61 meV
       hydro 2 p 1.7
       hydro 3 d 6
       hydro 2 s 4.9
  #  "Second tier" - improvements: -67.75 meV to -5.23 meV
       hydro 4 f 9.8
       hydro 3 p 5.2
       hydro 3 s 4.3
       hydro 5 g 14.4
       hydro 3 d 6.2
  #  "Third tier" - improvements: -2.43 meV to -0.60 meV
  #     hydro 2 p 5.6
  #     hydro 2 s 1.4
  #     hydro 3 d 4.9
  #     hydro 4 f 11.2
  #  "Fourth tier" - improvements: -0.39 meV to -0.18 meV
  #     hydro 2 p 2.1
  #     hydro 5 g 16.4
  #     hydro 4 d 13.2
  #     hydro 3 s 13.6
  #     hydro 4 f 17.6
  #  Further basis functions - improvements: -0.08 meV and below
  #     hydro 3 s 2
  #     hydro 3 p 6
  #     hydro 4 d 20
  ################################################################################
  #
  # For methods that use the localized form of the "resolution of identity" for
  # the two-electron Coulomb operator (RI_method LVL), particularly Hartree-Fock and
  # hybrid density functional calculations, the highest accuracy can be obtained by
  # uncommenting the line beginning with "for_aux"  below, thus adding an extra g radial
  # function to the construction of the product basis set for the expansion.
  # See Ref. New J. Phys. 17, 093020 (2015) for more information, particularly Figs. 1 and 6.
  #
  ################################################################################
  #
  # for_aux hydro 5 g 6.0
  ################################################################################
  #
  #  FHI-aims code project
  # Volker Blum, Fritz Haber Institute Berlin, 2009
  #
  #  Suggested "tight" defaults for N atom (to be pasted into control.in file)
  #
  ################################################################################
    species        N
  #     global species definitions
      nucleus             7
      mass                14.0067
  #
      l_hartree           6
  #
      cut_pot             4.0  2.0  1.0
      basis_dep_cutoff    1e-4
  #
      radial_base         35 7.0
      radial_multiplier   2
      angular_grids       specified
        division   0.1841   50
        division   0.3514  110
        division   0.5126  194
        division   0.6292  302
        division   0.6939  434
  #      division   0.7396  590
  #      division   0.7632  770
  #      division   0.8122  974
  #      division   1.1604 1202
  #      outer_grid  974
        outer_grid  434
  ################################################################################
  #
  #  Definition of "minimal" basis
  #
  ################################################################################
  #     valence basis states
      valence      2  s   2.
      valence      2  p   3.
  #     ion occupancy
      ion_occ      2  s   1.
      ion_occ      2  p   2.
  ################################################################################
  #
  #  Suggested additional basis functions. For production calculations,
  #  uncomment them one after another (the most important basis functions are
  #  listed first).
  #
  #  Constructed for dimers: 1.0 A, 1.1 A, 1.5 A, 2.0 A, 3.0 A
  #
  ################################################################################
  #  "First tier" - improvements: -1193.42 meV to -220.60 meV
       hydro 2 p 1.8
       hydro 3 d 6.8
       hydro 3 s 5.8
  #  "Second tier" - improvements: -80.21 meV to -6.86 meV
       hydro 4 f 10.8
       hydro 3 p 5.8
       hydro 1 s 0.8
       hydro 5 g 16
       hydro 3 d 4.9
  #  "Third tier" - improvements: -4.29 meV to -0.53 meV
  #     hydro 3 s 16
  #     ionic 2 p auto
  #     hydro 3 d 6.6
  #     hydro 4 f 11.6
  #  "Fourth tier" - improvements: -0.75 meV to -0.25 meV
  #     hydro 2 p 4.5
  #     hydro 2 s 2.4
  #     hydro 5 g 14.4
  #     hydro 4 d 14.4
  #     hydro 4 f 16.8
  # Further basis functions - -0.21 meV and below
  #     hydro 3 p 14.8
  #     hydro 3 s 4.4
  #     hydro 3 d 19.6
  #     hydro 5 g 12.8
  ################################################################################
  #
  # For methods that use the localized form of the "resolution of identity" for
  # the two-electron Coulomb operator (RI_method LVL), particularly Hartree-Fock and
  # hybrid density functional calculations, the highest accuracy can be obtained by
  # uncommenting the line beginning with "for_aux"  below, thus adding an extra g radial
  # function to the construction of the product basis set for the expansion.
  # See Ref. New J. Phys. 17, 093020 (2015) for more information, particularly Figs. 1 and 6.
  #
  ################################################################################
  #
  # for_aux hydro 5 g 6.0
  ################################################################################
  #
  #  FHI-aims code project
  # Volker Blum, Fritz Haber Institute Berlin, 2009
  #
  #  Suggested "tight" defaults for O atom (to be pasted into control.in file)
  #
  ################################################################################
    species        O
  #     global species definitions
      nucleus             8
      mass                15.9994
  #
      l_hartree           6
  #
      cut_pot             4.0  2.0  1.0
      basis_dep_cutoff    1e-4
  #
      radial_base         36 7.0
      radial_multiplier   2
       angular_grids specified
        division   0.1817   50
        division   0.3417  110
        division   0.4949  194
        division   0.6251  302
        division   0.8014  434
  #      division   0.8507  590
  #      division   0.8762  770
  #      division   0.9023  974
  #      division   1.2339 1202
  #      outer_grid 974
        outer_grid  434
  ################################################################################
  #
  #  Definition of "minimal" basis
  #
  ################################################################################
  #     valence basis states
      valence      2  s   2.
      valence      2  p   4.
  #     ion occupancy
      ion_occ      2  s   1.
      ion_occ      2  p   3.
  ################################################################################
  #
  #  Suggested additional basis functions. For production calculations,
  #  uncomment them one after another (the most important basis functions are
  #  listed first).
  #
  #  Constructed for dimers: 1.0 A, 1.208 A, 1.5 A, 2.0 A, 3.0 A
  #
  ################################################################################
  #  "First tier" - improvements: -699.05 meV to -159.38 meV
       hydro 2 p 1.8
       hydro 3 d 7.6
       hydro 3 s 6.4
  #  "Second tier" - improvements: -49.91 meV to -5.39 meV
       hydro 4 f 11.6
       hydro 3 p 6.2
       hydro 3 d 5.6
       hydro 5 g 17.6
       hydro 1 s 0.75
  #  "Third tier" - improvements: -2.83 meV to -0.50 meV
  #     ionic 2 p auto
  #     hydro 4 f 10.8
  #     hydro 4 d 4.7
  #     hydro 2 s 6.8
  #  "Fourth tier" - improvements: -0.40 meV to -0.12 meV
  #     hydro 3 p 5
  #     hydro 3 s 3.3
  #     hydro 5 g 15.6
  #     hydro 4 f 17.6
  #     hydro 4 d 14
  # Further basis functions - -0.08 meV and below
  #     hydro 3 s 2.1
  #     hydro 4 d 11.6
  #     hydro 3 p 16
  #     hydro 2 s 17.2
  ################################################################################
  #
  # For methods that use the localized form of the "resolution of identity" for
  # the two-electron Coulomb operator (RI_method LVL), particularly Hartree-Fock and
  # hybrid density functional calculations, the highest accuracy can be obtained by
  # uncommenting the line beginning with "for_aux"  below, thus adding an extra g radial
  # function to the construction of the product basis set for the expansion.
  # See Ref. New J. Phys. 17, 093020 (2015) for more information, particularly Figs. 1 and 6.
  #
  ################################################################################
  #
  # for_aux hydro 5 g 6.0
  
  -----------------------------------------------------------------------
  Completed first pass over input file control.in .
  -----------------------------------------------------------------------
  
  
  -----------------------------------------------------------------------
  Parsing geometry.in (first pass over file, find array dimensions only).
  The contents of geometry.in will be repeated verbatim below
  unless switched off by setting 'verbatim_writeout .false.' .
  in the first line of geometry.in .
  -----------------------------------------------------------------------
  
  #
  # This is the geometry file that corresponds to the current relaxation step.
  # If you do not want this file to be written, set the "write_restart_geometry" flag to .false.
  #
  atom      -0.64202789      0.54625893     -0.36805254 C
  atom      -0.02171808      1.21527754      0.84139417 C
  atom       1.11386068      1.70649956      0.79948765 O
  atom      -1.30382521      1.25021230     -0.89573015 H
  atom      -1.23084640     -0.34314315     -0.11432256 H
  atom       0.16671415      0.27386153     -1.05192557 H
  atom      -0.76755273      1.28242062      1.98364468 N
  atom      -2.22196068      1.12707903      2.10124168 C
  atom      -2.78922589      2.28712717      2.96630227 C
  atom      -3.36805931      2.05413113      4.02382845 O
  atom      -0.28454240      1.72602497      2.76263039 H
  atom      -2.64751826      1.23424935      1.09153270 H
  atom      -2.62171084     -0.22687078      2.67894054 C
  atom      -3.71289654     -0.32402296      2.72061992 H
  atom      -2.23864313     -0.33982839      3.69964170 H
  atom      -2.21483959     -1.03372752      2.05602232 H
  atom      -2.62456688      3.56566524      2.51357647 N
  atom      -1.92792298      4.09486243      1.33842424 C
  atom      -0.78260775      4.99690390      1.85807244 C
  atom      -1.05338270      6.04113943      2.45387234 O
  atom      -2.95648978      4.27296152      3.16866481 H
  atom      -1.51961031      3.25530072      0.76968889 H
  atom      -2.87616975      4.89838528      0.44703193 C
  atom      -2.34592921      5.27049894     -0.43993546 H
  atom      -3.26721708      5.76518815      0.99419590 H
  atom      -3.71581444      4.27179859      0.12043370 H
  atom       0.47735698      4.54464604      1.64501547 N
  atom       1.64293166      5.26230457      2.13293376 C
  atom       0.64089378      3.63754031      1.20313660 H
  atom       2.38130566      4.54649773      2.51365043 H
  atom       1.32987278      5.93745239      2.93668436 H
  atom       2.11114915      5.86176042      1.33805145 H
  
  -----------------------------------------------------------------------
  Completed first pass over input file geometry.in .
  -----------------------------------------------------------------------
  

  Basic array size parameters:
  | Number of species                 :        4
  | Number of atoms                   :       32
  | Max. basis fn. angular momentum   :        4
  | Max. atomic/ionic basis occupied n:        2
  | Max. number of basis fn. types    :        2
  | Max. radial fns per species/type  :        8
  | Max. logarithmic grid size        :     1301
  | Max. radial integration grid size :       73
  | Max. angular integration grid size:      434
  | Max. angular grid division number :        8
  | Radial grid for Hartree potential :     1301
  | Number of spin channels           :        1

------------------------------------------------------------
          Reading file control.in.
------------------------------------------------------------
  XC: Using PBE gradient-corrected functionals.
  Self-consistent screening and van der Waals energy (TS, TS+SCS,MBD) module
  Spin treatment: No spin polarisation.
  Charge =   0.000000E+00: Neutral system requested explicitly.
  Occupation type: Gaussian broadening, width =   0.500000E-01 eV.
  Using pulay charge density mixing.
  Pulay mixing - number of memorized iterations:   10
  Charge density mixing - mixing parameter:     0.5000
  Convergence accuracy of self-consistent charge density:  0.1000E-03
  Convergence accuracy of sum of eigenvalues:  0.1000E-01
  Convergence accuracy of total energy:  0.1000E-04
  Convergence accuracy of forces:  0.1000E-03
  Maximum number of s.-c. iterations  :  1000
  Fitting ESP-charges to Potential. 
  | Esp charge output options: 
  | ESP Grid method: 3, cubic grid
  | Number of points in x, ,y, z:  0080 0080 0080
  |
 
  Reading configuration options for species H                   .
  | Found nuclear charge :   1.0000
  | Found atomic mass :    1.00794000000000      amu
  | Found l_max for Hartree potential  :   6
  | Found cutoff potl. onset [A], width [A], scale factor :    4.00000    2.00000    1.00000
  | Threshold for basis-dependent cutoff potential is   0.100000E-03
  | Found data for basic radial integration grid :    24 points, outermost radius =    7.000 A
  | Found multiplier for basic radial grid :   2
  | Found angular grid specification: user-specified.
  | Specified grid contains     6 separate shells.
  | Check grid settings after all constraints further below.
  | Found free-atom valence shell :  1 s   1.000
  | No ionic wave fns used. Skipping ion_occ.
  | Found hydrogenic basis function :  2 s   2.100
  | Found hydrogenic basis function :  2 p   3.500
  | Found hydrogenic basis function :  1 s   0.850
  | Found hydrogenic basis function :  2 p   3.700
  | Found hydrogenic basis function :  2 s   1.200
  | Found hydrogenic basis function :  3 d   7.000
  Species H                   : Missing cutoff potential type.
  Defaulting to exp(1/x)/(1-x)^2 type cutoff potential.
  Species H : No 'logarithmic' tag. Using default grid for free atom:
  | Default logarithmic grid data [bohr] : 0.1000E-03 0.1000E+03 0.1012E+01
  Species H : On-site basis accuracy parameter (for Gram-Schmidt orthonormalisation) not specified.
  Using default value basis_acc =  0.1000000E-03.
  Species H                   : Using default innermost maximum threshold i_radial=  2 for radial functions.
  Species H                   : Default cutoff onset for free atom density etc. : 0.40000000E+01 AA.
  Species H                   : Basic radial grid will be enhanced according to radial_multiplier =   2, to contain    49 grid points.
 
  Reading configuration options for species C                   .
  | Found nuclear charge :   6.0000
  | Found atomic mass :    12.0107000000000      amu
  | Found l_max for Hartree potential  :   6
  | Found cutoff potl. onset [A], width [A], scale factor :    4.00000    2.00000    1.00000
  | Threshold for basis-dependent cutoff potential is   0.100000E-03
  | Found data for basic radial integration grid :    34 points, outermost radius =    7.000 A
  | Found multiplier for basic radial grid :   2
  | Found angular grid specification: user-specified.
  | Specified grid contains     6 separate shells.
  | Check grid settings after all constraints further below.
  | Found free-atom valence shell :  2 s   2.000
  | Found free-atom valence shell :  2 p   2.000
  | No ionic wave fns used. Skipping ion_occ.
  | No ionic wave fns used. Skipping ion_occ.
  | Found hydrogenic basis function :  2 p   1.700
  | Found hydrogenic basis function :  3 d   6.000
  | Found hydrogenic basis function :  2 s   4.900
  | Found hydrogenic basis function :  4 f   9.800
  | Found hydrogenic basis function :  3 p   5.200
  | Found hydrogenic basis function :  3 s   4.300
  | Found hydrogenic basis function :  5 g  14.400
  | Found hydrogenic basis function :  3 d   6.200
  Species C                   : Missing cutoff potential type.
  Defaulting to exp(1/x)/(1-x)^2 type cutoff potential.
  Species C : No 'logarithmic' tag. Using default grid for free atom:
  | Default logarithmic grid data [bohr] : 0.1000E-03 0.1000E+03 0.1012E+01
  Species C : On-site basis accuracy parameter (for Gram-Schmidt orthonormalisation) not specified.
  Using default value basis_acc =  0.1000000E-03.
  Species C                   : Using default innermost maximum threshold i_radial=  2 for radial functions.
  Species C                   : Default cutoff onset for free atom density etc. : 0.40000000E+01 AA.
  Species C                   : Basic radial grid will be enhanced according to radial_multiplier =   2, to contain    69 grid points.
 
  Reading configuration options for species N                   .
  | Found nuclear charge :   7.0000
  | Found atomic mass :    14.0067000000000      amu
  | Found l_max for Hartree potential  :   6
  | Found cutoff potl. onset [A], width [A], scale factor :    4.00000    2.00000    1.00000
  | Threshold for basis-dependent cutoff potential is   0.100000E-03
  | Found data for basic radial integration grid :    35 points, outermost radius =    7.000 A
  | Found multiplier for basic radial grid :   2
  | Found angular grid specification: user-specified.
  | Specified grid contains     6 separate shells.
  | Check grid settings after all constraints further below.
  | Found free-atom valence shell :  2 s   2.000
  | Found free-atom valence shell :  2 p   3.000
  | No ionic wave fns used. Skipping ion_occ.
  | No ionic wave fns used. Skipping ion_occ.
  | Found hydrogenic basis function :  2 p   1.800
  | Found hydrogenic basis function :  3 d   6.800
  | Found hydrogenic basis function :  3 s   5.800
  | Found hydrogenic basis function :  4 f  10.800
  | Found hydrogenic basis function :  3 p   5.800
  | Found hydrogenic basis function :  1 s   0.800
  | Found hydrogenic basis function :  5 g  16.000
  | Found hydrogenic basis function :  3 d   4.900
  Species N                   : Missing cutoff potential type.
  Defaulting to exp(1/x)/(1-x)^2 type cutoff potential.
  Species N : No 'logarithmic' tag. Using default grid for free atom:
  | Default logarithmic grid data [bohr] : 0.1000E-03 0.1000E+03 0.1012E+01
  Species N : On-site basis accuracy parameter (for Gram-Schmidt orthonormalisation) not specified.
  Using default value basis_acc =  0.1000000E-03.
  Species N                   : Using default innermost maximum threshold i_radial=  2 for radial functions.
  Species N                   : Default cutoff onset for free atom density etc. : 0.40000000E+01 AA.
  Species N                   : Basic radial grid will be enhanced according to radial_multiplier =   2, to contain    71 grid points.
 
  Reading configuration options for species O                   .
  | Found nuclear charge :   8.0000
  | Found atomic mass :    15.9994000000000      amu
  | Found l_max for Hartree potential  :   6
  | Found cutoff potl. onset [A], width [A], scale factor :    4.00000    2.00000    1.00000
  | Threshold for basis-dependent cutoff potential is   0.100000E-03
  | Found data for basic radial integration grid :    36 points, outermost radius =    7.000 A
  | Found multiplier for basic radial grid :   2
  | Found angular grid specification: user-specified.
  | Specified grid contains     6 separate shells.
  | Check grid settings after all constraints further below.
  | Found free-atom valence shell :  2 s   2.000
  | Found free-atom valence shell :  2 p   4.000
  | No ionic wave fns used. Skipping ion_occ.
  | No ionic wave fns used. Skipping ion_occ.
  | Found hydrogenic basis function :  2 p   1.800
  | Found hydrogenic basis function :  3 d   7.600
  | Found hydrogenic basis function :  3 s   6.400
  | Found hydrogenic basis function :  4 f  11.600
  | Found hydrogenic basis function :  3 p   6.200
  | Found hydrogenic basis function :  3 d   5.600
  | Found hydrogenic basis function :  5 g  17.600
  | Found hydrogenic basis function :  1 s   0.750
  Species O                   : Missing cutoff potential type.
  Defaulting to exp(1/x)/(1-x)^2 type cutoff potential.
  Species O : No 'logarithmic' tag. Using default grid for free atom:
  | Default logarithmic grid data [bohr] : 0.1000E-03 0.1000E+03 0.1012E+01
  Species O : On-site basis accuracy parameter (for Gram-Schmidt orthonormalisation) not specified.
  Using default value basis_acc =  0.1000000E-03.
  Species O                   : Using default innermost maximum threshold i_radial=  2 for radial functions.
  Species O                   : Default cutoff onset for free atom density etc. : 0.40000000E+01 AA.
  Species O                   : Basic radial grid will be enhanced according to radial_multiplier =   2, to contain    73 grid points.
 
  Finished reading input file 'control.in'. Consistency checks are next.
 
  Target number of points in a grid batch is not set. Defaulting to  100
  Method for grid partitioning is not set. Defaulting to parallel hash+maxmin partitioning.
  Batch size limit is not set. Defaulting to    200
  By default, will store active basis functions for each batch.
  If in need of memory, prune_basis_once .false. can be used to disable this option.
  communication_type for Hartree potential was not specified.
  Defaulting to calc_hartree .
  Pulay mixer: Number of initial linear mixing iterations not set.
  Defaulting to    0 iterations.
  Work space size for distributed Hartree potential not set.
  Defaulting to   0.200000E+03 MB.
  Algorithm-dependent basis array size parameters:
  | n_max_pulay                         :       10
  Geometry relaxation not requested: no relaxation will be performed.
  Handling of forces: Unphysical translation and rotation will be removed from forces.
  No accuracy limit for integral partition fn. given. Defaulting to  0.1000E-14.
  No threshold value for u(r) in integrations given. Defaulting to  0.1000E-05.
  No accuracy for occupation numbers given. Defaulting to  0.1000E-07.
  No threshold value for occupation numbers given. Defaulting to  0.0000E+00.
  No accuracy for fermi level given. Defaulting to  0.1000E-19.
  Maximum # of iterations to find E_F not set. Defaulting to  200.
  Preferred method for the eigenvalue solver ('KS_method') not specified in 'control.in'.
  Calling blacs routine to test compilation state
  Since scalapack support is enabled, defaulting to 'elpa'.
  Preferred method for the MBD eigenvalue solver ('mbd_eigensolver') not specified in 'control.in'.
  Calling blacs routine to test compilation state
  Since scalapack support is enabled, defaulting to 'scaLAPACK'.
  Will not use alltoall communication since running on < 1024 CPUs.
  Threshold for basis singularities not set.
  Default threshold for basis singularities:  0.1000E-04
  partition_type (choice of integration weights) for integrals was not specified.
  | Using a version of the partition function of Stratmann and coworkers ('stratmann_smoother').
  | At each grid point, the set of atoms used to build the partition table is smoothly restricted to
  | only those atoms whose free-atom density would be non-zero at that grid point.
  Partitioning for Hartree potential was not defined. Using partition_type for integrals.
  | Adjusted default value of keyword multip_moments_threshold to:       0.10000000E-11
  | This value may affect high angular momentum components of the Hartree potential in periodic systems.
  No q(lm)/r^(l+1) cutoff set for long-range Hartree potential.
  | Using default value of  0.100000E-09 .
  | Verify using the multipole_threshold keyword.
  Defaulting to new monopole extrapolation.
  Density update method: automatic selection selected.
------------------------------------------------------------


------------------------------------------------------------
          Reading geometry description geometry.in.
------------------------------------------------------------
 * Warning! You did not set the 'relativistic' flag in input file 'control.in'.
 * Since you are not attempting to treat any elements beyond Ca(Z=20), FHI-aims
 * will default to 'relativistic none'.
 * You must ensure that this is really what you want!!
 * For example, DO NOT compute total-energy differences between results from
 * different settings of the 'relativistic' flag.
  Input structure read successfully.
  The structure contains       32 atoms,  and a total of        116.000 electrons.

  Input geometry:
  | No unit cell requested.
  | Atomic structure:
  |       Atom                x [A]            y [A]            z [A]
  |    1: Species C             -0.642028         0.546259        -0.368053
  |    2: Species C             -0.021718         1.215278         0.841394
  |    3: Species O              1.113861         1.706500         0.799488
  |    4: Species H             -1.303825         1.250212        -0.895730
  |    5: Species H             -1.230846        -0.343143        -0.114323
  |    6: Species H              0.166714         0.273862        -1.051926
  |    7: Species N             -0.767553         1.282421         1.983645
  |    8: Species C             -2.221961         1.127079         2.101242
  |    9: Species C             -2.789226         2.287127         2.966302
  |   10: Species O             -3.368059         2.054131         4.023828
  |   11: Species H             -0.284542         1.726025         2.762630
  |   12: Species H             -2.647518         1.234249         1.091533
  |   13: Species C             -2.621711        -0.226871         2.678941
  |   14: Species H             -3.712897        -0.324023         2.720620
  |   15: Species H             -2.238643        -0.339828         3.699642
  |   16: Species H             -2.214840        -1.033728         2.056022
  |   17: Species N             -2.624567         3.565665         2.513576
  |   18: Species C             -1.927923         4.094862         1.338424
  |   19: Species C             -0.782608         4.996904         1.858072
  |   20: Species O             -1.053383         6.041139         2.453872
  |   21: Species H             -2.956490         4.272962         3.168665
  |   22: Species H             -1.519610         3.255301         0.769689
  |   23: Species C             -2.876170         4.898385         0.447032
  |   24: Species H             -2.345929         5.270499        -0.439935
  |   25: Species H             -3.267217         5.765188         0.994196
  |   26: Species H             -3.715814         4.271799         0.120434
  |   27: Species N              0.477357         4.544646         1.645015
  |   28: Species C              1.642932         5.262305         2.132934
  |   29: Species H              0.640894         3.637540         1.203137
  |   30: Species H              2.381306         4.546498         2.513650
  |   31: Species H              1.329873         5.937452         2.936684
  |   32: Species H              2.111149         5.861760         1.338051
  |

  | The smallest distance between any two atoms is         1.01828411 AA.
  |
  | The first atom of this pair is atom number                      7 .
  | The second atom of this pair is atom number                    11 .

  Number of empty states per atom not set in control.in - providing a guess from actual geometry.
  | Total number of empty states used during s.c.f. cycle:       71
  If you use a very high smearing, use empty_states (per atom!) in control.in to increase this value.

  Structure-dependent array size parameters: 
  | Maximum number of distinct radial functions  :       40
  | Maximum number of basis functions            :      840
  | Number of Kohn-Sham states (occupied + empty):      129
------------------------------------------------------------

------------------------------------------------------------
          Preparing all fixed parts of the calculation.
------------------------------------------------------------
  Determining machine precision:
    2.225073858507201E-308
  Setting up grids for atomic and cluster calculations.

  Creating wave function, potential, and density for free atoms.

  Species: H

  List of occupied orbitals and eigenvalues:
    n    l              occ      energy [Ha]    energy [eV]
    1    0           1.0000        -0.238382        -6.4867


  Species: C

  List of occupied orbitals and eigenvalues:
    n    l              occ      energy [Ha]    energy [eV]
    1    0           2.0000       -10.041232      -273.2358
    2    0           2.0000        -0.504327       -13.7234
    2    1           2.0000        -0.193750        -5.2722


  Species: N

  List of occupied orbitals and eigenvalues:
    n    l              occ      energy [Ha]    energy [eV]
    1    0           2.0000       -14.129007      -384.4699
    2    0           2.0000        -0.681802       -18.5528
    2    1           3.0000        -0.260543        -7.0897


  Species: O

  List of occupied orbitals and eigenvalues:
    n    l              occ      energy [Ha]    energy [eV]
    1    0           2.0000       -18.898576      -514.2564
    2    0           2.0000        -0.878795       -23.9132
    2    1           4.0000        -0.332075        -9.0362

  Creating fixed part of basis set: Ionic, confined, hydrogenic.
 
  H                    hydrogenic:
 
  List of hydrogenic basis orbitals: 
    n    l      effective z      eigenvalue [eV]  inner max. [A]     outer max. [A]     outer radius [A]   
    2    0         2.100000       -14.9965           0.193243           1.317208           5.373006
    2    1         3.500000       -41.6672           0.602369           0.602369           4.056063
    1    0         0.850000        -9.8292           0.624871           0.624871           5.373006
    2    1         3.700000       -46.5653           0.573622           0.573622           3.910002
    2    0         1.200000        -4.5995           0.334980           2.228188           5.505995
    3    2         7.000000       -74.0753           0.680699           0.680699           3.769201
 
 
  C                    hydrogenic:
 
  List of hydrogenic basis orbitals: 
    n    l      effective z      eigenvalue [eV]  inner max. [A]     outer max. [A]     outer radius [A]   
    2    1         1.700000        -9.8152           1.245706           1.245706           5.401630
    3    2         6.000000       -54.4226           0.792453           0.792453           4.178599
    2    0         4.900000       -81.6681           0.082559           0.562749           3.353238
    4    3         9.800000       -81.6681           0.863254           0.863254           4.028125
    3    1         5.200000       -40.8774           0.305389           1.215618           4.898362
    3    0         4.300000       -27.9508           0.091041           1.610311           5.401630
    5    4        14.400000      -112.8510           0.917666           0.917666           3.883070
    3    2         6.200000       -58.1113           0.763917           0.763917           4.077671
 
 
  N                    hydrogenic:
 
  List of hydrogenic basis orbitals: 
    n    l      effective z      eigenvalue [eV]  inner max. [A]     outer max. [A]     outer radius [A]   
    2    1         1.800000       -11.0118           1.177451           1.177451           5.427479
    3    2         6.800000       -69.9029           0.704619           0.704619           3.854246
    3    0         5.800000       -50.8549           0.067388           1.191934           4.629968
    4    3        10.800000       -99.1854           0.786571           0.786571           3.761152
    3    1         5.800000       -50.8549           0.274880           1.094176           4.518138
    1    0         0.800000        -8.7059           0.662839           0.662839           5.361532
    5    4        16.000000      -139.3222           0.825990           0.825990           3.625711
    3    2         4.900000       -36.2967           0.968267           0.968267           4.862000
 
 
  O                    hydrogenic:
 
  List of hydrogenic basis orbitals: 
    n    l      effective z      eigenvalue [eV]  inner max. [A]     outer max. [A]     outer radius [A]   
    2    1         1.800000       -11.0118           1.178562           1.178562           5.432602
    3    2         7.600000       -87.3182           0.624125           0.624125           3.541477
    3    0         6.400000       -61.9209           0.061167           1.081902           4.306578
    4    3        11.600000      -114.4238           0.731631           0.731631           3.585037
    3    1         6.200000       -58.1113           0.255680           1.030270           4.306578
    3    2         5.600000       -47.4081           0.847233           0.847233           4.413171
    5    4        17.600000      -168.5799           0.749740           0.749740           3.372465
    1    0         0.750000        -7.6499           0.705284           0.705284           5.366593
 

  Adding cutoff potential to free-atom effective potential.
  Creating atomic-like basis functions for current effective potential.

  Species H                   :

  List of atomic basis orbitals and eigenvalues:
    n    l      energy [Ha]    energy [eV]    outer radius [A]
    1    0        -0.238382        -6.4867       5.373006


  Species C                   :

  List of atomic basis orbitals and eigenvalues:
    n    l      energy [Ha]    energy [eV]    outer radius [A]
    1    0       -10.041232      -273.2358       1.934409
    2    0        -0.504327       -13.7234       5.271162
    2    1        -0.193750        -5.2722       5.401630


  Species N                   :

  List of atomic basis orbitals and eigenvalues:
    n    l      energy [Ha]    energy [eV]    outer radius [A]
    1    0       -14.129007      -384.4699       1.637919
    2    0        -0.681802       -18.5528       5.168461
    2    1        -0.260543        -7.0897       5.361532


  Species O                   :

  List of atomic basis orbitals and eigenvalues:
    n    l      energy [Ha]    energy [eV]    outer radius [A]
    1    0       -18.898576      -514.2564       1.415765
    2    0        -0.878795       -23.9132       5.048385
    2    1        -0.332075        -9.0362       5.301386

  Assembling full basis from fixed parts.
  | Species H :   atomic orbital   1 s accepted.
  | Species H :    hydro orbital   2 s accepted.
  | Species H :    hydro orbital   1 s accepted.
  | Species H :    hydro orbital   2 s accepted.
  | Species H :    hydro orbital   2 p accepted.
  | Species H :    hydro orbital   2 p accepted.
  | Species H :    hydro orbital   3 d accepted.
  | Species C :   atomic orbital   1 s accepted.
  | Species C :    hydro orbital   2 s accepted.
  | Species C :   atomic orbital   2 s accepted.
  | Species C :    hydro orbital   3 s accepted.
  | Species C :    hydro orbital   3 p accepted.
  | Species C :   atomic orbital   2 p accepted.
  | Species C :    hydro orbital   2 p accepted.
  | Species C :    hydro orbital   3 d accepted.
  | Species C :    hydro orbital   3 d accepted.
  | Species C :    hydro orbital   4 f accepted.
  | Species C :    hydro orbital   5 g accepted.
  | Species N :   atomic orbital   1 s accepted.
  | Species N :    hydro orbital   3 s accepted.
  | Species N :   atomic orbital   2 s accepted.
  | Species N :    hydro orbital   1 s accepted.
  | Species N :    hydro orbital   3 p accepted.
  | Species N :   atomic orbital   2 p accepted.
  | Species N :    hydro orbital   2 p accepted.
  | Species N :    hydro orbital   3 d accepted.
  | Species N :    hydro orbital   3 d accepted.
  | Species N :    hydro orbital   4 f accepted.
  | Species N :    hydro orbital   5 g accepted.
  | Species O :   atomic orbital   1 s accepted.
  | Species O :    hydro orbital   3 s accepted.
  | Species O :   atomic orbital   2 s accepted.
  | Species O :    hydro orbital   1 s accepted.
  | Species O :    hydro orbital   3 p accepted.
  | Species O :   atomic orbital   2 p accepted.
  | Species O :    hydro orbital   2 p accepted.
  | Species O :    hydro orbital   3 d accepted.
  | Species O :    hydro orbital   3 d accepted.
  | Species O :    hydro orbital   4 f accepted.
  | Species O :    hydro orbital   5 g accepted.
 
  Basis size parameters after reduction:
  | Total number of radial functions:       40
  | Total number of basis functions :      840
 
  Testing on-site integration grid accuracy.
  |  Species  Function  <phi|h_atom|phi> (log., in eV)  <phi|h_atom|phi> (rad., in eV)
           1        1                 -6.4869821809                 -6.4870742227
           1        2                 13.5044133542                 13.5041049177
           1        3                 32.7854418792                 32.7779770519
           1        4                 33.7995553101                 33.7152624900 ***
           1        5                 28.8558651799                 28.8558652046
           1        6                 59.6361831893                 59.6362535845
           1        7                 60.2733718049                 60.2733715484
           2        8               -273.2358277112               -273.2358261765
           2        9                -10.7624923123                -10.7625144012
           2       10                 17.4634079027                 17.4634252127
           2       11                 53.0363661832                 53.0366180446
           2       12                 15.0981351967                 15.0981317714
           2       13                  3.8522181899                  3.8522770949
           2       14                 12.1181835661                 12.1206868578
           2       15                 29.4320778347                 29.4320780959
           2       16                 54.8753777694                 54.8752901936
           2       17                 59.3533975461                 59.3533974833
           2       18                 93.4537491195                 93.4537492066
           3       19               -384.4698526889               -384.4698499465
           3       20                 12.5691022037                 12.5690910168
           3       21                -15.7489097511                -15.7489165588
           3       22                 27.0978334940                 27.0985589490
           3       23                 18.5949116966                 18.5949125562
           3       24                  1.2212828291                  1.2212855301
           3       25                 13.4428926797                 13.4434051125
           3       26                 35.9380614500                 35.9380613666
           3       27                 39.9231532098                 39.9231654735
           3       28                 72.9957335806                 72.9957336833
           3       29                116.4231321147                116.4231321431
           4       30               -514.2564144315               -514.2564099626
           4       31                 15.1726678541                 15.1726530877
           4       32                -21.5447785304                -21.5447874973
           4       33                 14.4944558459                 14.4944698284
           4       34                 20.8882174564                 20.8882178906
           4       35                 -2.4850315908                 -2.4850322289
           4       36                 13.8600193195                 13.8599826966
           4       37                 45.8243383616                 45.8243383675
           4       38                 52.1840606465                 52.1840622440
           4       39                 85.4074185510                 85.4074185819
           4       40                142.0983717302                142.0983717339
 * Note: Onsite integrals marked "***" above are less accurate than
 * onsite_accuracy_threshold =    0.03000 eV. Usually, this is harmless.
 * When in doubt, tighten the "radial" and/or "radial_multiplier" flags to check.

  Preparing densities etc. for the partition functions (integrals / Hartree potential).

  Preparations completed.
  max(cpu_time)          :      0.232 s.
  Wall clock time (cpu1) :      0.234 s.
------------------------------------------------------------

------------------------------------------------------------
          Begin self-consistency loop: Initialization.

          Date     :  20170309, Time     :  160742.141
------------------------------------------------------------

  Initializing index lists of integration centers etc. from given atomic structure:
  | Number of centers in hartree potential         :        32
  | Number of centers in hartree multipole         :        32
  | Number of centers in electron density summation:        32
  | Number of centers in basis integrals           :        32
  | Number of centers in integrals                 :        32
  | Number of centers in hamiltonian               :        32
  Using modified Scalapack Eigenvalue solver (ELPA)
  * Using 32 tasks for Scalapack Eigenvalue solver.
  Detailed listing of tasks and assigned k-points:
  (for non-periodic systems, the "k-point" denotes an internal label only)
   Task     0 k-point     1 on eos132
   Task     1 k-point     1 on eos132
   Task     2 k-point     1 on eos132
   Task     3 k-point     1 on eos132
   Task     4 k-point     1 on eos132
   Task     5 k-point     1 on eos132
   Task     6 k-point     1 on eos132
   Task     7 k-point     1 on eos132
   Task     8 k-point     1 on eos132
   Task     9 k-point     1 on eos132
   Task    10 k-point     1 on eos132
   Task    11 k-point     1 on eos132
   Task    12 k-point     1 on eos132
   Task    13 k-point     1 on eos132
   Task    14 k-point     1 on eos132
   Task    15 k-point     1 on eos132
   Task    16 k-point     1 on eos132
   Task    17 k-point     1 on eos132
   Task    18 k-point     1 on eos132
   Task    19 k-point     1 on eos132
   Task    20 k-point     1 on eos132
   Task    21 k-point     1 on eos132
   Task    22 k-point     1 on eos132
   Task    23 k-point     1 on eos132
   Task    24 k-point     1 on eos132
   Task    25 k-point     1 on eos132
   Task    26 k-point     1 on eos132
   Task    27 k-point     1 on eos132
   Task    28 k-point     1 on eos132
   Task    29 k-point     1 on eos132
   Task    30 k-point     1 on eos132
   Task    31 k-point     1 on eos132
  Tasks:    32 split into      8 X      4 BLACS grid
  Calculating blocksize based on n_basis =          840 max_nprow =            8 max_npcol =            4
  Scalapack blocksize set to:           16
  Required Scalapack workspace - INTEGER:            1 REAL:             1
  Partitioning the integration grid into batches with parallel hashing+maxmin method.
  | Number of batches:     4905
  | Maximal batch size:     200
  | Minimal batch size:      29
  | Average batch size:     107.590
  | Standard deviation of batch sizes:      33.796

  Integration load balanced across    32 MPI tasks.
  Work distribution over tasks is as follows:
  Task     0 has      16558 integration points.
  Task     1 has      16494 integration points.
  Task     2 has      16466 integration points.
  Task     3 has      16451 integration points.
  Task     4 has      16442 integration points.
  Task     5 has      16441 integration points.
  Task     6 has      16566 integration points.
  Task     7 has      16454 integration points.
  Task     8 has      16473 integration points.
  Task     9 has      16544 integration points.
  Task    10 has      16471 integration points.
  Task    11 has      16475 integration points.
  Task    12 has      16461 integration points.
  Task    13 has      16468 integration points.
  Task    14 has      16463 integration points.
  Task    15 has      16630 integration points.
  Task    16 has      16560 integration points.
  Task    17 has      16462 integration points.
  Task    18 has      16445 integration points.
  Task    19 has      16555 integration points.
  Task    20 has      16471 integration points.
  Task    21 has      16461 integration points.
  Task    22 has      16558 integration points.
  Task    23 has      16560 integration points.
  Task    24 has      16543 integration points.
  Task    25 has      16553 integration points.
  Task    26 has      16433 integration points.
  Task    27 has      16464 integration points.
  Task    28 has      16467 integration points.
  Task    29 has      16450 integration points.
  Task    30 has      16451 integration points.
  Task    31 has      16438 integration points.
  Initializing partition tables, free-atom densities, potentials, etc. across the integration grid (initialize_grid_storage).
  | initialize_grid_storage: Actual outermost partition radius vs. multipole_radius_free
  | (-- VB: in principle, multipole_radius_free should be larger, hence this output)
  | Species        1: Confinement radius =              6.000000000000000 AA, multipole_radius_free =              6.071692442739658 AA.
  | Species        1: outer_partition_radius set to              6.071692442739658 AA .
  | Species        2: Confinement radius =              6.000000000000000 AA, multipole_radius_free =              6.029870734432609 AA.
  | Species        2: outer_partition_radius set to              6.029870734432609 AA .
  | Species        3: Confinement radius =              6.000000000000000 AA, multipole_radius_free =              6.058726835495003 AA.
  | Species        3: outer_partition_radius set to              6.058726835495003 AA .
  | Species        4: Confinement radius =              6.000000000000000 AA, multipole_radius_free =              6.064445521808699 AA.
  | Species        4: outer_partition_radius set to              6.064445521808699 AA .
  | Original list of interatomic distances with          32 x         32 entries is created.
  | Net number of integration points:   527728
  | of which are non-zero points    :   413529
  Obtaining max. number of non-zero basis functions in each batch (get_n_compute_maxes).
  | Maximal number of non-zero basis functions:      794 in task     0
  | Maximal number of non-zero basis functions:      761 in task     1
  | Maximal number of non-zero basis functions:      802 in task     2
  | Maximal number of non-zero basis functions:      806 in task     3
  | Maximal number of non-zero basis functions:      814 in task     4
  | Maximal number of non-zero basis functions:      806 in task     5
  | Maximal number of non-zero basis functions:      791 in task     6
  | Maximal number of non-zero basis functions:      814 in task     7
  | Maximal number of non-zero basis functions:      787 in task     8
  | Maximal number of non-zero basis functions:      807 in task     9
  | Maximal number of non-zero basis functions:      796 in task    10
  | Maximal number of non-zero basis functions:      784 in task    11
  | Maximal number of non-zero basis functions:      780 in task    12
  | Maximal number of non-zero basis functions:      804 in task    13
  | Maximal number of non-zero basis functions:      796 in task    14
  | Maximal number of non-zero basis functions:      800 in task    15
  | Maximal number of non-zero basis functions:      800 in task    16
  | Maximal number of non-zero basis functions:      804 in task    17
  | Maximal number of non-zero basis functions:      822 in task    18
  | Maximal number of non-zero basis functions:      797 in task    19
  | Maximal number of non-zero basis functions:      795 in task    20
  | Maximal number of non-zero basis functions:      781 in task    21
  | Maximal number of non-zero basis functions:      793 in task    22
  | Maximal number of non-zero basis functions:      823 in task    23
  | Maximal number of non-zero basis functions:      804 in task    24
  | Maximal number of non-zero basis functions:      803 in task    25
  | Maximal number of non-zero basis functions:      793 in task    26
  | Maximal number of non-zero basis functions:      813 in task    27
  | Maximal number of non-zero basis functions:      782 in task    28
  | Maximal number of non-zero basis functions:      798 in task    29
  | Maximal number of non-zero basis functions:      815 in task    30
  | Maximal number of non-zero basis functions:      813 in task    31
  Selecting the method for density update.
  Loop over occupied states selected for charge density update.
  Integrating Hamiltonian matrix: batch-based integration.
  Time summed over all CPUs for integration: real work       22.897 s, elapsed       24.141 s
  Integrating overlap matrix.
  Time summed over all CPUs for integration: real work       14.021 s, elapsed       14.767 s
  Deallocating overlap matrix.

  Updating Kohn-Sham eigenvalues, eigenvectors, occupation numbers, and Fermi level.
  Solving generalized eigenproblem
  Solving real symmetric generalised eigenvalue problem by standard ScaLAPACK.
  Transforming overlap matrix with ScaLAPACK and checking for singularities.
  : Overlap matrix is nonsingular, using Cholesky decomposition
  | Lowest eigenvalue:  0.822969E-04
  Factoring overlap matrix with Cholesky decomposition
  Using Cholesky factor for transformation
  Using 1-stage real ELPA solver
  Determining occupation numbers for Kohn-Sham eigenstates.
  | Chemical potential (Fermi level) in eV                 : -.94878735E+01
  | Error in electron count due to remaining E_F inaccuracy: 0.00000000E+00
  | Maximum occupation number of highest empty state:  0.00E+00

  Writing Kohn-Sham eigenvalues.

  State    Occupation    Eigenvalue [Ha]    Eigenvalue [eV]
      1       2.00000         -18.974475         -516.32172
      2       2.00000         -18.973407         -516.29267
      3       2.00000         -18.972891         -516.27863
      4       2.00000         -14.255753         -387.91877
      5       2.00000         -14.253618         -387.86067
      6       2.00000         -14.253108         -387.84680
      7       2.00000         -10.171650         -276.78468
      8       2.00000         -10.171368         -276.77700
      9       2.00000         -10.170957         -276.76582
     10       2.00000         -10.166808         -276.65293
     11       2.00000         -10.148919         -276.16613
     12       2.00000         -10.147727         -276.13369
     13       2.00000         -10.136094         -275.81715
     14       2.00000         -10.134703         -275.77930
     15       2.00000         -10.133408         -275.74405
     16       2.00000          -1.133418          -30.84186
     17       2.00000          -1.129199          -30.72705
     18       2.00000          -1.127918          -30.69221
     19       2.00000          -1.019353          -27.73802
     20       2.00000          -1.013695          -27.58404
     21       2.00000          -1.005114          -27.35053
     22       2.00000          -0.882816          -24.02265
     23       2.00000          -0.876995          -23.86426
     24       2.00000          -0.848437          -23.08714
     25       2.00000          -0.820860          -22.33674
     26       2.00000          -0.774194          -21.06689
     27       2.00000          -0.756335          -20.58093
     28       2.00000          -0.695288          -18.91974
     29       2.00000          -0.688773          -18.74247
     30       2.00000          -0.682453          -18.57048
     31       2.00000          -0.644932          -17.54949
     32       2.00000          -0.632095          -17.20018
     33       2.00000          -0.610129          -16.60246
     34       2.00000          -0.597808          -16.26719
     35       2.00000          -0.590116          -16.05787
     36       2.00000          -0.580515          -15.79660
     37       2.00000          -0.566092          -15.40414
     38       2.00000          -0.561358          -15.27532
     39       2.00000          -0.557006          -15.15690
     40       2.00000          -0.555368          -15.11233
     41       2.00000          -0.549587          -14.95501
     42       2.00000          -0.545374          -14.84038
     43       2.00000          -0.535681          -14.57662
     44       2.00000          -0.527572          -14.35597
     45       2.00000          -0.518680          -14.11401
     46       2.00000          -0.515595          -14.03005
     47       2.00000          -0.509735          -13.87058
     48       2.00000          -0.501891          -13.65716
     49       2.00000          -0.497259          -13.53110
     50       2.00000          -0.485663          -13.21556
     51       2.00000          -0.480981          -13.08817
     52       2.00000          -0.476876          -12.97645
     53       2.00000          -0.413132          -11.24190
     54       2.00000          -0.408080          -11.10443
     55       2.00000          -0.398548          -10.84506
     56       2.00000          -0.389637          -10.60256
     57       2.00000          -0.384673          -10.46748
     58       2.00000          -0.378281          -10.29354
     59       0.00000          -0.174204           -4.74032
     60       0.00000          -0.161705           -4.40022
     61       0.00000          -0.150296           -4.08977
     62       0.00000          -0.081785           -2.22548
     63       0.00000          -0.062253           -1.69398
     64       0.00000          -0.056413           -1.53508
     65       0.00000          -0.051972           -1.41422
     66       0.00000          -0.043645           -1.18763
     67       0.00000          -0.037916           -1.03175
     68       0.00000          -0.030041           -0.81747
     69       0.00000          -0.029241           -0.79569
     70       0.00000          -0.023550           -0.64083
     71       0.00000          -0.022945           -0.62437
     72       0.00000          -0.016494           -0.44882
     73       0.00000          -0.010744           -0.29235
     74       0.00000          -0.007254           -0.19738
     75       0.00000          -0.003512           -0.09556
     76       0.00000           0.003536            0.09621
     77       0.00000           0.004768            0.12976
     78       0.00000           0.007395            0.20123
     79       0.00000           0.011044            0.30053
     80       0.00000           0.012306            0.33486
     81       0.00000           0.017001            0.46261
     82       0.00000           0.022333            0.60771
     83       0.00000           0.031704            0.86272
     84       0.00000           0.041245            1.12234
     85       0.00000           0.042808            1.16486
     86       0.00000           0.049091            1.33584
     87       0.00000           0.052963            1.44120
     88       0.00000           0.057027            1.55177
     89       0.00000           0.060068            1.63453
     90       0.00000           0.074739            2.03374
     91       0.00000           0.078125            2.12589
     92       0.00000           0.083369            2.26859
     93       0.00000           0.085192            2.31820
     94       0.00000           0.089101            2.42457
     95       0.00000           0.096149            2.61634
     96       0.00000           0.100171            2.72579
     97       0.00000           0.107383            2.92204
     98       0.00000           0.113598            3.09115
     99       0.00000           0.116702            3.17562
    100       0.00000           0.123113            3.35007
    101       0.00000           0.129808            3.53226
    102       0.00000           0.134682            3.66488
    103       0.00000           0.139308            3.79076
    104       0.00000           0.141261            3.84391
    105       0.00000           0.146983            3.99960
    106       0.00000           0.154446            4.20270
    107       0.00000           0.161895            4.40540
    108       0.00000           0.163193            4.44071
    109       0.00000           0.168457            4.58395
    110       0.00000           0.174521            4.74896
    111       0.00000           0.180076            4.90011
    112       0.00000           0.182836            4.97521
    113       0.00000           0.190035            5.17112
    114       0.00000           0.192782            5.24587
    115       0.00000           0.196693            5.35230
    116       0.00000           0.204082            5.55335
    117       0.00000           0.212607            5.78534
    118       0.00000           0.213174            5.80076
    119       0.00000           0.215979            5.87709
    120       0.00000           0.221148            6.01775
    121       0.00000           0.224830            6.11793
    122       0.00000           0.232450            6.32529
    123       0.00000           0.239750            6.52394
    124       0.00000           0.240165            6.53521
    125       0.00000           0.243444            6.62444
    126       0.00000           0.250961            6.82899
    127       0.00000           0.256302            6.97434
    128       0.00000           0.264900            7.20829
    129       0.00000           0.271463            7.38687

  Highest occupied state (VBM) at    -10.29354311 eV
  | Occupation number:      2.00000000

  Lowest unoccupied state (CBM) at    -4.74032200 eV
  | Occupation number:      0.00000000

  Overall HOMO-LUMO gap:      5.55322112 eV.
  Calculating total energy contributions from superposition of free atom densities.

  Total energy components:
  | Sum of eigenvalues            :        -437.86478649 Ha      -11914.90706416 eV
  | XC energy correction          :         -98.82811559 Ha       -2689.24985282 eV
  | XC potential correction       :         127.03306150 Ha        3456.74548075 eV
  | Free-atom electrostatic energy:        -333.62476988 Ha       -9078.39189180 eV
  | Hartree energy correction     :           0.00000000 Ha           0.00000000 eV
  | MBD@rsSCS energy              :           0.00000000 Ha           0.00000000 eV
  | Entropy correction            :          -0.00000000 Ha          -0.00000000 eV
  | ---------------------------
  | Total energy                  :        -743.28461046 Ha      -20225.80332804 eV
  | Total energy, T -> 0          :        -743.28461046 Ha      -20225.80332804 eV  <-- do not rely on this value for anything but (periodic) metals
  | Electronic free energy        :        -743.28461046 Ha      -20225.80332804 eV

  Derived energy quantities:
  | Kinetic energy                :         735.17438743 Ha       20005.11293087 eV
  | Electrostatic energy          :       -1379.63088229 Ha      -37541.66640609 eV
  | Energy correction for multipole
  | error in Hartree potential    :           0.00000000 Ha           0.00000000 eV
  | Sum of eigenvalues per atom                           :        -372.34084576 eV
  | Total energy (T->0) per atom                          :        -632.05635400 eV  <-- do not rely on this value for anything but (periodic) metals
  | Electronic free energy per atom                       :        -632.05635400 eV
  Initialize hartree_potential_storage
  Max. number of atoms included in rho_multipole:           32

  End scf initialization - timings             :  max(cpu_time)    wall_clock(cpu1)
  | Time for scf. initialization               :        1.992 s           1.990 s
  | Boundary condition initialization          :        0.004 s           0.000 s
  | Integration                                :        1.240 s           1.238 s
  | Solution of K.-S. eqns.                    :        0.076 s           0.077 s
  | Grid partitioning                          :        0.300 s           0.298 s
  | Preloading free-atom quantities on grid    :        0.028 s           0.028 s
  | Free-atom superposition energy             :        0.044 s           0.040 s
  | Total energy evaluation                    :        0.004 s           0.001 s
------------------------------------------------------------

------------------------------------------------------------
          Begin self-consistency iteration #    1

  Date     :  20170309, Time     :  160744.132
------------------------------------------------------------
  Evaluating new KS density.
  Integration grid: deviation in total charge (<rho> - N_e) =   5.684342E-14
  Pulay mixing of updated and previous charge densities.

  Evaluating partitioned Hartree potential by multipole expansion.
  | Analytical far-field extrapolation by fixed multipoles:
  | Hartree multipole sum: apparent total charge =  -0.197007E-04
  Summing up the Hartree potential.
  Time summed over all CPUs for potential: real work        9.618 s, elapsed        9.828 s
  | RMS charge density error from multipole expansion :   0.107224E-01

  Integrating Hamiltonian matrix: batch-based integration.
  Time summed over all CPUs for integration: real work       22.713 s, elapsed       24.093 s

  Updating Kohn-Sham eigenvalues, eigenvectors, occupation numbers, and Fermi level.
  Solving generalized eigenproblem
  Solving real symmetric generalised eigenvalue problem by standard ScaLAPACK.
  Using Cholesky factor for transformation
  Using 2-stage real ELPA solver
  K-Point:    1, Trafo times: 1-stage=     0.021 s, 2-stage=     0.019 s ==> Using 2-stage solver
  Determining occupation numbers for Kohn-Sham eigenstates.
  | Chemical potential (Fermi level) in eV                 : -.48430884E+01
  | Error in electron count due to remaining E_F inaccuracy: 0.00000000E+00
  | Maximum occupation number of highest empty state:  0.00E+00

  Writing Kohn-Sham eigenvalues.

  State    Occupation    Eigenvalue [Ha]    Eigenvalue [eV]
      1       2.00000         -18.643078         -507.30396
      2       2.00000         -18.620918         -506.70095
      3       2.00000         -18.611086         -506.43341
      4       2.00000         -14.009831         -381.22689
      5       2.00000         -13.999439         -380.94412
      6       2.00000         -13.985010         -380.55148
      7       2.00000         -10.075448         -274.16688
      8       2.00000         -10.069504         -274.00513
      9       2.00000         -10.049277         -273.45474
     10       2.00000          -9.979055         -271.54390
     11       2.00000          -9.974431         -271.41807
     12       2.00000          -9.875632         -268.72961
     13       2.00000          -9.864523         -268.42732
     14       2.00000          -9.837478         -267.69141
     15       2.00000          -9.831581         -267.53093
     16       2.00000          -0.981876          -26.71820
     17       2.00000          -0.969617          -26.38463
     18       2.00000          -0.954779          -25.98087
     19       2.00000          -0.885044          -24.08328
     20       2.00000          -0.869516          -23.66073
     21       2.00000          -0.855395          -23.27649
     22       2.00000          -0.741851          -20.18680
     23       2.00000          -0.731189          -19.89667
     24       2.00000          -0.714421          -19.44039
     25       2.00000          -0.669805          -18.22632
     26       2.00000          -0.638797          -17.38254
     27       2.00000          -0.616539          -16.77689
     28       2.00000          -0.579727          -15.77516
     29       2.00000          -0.566286          -15.40942
     30       2.00000          -0.555556          -15.11746
     31       2.00000          -0.514615          -14.00339
     32       2.00000          -0.508282          -13.83106
     33       2.00000          -0.489828          -13.32889
     34       2.00000          -0.459280          -12.49763
     35       2.00000          -0.452565          -12.31493
     36       2.00000          -0.442067          -12.02924
     37       2.00000          -0.437599          -11.90768
     38       2.00000          -0.424064          -11.53937
     39       2.00000          -0.410448          -11.16886
     40       2.00000          -0.403339          -10.97541
     41       2.00000          -0.401940          -10.93734
     42       2.00000          -0.391893          -10.66396
     43       2.00000          -0.389411          -10.59642
     44       2.00000          -0.386692          -10.52243
     45       2.00000          -0.374924          -10.20221
     46       2.00000          -0.371179          -10.10029
     47       2.00000          -0.366506           -9.97315
     48       2.00000          -0.362787           -9.87193
     49       2.00000          -0.360344           -9.80547
     50       2.00000          -0.349394           -9.50749
     51       2.00000          -0.343053           -9.33496
     52       2.00000          -0.339840           -9.24752
     53       2.00000          -0.255653           -6.95668
     54       2.00000          -0.241585           -6.57385
     55       2.00000          -0.234594           -6.38363
     56       2.00000          -0.227137           -6.18070
     57       2.00000          -0.217172           -5.90954
     58       2.00000          -0.208223           -5.66605
     59       0.00000          -0.071774           -1.95307
     60       0.00000          -0.058495           -1.59173
     61       0.00000          -0.041986           -1.14248
     62       0.00000          -0.035430           -0.96410
     63       0.00000          -0.019559           -0.53223
     64       0.00000          -0.012962           -0.35270
     65       0.00000          -0.008257           -0.22467
     66       0.00000           0.004072            0.11079
     67       0.00000           0.008426            0.22929
     68       0.00000           0.013327            0.36265
     69       0.00000           0.025449            0.69249
     70       0.00000           0.030197            0.82171
     71       0.00000           0.034035            0.92615
     72       0.00000           0.036609            0.99619
     73       0.00000           0.041762            1.13641
     74       0.00000           0.045982            1.25122
     75       0.00000           0.054650            1.48710
     76       0.00000           0.056837            1.54661
     77       0.00000           0.060660            1.65066
     78       0.00000           0.068732            1.87030
     79       0.00000           0.071043            1.93317
     80       0.00000           0.080718            2.19644
     81       0.00000           0.086562            2.35547
     82       0.00000           0.093060            2.53229
     83       0.00000           0.094767            2.57874
     84       0.00000           0.102602            2.79194
     85       0.00000           0.108123            2.94218
     86       0.00000           0.111989            3.04737
     87       0.00000           0.116513            3.17047
     88       0.00000           0.121179            3.29744
     89       0.00000           0.128081            3.48527
     90       0.00000           0.130333            3.54655
     91       0.00000           0.141985            3.86360
     92       0.00000           0.144799            3.94019
     93       0.00000           0.148030            4.02809
     94       0.00000           0.157437            4.28408
     95       0.00000           0.159169            4.33122
     96       0.00000           0.169101            4.60148
     97       0.00000           0.171356            4.66282
     98       0.00000           0.178354            4.85327
     99       0.00000           0.179988            4.89773
    100       0.00000           0.183920            5.00472
    101       0.00000           0.188161            5.12012
    102       0.00000           0.192431            5.23630
    103       0.00000           0.202173            5.50140
    104       0.00000           0.203011            5.52422
    105       0.00000           0.209585            5.70310
    106       0.00000           0.212024            5.76946
    107       0.00000           0.214841            5.84613
    108       0.00000           0.219893            5.98359
    109       0.00000           0.224453            6.10769
    110       0.00000           0.233036            6.34122
    111       0.00000           0.238117            6.47948
    112       0.00000           0.241447            6.57010
    113       0.00000           0.249337            6.78479
    114       0.00000           0.253072            6.88644
    115       0.00000           0.258726            7.04029
    116       0.00000           0.265210            7.21673
    117       0.00000           0.270868            7.37071
    118       0.00000           0.273435            7.44054
    119       0.00000           0.280453            7.63153
    120       0.00000           0.286073            7.78445
    121       0.00000           0.287408            7.82076
    122       0.00000           0.292651            7.96344
    123       0.00000           0.299864            8.15973
    124       0.00000           0.309780            8.42956
    125       0.00000           0.311470            8.47553
    126       0.00000           0.319809            8.70244
    127       0.00000           0.320870            8.73133
    128       0.00000           0.335513            9.12976
    129       0.00000           0.343654            9.35129

  Highest occupied state (VBM) at     -5.66604923 eV
  | Occupation number:      2.00000000

  Lowest unoccupied state (CBM) at    -1.95306637 eV
  | Occupation number:      0.00000000

  Overall HOMO-LUMO gap:      3.71298286 eV.

  Total energy components:
  | Sum of eigenvalues            :        -418.24220664 Ha      -11380.94949901 eV
  | XC energy correction          :        -100.75142170 Ha       -2741.58567488 eV
  | XC potential correction       :         129.52699055 Ha        3524.60874310 eV
  | Free-atom electrostatic energy:        -333.62476988 Ha       -9078.39189180 eV
  | Hartree energy correction     :         -19.62950931 Ha        -534.14612541 eV
  | MBD@rsSCS energy              :           0.00000000 Ha           0.00000000 eV
  | Entropy correction            :          -0.00000000 Ha          -0.00000000 eV
  | ---------------------------
  | Total energy                  :        -742.72091697 Ha      -20210.46444800 eV
  | Total energy, T -> 0          :        -742.72091697 Ha      -20210.46444800 eV  <-- do not rely on this value for anything but (periodic) metals
  | Electronic free energy        :        -742.72091697 Ha      -20210.46444800 eV

  Derived energy quantities:
  | Kinetic energy                :         744.00224800 Ha       20245.33123919 eV
  | Electrostatic energy          :       -1385.97174327 Ha      -37714.21001231 eV
  | Energy correction for multipole
  | error in Hartree potential    :          -0.04024557 Ha          -1.09513770 eV
  | Sum of eigenvalues per atom                           :        -355.65467184 eV
  | Total energy (T->0) per atom                          :        -631.57701400 eV  <-- do not rely on this value for anything but (periodic) metals
  | Electronic free energy per atom                       :        -631.57701400 eV

  Self-consistency convergence accuracy:
  | Change of charge density      :  0.9016E+00
  | Change of sum of eigenvalues  :  0.5340E+03 eV
  | Change of total energy        :  0.1534E+02 eV

  End self-consistency iteration #     1       :  max(cpu_time)    wall_clock(cpu1)
  | Time for this iteration                    :        1.628 s           1.626 s
[...]
   Multipole                     :  0.139624E+00 -0.514023E+00 -0.274684E+00
   Pulay + GGA                   :  0.288903E+01 -0.114036E+02 -0.617493E+01
   MBD@rsSCS                     : -0.421790E-02 -0.183847E-01 -0.868051E-02
   ----------------------------------------------------------------
   Total forces(  20)            : -0.151761E-01 -0.219128E-01 -0.101937E-01
  atom #   21
   Hellmann-Feynman              :  0.235164E-01 -0.438290E-01 -0.796189E-02
   Ionic forces                  :  0.000000E+00  0.000000E+00  0.000000E+00
   Multipole                     :  0.358246E-02  0.133481E-01 -0.317700E-01
   Pulay + GGA                   : -0.274706E-01  0.439320E-01  0.355120E-01
   MBD@rsSCS                     :  0.584560E-02  0.178975E-02 -0.861136E-02
   ----------------------------------------------------------------
   Total forces(  21)            :  0.547384E-02  0.152408E-01 -0.128312E-01
  atom #   22
   Hellmann-Feynman              : -0.206543E-01  0.404259E-01  0.282750E-01
   Ionic forces                  :  0.000000E+00  0.000000E+00  0.000000E+00
   Multipole                     : -0.520156E-02  0.510359E-02 -0.105748E-01
   Pulay + GGA                   :  0.250149E-01 -0.586774E-01 -0.207792E-01
   MBD@rsSCS                     :  0.126824E-01 -0.331597E-01 -0.804804E-02
   ----------------------------------------------------------------
   Total forces(  22)            :  0.118414E-01 -0.463076E-01 -0.111270E-01
  atom #   23
   Hellmann-Feynman              : -0.706638E+00  0.657285E+00 -0.317212E+00
   Ionic forces                  :  0.000000E+00  0.000000E+00  0.000000E+00
   Multipole                     :  0.212726E+00 -0.228935E+00  0.709505E-01
   Pulay + GGA                   :  0.486898E+00 -0.407088E+00  0.251464E+00
   MBD@rsSCS                     :  0.951598E-02 -0.113508E-01  0.124314E-01
   ----------------------------------------------------------------
   Total forces(  23)            :  0.250272E-02  0.991159E-02  0.176340E-01
  atom #   24
   Hellmann-Feynman              :  0.434878E-02 -0.160364E-01  0.482420E-01
   Ionic forces                  :  0.000000E+00  0.000000E+00  0.000000E+00
   Multipole                     : -0.347953E-01  0.502490E-02  0.479842E-02
   Pulay + GGA                   :  0.301563E-01  0.105321E-01 -0.550185E-01
   MBD@rsSCS                     :  0.797538E-02 -0.372583E-02  0.663682E-02
   ----------------------------------------------------------------
   Total forces(  24)            :  0.768517E-02 -0.420528E-02  0.465874E-02
  atom #   25
   Hellmann-Feynman              :  0.570276E-01 -0.286643E-01  0.146545E-01
   Ionic forces                  :  0.000000E+00  0.000000E+00  0.000000E+00
   Multipole                     : -0.736491E-02 -0.122614E-01 -0.279349E-01
   Pulay + GGA                   : -0.404351E-01  0.372671E-01  0.240476E-01
   MBD@rsSCS                     :  0.745700E-02 -0.564291E-02  0.868142E-02
   ----------------------------------------------------------------
   Total forces(  25)            :  0.166846E-01 -0.930146E-02  0.194486E-01
  atom #   26
   Hellmann-Feynman              :  0.345110E-01  0.714094E-02  0.335017E-01
   Ionic forces                  :  0.000000E+00  0.000000E+00  0.000000E+00
   Multipole                     :  0.270598E-02  0.354438E-01 -0.103012E-01
   Pulay + GGA                   : -0.396562E-01 -0.396638E-01 -0.260795E-01
   MBD@rsSCS                     :  0.505182E-02 -0.853157E-02  0.833632E-02
   ----------------------------------------------------------------
   Total forces(  26)            :  0.261263E-02 -0.561060E-02  0.545725E-02
  atom #   27
   Hellmann-Feynman              : -0.871116E+00 -0.444409E+00 -0.835911E+00
   Ionic forces                  :  0.000000E+00  0.000000E+00  0.000000E+00
   Multipole                     : -0.163707E+00  0.689076E-01  0.671919E-01
   Pulay + GGA                   :  0.105599E+01  0.385814E+00  0.766393E+00
   MBD@rsSCS                     : -0.293942E-01 -0.230792E-01 -0.284792E-02
   ----------------------------------------------------------------
   Total forces(  27)            : -0.822936E-02 -0.127662E-01 -0.517351E-02
  atom #   28
   Hellmann-Feynman              :  0.169258E+01  0.125141E+01  0.102456E+01
   Ionic forces                  :  0.000000E+00  0.000000E+00  0.000000E+00
   Multipole                     : -0.899474E-01 -0.112014E+00 -0.565151E-01
   Pulay + GGA                   : -0.159657E+01 -0.112444E+01 -0.963134E+00
   MBD@rsSCS                     : -0.120380E-01 -0.794217E-02 -0.117861E-02
   ----------------------------------------------------------------
   Total forces(  28)            : -0.597304E-02  0.701584E-02  0.373648E-02
  atom #   29
   Hellmann-Feynman              :  0.327938E-01  0.310939E-01  0.211162E-01
   Ionic forces                  :  0.000000E+00  0.000000E+00  0.000000E+00
   Multipole                     : -0.778199E-02  0.249935E-01  0.111004E-01
   Pulay + GGA                   : -0.141395E-01 -0.609820E-01 -0.255037E-01
   MBD@rsSCS                     : -0.101566E-01 -0.129859E-02  0.511896E-02
   ----------------------------------------------------------------
   Total forces(  29)            :  0.715744E-03 -0.619324E-02  0.118318E-01
  atom #   30
   Hellmann-Feynman              : -0.492832E-01 -0.211728E-02 -0.280010E-01
   Ionic forces                  :  0.000000E+00  0.000000E+00  0.000000E+00
   Multipole                     :  0.553852E-02  0.378895E-01 -0.261689E-02
   Pulay + GGA                   :  0.495488E-01 -0.335053E-01  0.294717E-01
   MBD@rsSCS                     : -0.590223E-02 -0.435071E-02 -0.212854E-02
   ----------------------------------------------------------------
   Total forces(  30)            : -0.980850E-04 -0.208378E-02 -0.327465E-02
  atom #   31
   Hellmann-Feynman              : -0.507413E-01 -0.293699E-01 -0.335606E-01
   Ionic forces                  :  0.000000E+00  0.000000E+00  0.000000E+00
   Multipole                     :  0.424221E-01 -0.117882E-02 -0.189589E-01
   Pulay + GGA                   :  0.808451E-02  0.323254E-01  0.526909E-01
   MBD@rsSCS                     : -0.490604E-02 -0.374533E-02 -0.365188E-02
   ----------------------------------------------------------------
   Total forces(  31)            : -0.514075E-02 -0.196869E-02 -0.348044E-02
  atom #   32
   Hellmann-Feynman              : -0.503368E-01 -0.294542E-01  0.115315E-01
   Ionic forces                  :  0.000000E+00  0.000000E+00  0.000000E+00
   Multipole                     :  0.710538E-02 -0.125649E-01  0.309292E-01
   Pulay + GGA                   :  0.438003E-01  0.401481E-01 -0.420762E-01
   MBD@rsSCS                     : -0.662175E-02 -0.306052E-02 -0.356926E-03
   ----------------------------------------------------------------
   Total forces(  32)            : -0.605291E-02 -0.493151E-02  0.275623E-04

  Removing unitary transformations (pure translations, rotations) from forces on atoms.
  Atomic forces before filtering:
  | Net force on center of mass :   0.112632E-03 -0.198987E-03 -0.703244E-03 eV/A
  | Net torque on center of mass:   0.281936E-02 -0.117655E-02 -0.952702E-03 eV
  Atomic forces after filtering:
  | Net force on center of mass :   0.627209E-17 -0.285729E-16  0.652526E-17 eV/A
  | Net torque on center of mass:   0.700688E-17  0.207383E-16  0.295026E-17 eV

  Energy and forces in a compact form:
  | Total energy uncorrected      :         -0.202091176330115E+05 eV
  | Total energy corrected        :         -0.202091176330115E+05 eV  <-- do not rely on this value for anything but (periodic) metals
  | Electronic free energy        :         -0.202091176330115E+05 eV
  Total atomic forces (unitary forces cleaned) [eV/Ang]:
  |   1         -0.533688735689454E-02          0.589498844148959E-02          0.121103080906854E-01
  |   2         -0.117515167290620E-01          0.101363440786644E-01          0.760159158934859E-02
  |   3         -0.632469002875791E-02          0.420490252048606E-02         -0.438093354467405E-02
  |   4         -0.492735793518529E-02          0.736986937622823E-02          0.150028326794573E-01
  |   5         -0.125180989767592E-01          0.799165957324556E-02          0.261352461794567E-01
  |   6          0.552661530641378E-02          0.293102019996132E-02          0.154934615212549E-02
  |   7         -0.258892632215362E-01          0.647600806039604E-02         -0.249504098717660E-01
  |   8          0.155137896959186E-01          0.202870321550274E-02         -0.179485612872641E-01
  |   9          0.485162848415382E-02         -0.360907406063476E-02          0.399461441579852E-02
  |  10          0.119180118011283E-03         -0.223864072212944E-01         -0.510531142038296E-02
  |  11         -0.369667471908880E-02          0.109951389194298E-01         -0.122142605532623E-02
  |  12          0.166631243675045E-01          0.214960102794921E-02         -0.150589238396184E-01
  |  13          0.370905743087542E-02          0.744700273475892E-02          0.581942677857969E-02
  |  14          0.234788402997841E-02          0.199707730740158E-01          0.166124834756545E-02
  |  15         -0.125126574260737E-02          0.196722204418566E-01         -0.235442506263389E-02
  |  16          0.704621900117556E-02          0.855854951799707E-02         -0.119677738307395E-01
  |  17          0.147417155045195E-01         -0.450570104851740E-02         -0.233474585414679E-01
  |  18         -0.260705266880042E-02         -0.232208800814603E-01          0.162542814842959E-01
  |  19         -0.289272266199831E-02          0.209130530283652E-01         -0.401747651967794E-03
  |  20         -0.151889773147927E-01         -0.218944039673815E-01         -0.102149219868522E-01
  |  21          0.547224265600236E-02          0.152602500831921E-01         -0.128196099323360E-01
  |  22          0.118315999205073E-01         -0.463129579920341E-01         -0.111097802700161E-01
  |  23          0.248422633686389E-02          0.989622652231995E-02          0.176370895901487E-01
  |  24          0.766045157507631E-02         -0.422982938799712E-02          0.465427043118921E-02
  |  25          0.166652375449849E-01         -0.931142410114166E-02          0.194425305922741E-01
  |  26          0.259510395388171E-02         -0.563377138375513E-02          0.547283755223151E-02
  |  27         -0.824007427048176E-02         -0.127517340899247E-01         -0.518336195730860E-02
  |  28         -0.598427537622168E-02          0.704157611476911E-02          0.371126163219112E-02
  |  29          0.706592867152494E-03         -0.618379391874121E-02          0.118328433130923E-01
  |  30         -0.104271104819004E-03         -0.204995988092590E-02         -0.329448437449738E-02
  |  31         -0.515067484619639E-02         -0.193390738446169E-02         -0.351274846839993E-02
  |  32         -0.607086583981828E-02         -0.491404241235782E-02         -0.785073318881071E-05

  ------------------------------------ 
  Start decomposition of the XC Energy 
  ------------------------------------ 
  Hartree-Fock part   :          0.000000000 Ha              0.000000000 eV
  ------------------------------------ 
  X Energy            :        -96.985275227 Ha          -2639.103615053 eV
  C Energy GGA        :         -3.871325816 Ha           -105.344135296 eV
  Total XC Energy     :       -100.856601043 Ha          -2744.447750349 eV
  LDA X and C from self-consistent density 
  X Energy LDA        :        -88.006423318 Ha          -2394.776623378 eV
  C Energy LDA        :         -7.532611456 Ha           -204.972786606 eV
  ------------------------------------ 
  End decomposition of the XC Energy 
  ------------------------------------ 
   
  ESP charge fitting starts.
  | Calculation :  00000001  of  00000001
  | Full density
  Computing multipole expansion for total density.
  Generating points for esp charges.
  Partitioning the integration grid into batches with parallel hashing+maxmin method.
  | Number of batches:     3866
  | Maximal batch size:     194
  | Minimal batch size:      52
  | Average batch size:     125.710
  | Standard deviation of batch sizes:      17.497

  Integration load balanced across    32 MPI tasks.
  Work distribution over tasks is as follows:
  Initializing partition tables, free-atom densities, potentials, etc. across the integration grid (initialize_grid_storage).
  | Original list of interatomic distances with          32 x         32 entries is created.
  | Net number of integration points:   485995
  | of which are non-zero points    :   485995
  Summing up potential from multipole expanded  density.
  Summing up the Hartree potential.
  Time summed over all CPUs for potential: real work        6.453 s, elapsed        6.703 s
  Fitting esp charges to potential.
  |
  | ESP charges fitted to the electrostatic potential :
  |
  | Atom         1: C, ESP charge:      0.43668067
  |
  | Atom         2: C, ESP charge:     -0.64382304
  |
  | Atom         3: O, ESP charge:      0.52313628
  |
  | Atom         4: H, ESP charge:     -0.13921428
  |
  | Atom         5: H, ESP charge:     -0.13042108
  |
  | Atom         6: H, ESP charge:     -0.14127231
  |
  | Atom         7: N, ESP charge:      0.55453568
  |
  | Atom         8: C, ESP charge:     -0.26309820
  |
  | Atom         9: C, ESP charge:     -0.58095549
  |
  | Atom        10: O, ESP charge:      0.52287983
  |
  | Atom        11: H, ESP charge:     -0.31555163
  |
  | Atom        12: H, ESP charge:     -0.05933125
  |
  | Atom        13: C, ESP charge:      0.68204584
  |
  | Atom        14: H, ESP charge:     -0.18755907
  |
  | Atom        15: H, ESP charge:     -0.20658951
  |
  | Atom        16: H, ESP charge:     -0.18268632
  |
  | Atom        17: N, ESP charge:      0.65220276
  |
  | Atom        18: C, ESP charge:     -0.44701342
  |
  | Atom        19: C, ESP charge:     -0.34861430
  |
  | Atom        20: O, ESP charge:      0.49873631
  |
  | Atom        21: H, ESP charge:     -0.34057620
  |
  | Atom        22: H, ESP charge:      0.13472155
  |
  | Atom        23: C, ESP charge:      0.49632734
  |
  | Atom        24: H, ESP charge:     -0.13182746
  |
  | Atom        25: H, ESP charge:     -0.14415018
  |
  | Atom        26: H, ESP charge:     -0.13865175
  |
  | Atom        27: N, ESP charge:      0.09310352
  |
  | Atom        28: C, ESP charge:      0.40314106
  |
  | Atom        29: H, ESP charge:     -0.14044494
  |
  | Atom        30: H, ESP charge:     -0.15006379
  |
  | Atom        31: H, ESP charge:     -0.15785511
  |
  | Atom        32: H, ESP charge:     -0.14781153

  RRMS:       0.00427583

  Done.

------------------------------------------------------------------------------
  Final output of selected total energy values:

  The following output summarizes some interesting total energy values
  at the end of a run (AFTER all relaxation, molecular dynamics, etc.).

  | Total energy of the DFT / Hartree-Fock s.c.f. calculation      :         -20209.117633012 eV
  | Final zero-broadening corrected energy (caution - metals only) :         -20209.117633012 eV
  | For reference only, the value of 1 Hartree used in FHI-aims is :             27.211384500 eV

  Before relying on these values, please be sure to understand exactly which
  total energy value is referred to by a given number. Different objects may
  all carry the same name 'total energy'. Definitions:

  Total energy of the DFT / Hartree-Fock s.c.f. calculation:
  | Note that this energy does not include ANY quantities calculated after the
  | s.c.f. cycle, in particular not ANY RPA, MP2, etc. many-body perturbation terms.

  Final zero-broadening corrected energy:
  | For metallic systems only, a broadening of the occupation numbers at the Fermi
  | level can be extrapolated back to zero broadening by an electron-gas inspired
  | formula. For all systems that are not real metals, this value can be
  | meaningless and should be avoided.

------------------------------------------------------------------------------
  Methods described in the following list of references were used in this FHI-aims run.
  If you publish the results, please make sure to cite these reference if they apply.
  FHI-aims is an academic code, and for our developers (often, Ph.D. students
  and postdocs), scientific credit in the community is essential.
  Thank you for helping us!

  For any use of FHI-aims, please cite:

    Volker Blum, Ralf Gehrke, Felix Hanke, Paula Havu, Ville Havu,
    Xinguo Ren, Karsten Reuter, and Matthias Scheffler
    'Ab initio molecular simulations with numeric atom-centered orbitals'
    Computer Physics Communications 180, 2175-2196 (2009)
    http://dx.doi.org/10.1016/j.cpc.2009.06.022


  The scalable eigensolver library ELPA was used in your run.
  ELPA is essential especially for large systems on hundreds or thousands of CPUs.
  For ELPA, please cite:

    Andreas Marek, Volker Blum, Rainer Johanni, Ville Havu, Bruno Lang,
    Thomas Auckenthaler, Alexander Heinecke, Hans-Joachim Bungartz, and Hermann Lederer,
    'The ELPA Library - Scalable Parallel Eigenvalue Solutions
    for Electronic Structure Theory and Computational Science'
    The Journal of Physics: Condensed Matter 26, 213201 (2014).
    http://dx.doi.org/10.1088/0953-8984/26/21/213201


  For ELPA's efficient two-stage tridiagonalization used in your run, please cite:

    T. Auckenthaler, V. Blum, H.-J. Bungartz, T. Huckle, R. Johanni, L. Kraemer,
    B. Lang, H. Lederer, and P. R. Willems,
    'Parallel solution of partial symmetric eigenvalue problems'
    'from  electronic structure calculations'
    Parallel Computing 37, 783-794 (2011).
    http://dx.doi.org/10.1016/j.parco.2011.05.002


  For the real-space grid partitioning and parallelization used in this calculation, please cite:

    Ville Havu, Volker Blum, Paula Havu, and Matthias Scheffler,
    'Efficient O(N) integration for all-electron electronic structure calculation'
    'using numerically tabulated basis functions'
    Journal of Computational Physics 228, 8367-8379 (2009).
    http://dx.doi.org/10.1016/j.jcp.2009.08.008

  Of course, there are many other important community references, e.g., those cited in the
  above references. Our list is limited to references that describe implementations in the
  FHI-aims code. The reason is purely practical (length of this list) - please credit others as well.

------------------------------------------------------------
          Leaving FHI-aims.
          Date     :  20170309, Time     :  160816.020

          Computational steps:
          | Number of self-consistency cycles          :           14

          Detailed time accounting                     :  max(cpu_time)    wall_clock(cpu1)
          | Total time                                 :       34.738 s          34.953 s
          | Preparation time                           :        0.232 s           0.234 s
          | Grid partitioning                          :        0.300 s           0.298 s
          | Preloading free-atom quantities on grid    :        0.028 s           0.028 s
          | Free-atom superposition energy             :        0.044 s           0.040 s
          | Total time for integrations                :       11.989 s          11.973 s
          | Total time for solution of K.-S. equations :        0.528 s           0.496 s
          | Total time for density & force components  :       10.185 s          10.174 s
          | Total time for mixing                      :        0.128 s           0.106 s
          | Total time for Hartree multipole update    :        0.064 s           0.058 s
          | Total time for Hartree multipole sum       :        6.316 s           6.306 s
          | Total time for total energy evaluation     :        0.036 s           0.019 s

          Have a nice day.
------------------------------------------------------------
