  MPI-parallelism will be employed.
------------------------------------------------------------
          Invoking FHI-aims ...
          Version 150427
          Git rev.: 9dd23e0 BL: Update Version stamp
          Compiled on 2015/11/03 at 22:05:20 on host eos03.

          When using FHI-aims, please cite the following reference:

          Volker Blum, Ralf Gehrke, Felix Hanke, Paula Havu,
          Ville Havu, Xinguo Ren, Karsten Reuter, and Matthias Scheffler,
          'Ab Initio Molecular Simulations with Numeric Atom-Centered Orbitals: FHI-aims',
          Computer Physics Communications 180, 2175-2196 (2009)

          For any questions about FHI-aims, please visit the aimsclub website
          with its forums and wiki. Contributions to both the forums and the
          wiki are warmly encouraged - they are for you, and everyone is welcome there.

------------------------------------------------------------

  Date     :  20170309, Time     :  183610.594
  Time zero on CPU 1             :   0.336020000000000E+00  s.
  Internal wall clock time zero  :           258316570.594  s.

  Using       32 parallel tasks.
  Task        0 on host eos399 reporting.
  Task        1 on host eos399 reporting.
  Task        2 on host eos399 reporting.
  Task        3 on host eos399 reporting.
  Task        4 on host eos399 reporting.
  Task        5 on host eos399 reporting.
  Task        6 on host eos399 reporting.
  Task        7 on host eos399 reporting.
  Task        8 on host eos399 reporting.
  Task        9 on host eos399 reporting.
  Task       10 on host eos399 reporting.
  Task       11 on host eos399 reporting.
  Task       12 on host eos399 reporting.
  Task       13 on host eos399 reporting.
  Task       14 on host eos399 reporting.
  Task       15 on host eos399 reporting.
  Task       16 on host eos399 reporting.
  Task       17 on host eos399 reporting.
  Task       18 on host eos399 reporting.
  Task       19 on host eos399 reporting.
  Task       20 on host eos399 reporting.
  Task       21 on host eos399 reporting.
  Task       22 on host eos399 reporting.
  Task       23 on host eos399 reporting.
  Task       24 on host eos399 reporting.
  Task       25 on host eos399 reporting.
  Task       26 on host eos399 reporting.
  Task       27 on host eos399 reporting.
  Task       28 on host eos399 reporting.
  Task       29 on host eos399 reporting.
  Task       30 on host eos399 reporting.
  Task       31 on host eos399 reporting.

  Performing system and environment tests:
  | Environment variable OMP_NUM_THREADS correctly set to 1.
  | Stacksize not measured: no C compiler
  | Checking for scalapack...
  | Testing pdtran()...
  | All pdtran() tests passed.

  Obtaining array dimensions for all initial allocations:
  
  -----------------------------------------------------------------------
  Parsing control.in (first pass over file, find array dimensions only).
  The contents of control.in will be repeated verbatim below
  unless switched off by setting 'verbatim_writeout .false.' .
  in the first line of control.in .
  -----------------------------------------------------------------------
  
  #########################################################################################
  #
  # Input for System
  #
  #########################################################################################
  #
  #
  #  Physical model
  #
    xc                 pbe
    many_body_dispersion
    spin               none
    charge             0.
  #
  #  SCF convergence
  #
    occupation_type    gaussian 0.05
    mixer              pulay
      n_max_pulay        10
      charge_mix_param   0.5
    sc_accuracy_rho    1E-4
    sc_accuracy_eev    1E-2
    sc_accuracy_etot   1E-5
    sc_accuracy_forces 1E-4
    sc_iter_limit      1000
  #
  #  ESP charge
  #
    output esp
    esp equal_grid_n 80 80 80
  #
  #
  ################################################################################
  #
  #  FHI-aims code project
  # Volker Blum, Fritz Haber Institute Berlin, 2009
  #
  #  Suggested "tight" defaults for H atom (to be pasted into control.in file)
  #
  ################################################################################
    species        H
  #     global species definitions
      nucleus             1
      mass                1.00794
  #
      l_hartree           6
  #
      cut_pot             4.0  2.0  1.0
      basis_dep_cutoff    1e-4
  #
      radial_base         24 7.0
      radial_multiplier   2
      angular_grids       specified
        division   0.1930   50
        division   0.3175  110
        division   0.4293  194
        division   0.5066  302
        division   0.5626  434
  #      division   0.5922  590
  #      division   0.6227  974
  #      division   0.6868 1202
  #      outer_grid  770
        outer_grid  434
  ################################################################################
  #
  #  Definition of "minimal" basis
  #
  ################################################################################
  #     valence basis states
      valence      1  s   1.
  #     ion occupancy
      ion_occ      1  s   0.5
  ################################################################################
  #
  #  Suggested additional basis functions. For production calculations,
  #  uncomment them one after another (the most important basis functions are
  #  listed first).
  #
  #  Basis constructed for dimers: 0.5 A, 0.7 A, 1.0 A, 1.5 A, 2.5 A
  #
  ################################################################################
  #  "First tier" - improvements: -1014.90 meV to -62.69 meV
       hydro 2 s 2.1
       hydro 2 p 3.5
  #  "Second tier" - improvements: -12.89 meV to -1.83 meV
       hydro 1 s 0.85
       hydro 2 p 3.7
       hydro 2 s 1.2
       hydro 3 d 7
  #  "Third tier" - improvements: -0.25 meV to -0.12 meV
  #     hydro 4 f 11.2
  #     hydro 3 p 4.8
  #     hydro 4 d 9
  #     hydro 3 s 3.2
  ################################################################################
  #
  # For methods that use the localized form of the "resolution of identity" for
  # the two-electron Coulomb operator (RI_method LVL), particularly Hartree-Fock and
  # hybrid density functional calculations, the highest accuracy can be obtained by
  # uncommenting the line beginning with "for_aux"  below, thus adding an extra g radial
  # function to the construction of the product basis set for the expansion.
  # See Ref. New J. Phys. 17, 093020 (2015) for more information, particularly Figs. 1 and 6.
  #
  ################################################################################
  #
  # for_aux hydro 5 g 6.0
  ################################################################################
  #
  #  FHI-aims code project
  # Volker Blum, Fritz Haber Institute Berlin, 2009
  #
  #  Suggested "tight" defaults for C atom (to be pasted into control.in file)
  #
  ################################################################################
    species        C
  #     global species definitions
      nucleus             6
      mass                12.0107
  #
      l_hartree           6
  #
      cut_pot             4.0  2.0  1.0
      basis_dep_cutoff    1e-4
  #
      radial_base         34 7.0
      radial_multiplier   2
      angular_grids specified
        division   0.2187   50
        division   0.4416  110
        division   0.6335  194
        division   0.7727  302
        division   0.8772  434
  #      division   0.9334  590
  #      division   0.9924  770
  #      division   1.0230  974
  #      division   1.5020 1202
  #     outer_grid  974
        outer_grid  434
  ################################################################################
  #
  #  Definition of "minimal" basis
  #
  ################################################################################
  #     valence basis states
      valence      2  s   2.
      valence      2  p   2.
  #     ion occupancy
      ion_occ      2  s   1.
      ion_occ      2  p   1.
  ################################################################################
  #
  #  Suggested additional basis functions. For production calculations,
  #  uncomment them one after another (the most important basis functions are
  #  listed first).
  #
  #  Constructed for dimers: 1.0 A, 1.25 A, 1.5 A, 2.0 A, 3.0 A
  #
  ################################################################################
  #  "First tier" - improvements: -1214.57 meV to -155.61 meV
       hydro 2 p 1.7
       hydro 3 d 6
       hydro 2 s 4.9
  #  "Second tier" - improvements: -67.75 meV to -5.23 meV
       hydro 4 f 9.8
       hydro 3 p 5.2
       hydro 3 s 4.3
       hydro 5 g 14.4
       hydro 3 d 6.2
  #  "Third tier" - improvements: -2.43 meV to -0.60 meV
  #     hydro 2 p 5.6
  #     hydro 2 s 1.4
  #     hydro 3 d 4.9
  #     hydro 4 f 11.2
  #  "Fourth tier" - improvements: -0.39 meV to -0.18 meV
  #     hydro 2 p 2.1
  #     hydro 5 g 16.4
  #     hydro 4 d 13.2
  #     hydro 3 s 13.6
  #     hydro 4 f 17.6
  #  Further basis functions - improvements: -0.08 meV and below
  #     hydro 3 s 2
  #     hydro 3 p 6
  #     hydro 4 d 20
  ################################################################################
  #
  # For methods that use the localized form of the "resolution of identity" for
  # the two-electron Coulomb operator (RI_method LVL), particularly Hartree-Fock and
  # hybrid density functional calculations, the highest accuracy can be obtained by
  # uncommenting the line beginning with "for_aux"  below, thus adding an extra g radial
  # function to the construction of the product basis set for the expansion.
  # See Ref. New J. Phys. 17, 093020 (2015) for more information, particularly Figs. 1 and 6.
  #
  ################################################################################
  #
  # for_aux hydro 5 g 6.0
  ################################################################################
  #
  #  FHI-aims code project
  # Volker Blum, Fritz Haber Institute Berlin, 2009
  #
  #  Suggested "tight" defaults for N atom (to be pasted into control.in file)
  #
  ################################################################################
    species        N
  #     global species definitions
      nucleus             7
      mass                14.0067
  #
      l_hartree           6
  #
      cut_pot             4.0  2.0  1.0
      basis_dep_cutoff    1e-4
  #
      radial_base         35 7.0
      radial_multiplier   2
      angular_grids       specified
        division   0.1841   50
        division   0.3514  110
        division   0.5126  194
        division   0.6292  302
        division   0.6939  434
  #      division   0.7396  590
  #      division   0.7632  770
  #      division   0.8122  974
  #      division   1.1604 1202
  #      outer_grid  974
        outer_grid  434
  ################################################################################
  #
  #  Definition of "minimal" basis
  #
  ################################################################################
  #     valence basis states
      valence      2  s   2.
      valence      2  p   3.
  #     ion occupancy
      ion_occ      2  s   1.
      ion_occ      2  p   2.
  ################################################################################
  #
  #  Suggested additional basis functions. For production calculations,
  #  uncomment them one after another (the most important basis functions are
  #  listed first).
  #
  #  Constructed for dimers: 1.0 A, 1.1 A, 1.5 A, 2.0 A, 3.0 A
  #
  ################################################################################
  #  "First tier" - improvements: -1193.42 meV to -220.60 meV
       hydro 2 p 1.8
       hydro 3 d 6.8
       hydro 3 s 5.8
  #  "Second tier" - improvements: -80.21 meV to -6.86 meV
       hydro 4 f 10.8
       hydro 3 p 5.8
       hydro 1 s 0.8
       hydro 5 g 16
       hydro 3 d 4.9
  #  "Third tier" - improvements: -4.29 meV to -0.53 meV
  #     hydro 3 s 16
  #     ionic 2 p auto
  #     hydro 3 d 6.6
  #     hydro 4 f 11.6
  #  "Fourth tier" - improvements: -0.75 meV to -0.25 meV
  #     hydro 2 p 4.5
  #     hydro 2 s 2.4
  #     hydro 5 g 14.4
  #     hydro 4 d 14.4
  #     hydro 4 f 16.8
  # Further basis functions - -0.21 meV and below
  #     hydro 3 p 14.8
  #     hydro 3 s 4.4
  #     hydro 3 d 19.6
  #     hydro 5 g 12.8
  ################################################################################
  #
  # For methods that use the localized form of the "resolution of identity" for
  # the two-electron Coulomb operator (RI_method LVL), particularly Hartree-Fock and
  # hybrid density functional calculations, the highest accuracy can be obtained by
  # uncommenting the line beginning with "for_aux"  below, thus adding an extra g radial
  # function to the construction of the product basis set for the expansion.
  # See Ref. New J. Phys. 17, 093020 (2015) for more information, particularly Figs. 1 and 6.
  #
  ################################################################################
  #
  # for_aux hydro 5 g 6.0
  ################################################################################
  #
  #  FHI-aims code project
  # Volker Blum, Fritz Haber Institute Berlin, 2009
  #
  #  Suggested "tight" defaults for O atom (to be pasted into control.in file)
  #
  ################################################################################
    species        O
  #     global species definitions
      nucleus             8
      mass                15.9994
  #
      l_hartree           6
  #
      cut_pot             4.0  2.0  1.0
      basis_dep_cutoff    1e-4
  #
      radial_base         36 7.0
      radial_multiplier   2
       angular_grids specified
        division   0.1817   50
        division   0.3417  110
        division   0.4949  194
        division   0.6251  302
        division   0.8014  434
  #      division   0.8507  590
  #      division   0.8762  770
  #      division   0.9023  974
  #      division   1.2339 1202
  #      outer_grid 974
        outer_grid  434
  ################################################################################
  #
  #  Definition of "minimal" basis
  #
  ################################################################################
  #     valence basis states
      valence      2  s   2.
      valence      2  p   4.
  #     ion occupancy
      ion_occ      2  s   1.
      ion_occ      2  p   3.
  ################################################################################
  #
  #  Suggested additional basis functions. For production calculations,
  #  uncomment them one after another (the most important basis functions are
  #  listed first).
  #
  #  Constructed for dimers: 1.0 A, 1.208 A, 1.5 A, 2.0 A, 3.0 A
  #
  ################################################################################
  #  "First tier" - improvements: -699.05 meV to -159.38 meV
       hydro 2 p 1.8
       hydro 3 d 7.6
       hydro 3 s 6.4
  #  "Second tier" - improvements: -49.91 meV to -5.39 meV
       hydro 4 f 11.6
       hydro 3 p 6.2
       hydro 3 d 5.6
       hydro 5 g 17.6
       hydro 1 s 0.75
  #  "Third tier" - improvements: -2.83 meV to -0.50 meV
  #     ionic 2 p auto
  #     hydro 4 f 10.8
  #     hydro 4 d 4.7
  #     hydro 2 s 6.8
  #  "Fourth tier" - improvements: -0.40 meV to -0.12 meV
  #     hydro 3 p 5
  #     hydro 3 s 3.3
  #     hydro 5 g 15.6
  #     hydro 4 f 17.6
  #     hydro 4 d 14
  # Further basis functions - -0.08 meV and below
  #     hydro 3 s 2.1
  #     hydro 4 d 11.6
  #     hydro 3 p 16
  #     hydro 2 s 17.2
  ################################################################################
  #
  # For methods that use the localized form of the "resolution of identity" for
  # the two-electron Coulomb operator (RI_method LVL), particularly Hartree-Fock and
  # hybrid density functional calculations, the highest accuracy can be obtained by
  # uncommenting the line beginning with "for_aux"  below, thus adding an extra g radial
  # function to the construction of the product basis set for the expansion.
  # See Ref. New J. Phys. 17, 093020 (2015) for more information, particularly Figs. 1 and 6.
  #
  ################################################################################
  #
  # for_aux hydro 5 g 6.0
  
  -----------------------------------------------------------------------
  Completed first pass over input file control.in .
  -----------------------------------------------------------------------
  
  
  -----------------------------------------------------------------------
  Parsing geometry.in (first pass over file, find array dimensions only).
  The contents of geometry.in will be repeated verbatim below
  unless switched off by setting 'verbatim_writeout .false.' .
  in the first line of geometry.in .
  -----------------------------------------------------------------------
  
  #
  # This is the geometry file that corresponds to the current relaxation step.
  # If you do not want this file to be written, set the "write_restart_geometry" flag to .false.
  #
  atom       0.18041541      0.89620100      0.09575635 C
  atom       0.29535995      0.36534334      1.51515507 C
  atom       1.33411191      0.43052378      2.16288902 O
  atom       1.02954373      0.52474157     -0.48986070 H
  atom       0.25508615      1.99133386      0.12137923 H
  atom      -0.75399164      0.61823198     -0.40883524 H
  atom      -0.84568304     -0.20520291      2.02229252 N
  atom      -0.95910807     -0.62140408      3.41627913 C
  atom      -0.14668286     -1.86175242      3.87153480 C
  atom       0.24716774     -1.88217473      5.03403248 O
  atom      -1.69841551     -0.13285716      1.47897430 H
  atom      -0.54021344      0.17451499      4.04801324 H
  atom      -2.43378319     -0.83298329      3.77207307 C
  atom      -2.88820498     -1.63016252      3.16411295 H
  atom      -3.00830229      0.09169579      3.62232682 H
  atom      -2.51995731     -1.12423952      4.82475170 H
  atom       0.06338566     -2.92296489      3.03876469 N
  atom      -0.43318961     -3.20718897      1.70559733 C
  atom      -0.93199661     -4.66541384      1.70196663 C
  atom      -0.40195648     -5.51711243      2.41145616 O
  atom       0.51491421     -3.71848697      3.49194310 H
  atom      -1.25983120     -2.52701888      1.47963129 H
  atom       0.66276082     -3.05462357      0.63378281 C
  atom       1.46994374     -3.77359791      0.82399157 H
  atom       1.08839625     -2.04634219      0.67349489 H
  atom       0.27091612     -3.23851050     -0.37643299 H
  atom      -1.94412217     -4.97421685      0.83955990 N
  atom      -2.71967099     -4.06610130      0.01099075 C
  atom      -2.21022299     -5.95376819      0.85884867 H
  atom      -3.41203927     -4.65890919     -0.59597438 H
  atom      -2.08602739     -3.49248636     -0.68009954 H
  atom      -3.31959264     -3.36120867      0.60796738 H
  
  -----------------------------------------------------------------------
  Completed first pass over input file geometry.in .
  -----------------------------------------------------------------------
  

  Basic array size parameters:
  | Number of species                 :        4
  | Number of atoms                   :       32
  | Max. basis fn. angular momentum   :        4
  | Max. atomic/ionic basis occupied n:        2
  | Max. number of basis fn. types    :        2
  | Max. radial fns per species/type  :        8
  | Max. logarithmic grid size        :     1301
  | Max. radial integration grid size :       73
  | Max. angular integration grid size:      434
  | Max. angular grid division number :        8
  | Radial grid for Hartree potential :     1301
  | Number of spin channels           :        1

------------------------------------------------------------
          Reading file control.in.
------------------------------------------------------------
  XC: Using PBE gradient-corrected functionals.
  Self-consistent screening and van der Waals energy (TS, TS+SCS,MBD) module
  Spin treatment: No spin polarisation.
  Charge =   0.000000E+00: Neutral system requested explicitly.
  Occupation type: Gaussian broadening, width =   0.500000E-01 eV.
  Using pulay charge density mixing.
  Pulay mixing - number of memorized iterations:   10
  Charge density mixing - mixing parameter:     0.5000
  Convergence accuracy of self-consistent charge density:  0.1000E-03
  Convergence accuracy of sum of eigenvalues:  0.1000E-01
  Convergence accuracy of total energy:  0.1000E-04
  Convergence accuracy of forces:  0.1000E-03
  Maximum number of s.-c. iterations  :  1000
  Fitting ESP-charges to Potential. 
  | Esp charge output options: 
  | ESP Grid method: 3, cubic grid
  | Number of points in x, ,y, z:  0080 0080 0080
  |
 
  Reading configuration options for species H                   .
  | Found nuclear charge :   1.0000
  | Found atomic mass :    1.00794000000000      amu
  | Found l_max for Hartree potential  :   6
  | Found cutoff potl. onset [A], width [A], scale factor :    4.00000    2.00000    1.00000
  | Threshold for basis-dependent cutoff potential is   0.100000E-03
  | Found data for basic radial integration grid :    24 points, outermost radius =    7.000 A
  | Found multiplier for basic radial grid :   2
  | Found angular grid specification: user-specified.
  | Specified grid contains     6 separate shells.
  | Check grid settings after all constraints further below.
  | Found free-atom valence shell :  1 s   1.000
  | No ionic wave fns used. Skipping ion_occ.
  | Found hydrogenic basis function :  2 s   2.100
  | Found hydrogenic basis function :  2 p   3.500
  | Found hydrogenic basis function :  1 s   0.850
  | Found hydrogenic basis function :  2 p   3.700
  | Found hydrogenic basis function :  2 s   1.200
  | Found hydrogenic basis function :  3 d   7.000
  Species H                   : Missing cutoff potential type.
  Defaulting to exp(1/x)/(1-x)^2 type cutoff potential.
  Species H : No 'logarithmic' tag. Using default grid for free atom:
  | Default logarithmic grid data [bohr] : 0.1000E-03 0.1000E+03 0.1012E+01
  Species H : On-site basis accuracy parameter (for Gram-Schmidt orthonormalisation) not specified.
  Using default value basis_acc =  0.1000000E-03.
  Species H                   : Using default innermost maximum threshold i_radial=  2 for radial functions.
  Species H                   : Default cutoff onset for free atom density etc. : 0.40000000E+01 AA.
  Species H                   : Basic radial grid will be enhanced according to radial_multiplier =   2, to contain    49 grid points.
 
  Reading configuration options for species C                   .
  | Found nuclear charge :   6.0000
  | Found atomic mass :    12.0107000000000      amu
  | Found l_max for Hartree potential  :   6
  | Found cutoff potl. onset [A], width [A], scale factor :    4.00000    2.00000    1.00000
  | Threshold for basis-dependent cutoff potential is   0.100000E-03
  | Found data for basic radial integration grid :    34 points, outermost radius =    7.000 A
  | Found multiplier for basic radial grid :   2
  | Found angular grid specification: user-specified.
  | Specified grid contains     6 separate shells.
  | Check grid settings after all constraints further below.
  | Found free-atom valence shell :  2 s   2.000
  | Found free-atom valence shell :  2 p   2.000
  | No ionic wave fns used. Skipping ion_occ.
  | No ionic wave fns used. Skipping ion_occ.
  | Found hydrogenic basis function :  2 p   1.700
  | Found hydrogenic basis function :  3 d   6.000
  | Found hydrogenic basis function :  2 s   4.900
  | Found hydrogenic basis function :  4 f   9.800
  | Found hydrogenic basis function :  3 p   5.200
  | Found hydrogenic basis function :  3 s   4.300
  | Found hydrogenic basis function :  5 g  14.400
  | Found hydrogenic basis function :  3 d   6.200
  Species C                   : Missing cutoff potential type.
  Defaulting to exp(1/x)/(1-x)^2 type cutoff potential.
  Species C : No 'logarithmic' tag. Using default grid for free atom:
  | Default logarithmic grid data [bohr] : 0.1000E-03 0.1000E+03 0.1012E+01
  Species C : On-site basis accuracy parameter (for Gram-Schmidt orthonormalisation) not specified.
  Using default value basis_acc =  0.1000000E-03.
  Species C                   : Using default innermost maximum threshold i_radial=  2 for radial functions.
  Species C                   : Default cutoff onset for free atom density etc. : 0.40000000E+01 AA.
  Species C                   : Basic radial grid will be enhanced according to radial_multiplier =   2, to contain    69 grid points.
 
  Reading configuration options for species N                   .
  | Found nuclear charge :   7.0000
  | Found atomic mass :    14.0067000000000      amu
  | Found l_max for Hartree potential  :   6
  | Found cutoff potl. onset [A], width [A], scale factor :    4.00000    2.00000    1.00000
  | Threshold for basis-dependent cutoff potential is   0.100000E-03
  | Found data for basic radial integration grid :    35 points, outermost radius =    7.000 A
  | Found multiplier for basic radial grid :   2
  | Found angular grid specification: user-specified.
  | Specified grid contains     6 separate shells.
  | Check grid settings after all constraints further below.
  | Found free-atom valence shell :  2 s   2.000
  | Found free-atom valence shell :  2 p   3.000
  | No ionic wave fns used. Skipping ion_occ.
  | No ionic wave fns used. Skipping ion_occ.
  | Found hydrogenic basis function :  2 p   1.800
  | Found hydrogenic basis function :  3 d   6.800
  | Found hydrogenic basis function :  3 s   5.800
  | Found hydrogenic basis function :  4 f  10.800
  | Found hydrogenic basis function :  3 p   5.800
  | Found hydrogenic basis function :  1 s   0.800
  | Found hydrogenic basis function :  5 g  16.000
  | Found hydrogenic basis function :  3 d   4.900
  Species N                   : Missing cutoff potential type.
  Defaulting to exp(1/x)/(1-x)^2 type cutoff potential.
  Species N : No 'logarithmic' tag. Using default grid for free atom:
  | Default logarithmic grid data [bohr] : 0.1000E-03 0.1000E+03 0.1012E+01
  Species N : On-site basis accuracy parameter (for Gram-Schmidt orthonormalisation) not specified.
  Using default value basis_acc =  0.1000000E-03.
  Species N                   : Using default innermost maximum threshold i_radial=  2 for radial functions.
  Species N                   : Default cutoff onset for free atom density etc. : 0.40000000E+01 AA.
  Species N                   : Basic radial grid will be enhanced according to radial_multiplier =   2, to contain    71 grid points.
 
  Reading configuration options for species O                   .
  | Found nuclear charge :   8.0000
  | Found atomic mass :    15.9994000000000      amu
  | Found l_max for Hartree potential  :   6
  | Found cutoff potl. onset [A], width [A], scale factor :    4.00000    2.00000    1.00000
  | Threshold for basis-dependent cutoff potential is   0.100000E-03
  | Found data for basic radial integration grid :    36 points, outermost radius =    7.000 A
  | Found multiplier for basic radial grid :   2
  | Found angular grid specification: user-specified.
  | Specified grid contains     6 separate shells.
  | Check grid settings after all constraints further below.
  | Found free-atom valence shell :  2 s   2.000
  | Found free-atom valence shell :  2 p   4.000
  | No ionic wave fns used. Skipping ion_occ.
  | No ionic wave fns used. Skipping ion_occ.
  | Found hydrogenic basis function :  2 p   1.800
  | Found hydrogenic basis function :  3 d   7.600
  | Found hydrogenic basis function :  3 s   6.400
  | Found hydrogenic basis function :  4 f  11.600
  | Found hydrogenic basis function :  3 p   6.200
  | Found hydrogenic basis function :  3 d   5.600
  | Found hydrogenic basis function :  5 g  17.600
  | Found hydrogenic basis function :  1 s   0.750
  Species O                   : Missing cutoff potential type.
  Defaulting to exp(1/x)/(1-x)^2 type cutoff potential.
  Species O : No 'logarithmic' tag. Using default grid for free atom:
  | Default logarithmic grid data [bohr] : 0.1000E-03 0.1000E+03 0.1012E+01
  Species O : On-site basis accuracy parameter (for Gram-Schmidt orthonormalisation) not specified.
  Using default value basis_acc =  0.1000000E-03.
  Species O                   : Using default innermost maximum threshold i_radial=  2 for radial functions.
  Species O                   : Default cutoff onset for free atom density etc. : 0.40000000E+01 AA.
  Species O                   : Basic radial grid will be enhanced according to radial_multiplier =   2, to contain    73 grid points.
 
  Finished reading input file 'control.in'. Consistency checks are next.
 
  Target number of points in a grid batch is not set. Defaulting to  100
  Method for grid partitioning is not set. Defaulting to parallel hash+maxmin partitioning.
  Batch size limit is not set. Defaulting to    200
  By default, will store active basis functions for each batch.
  If in need of memory, prune_basis_once .false. can be used to disable this option.
  communication_type for Hartree potential was not specified.
  Defaulting to calc_hartree .
  Pulay mixer: Number of initial linear mixing iterations not set.
  Defaulting to    0 iterations.
  Work space size for distributed Hartree potential not set.
  Defaulting to   0.200000E+03 MB.
  Algorithm-dependent basis array size parameters:
  | n_max_pulay                         :       10
  Geometry relaxation not requested: no relaxation will be performed.
  Handling of forces: Unphysical translation and rotation will be removed from forces.
  No accuracy limit for integral partition fn. given. Defaulting to  0.1000E-14.
  No threshold value for u(r) in integrations given. Defaulting to  0.1000E-05.
  No accuracy for occupation numbers given. Defaulting to  0.1000E-07.
  No threshold value for occupation numbers given. Defaulting to  0.0000E+00.
  No accuracy for fermi level given. Defaulting to  0.1000E-19.
  Maximum # of iterations to find E_F not set. Defaulting to  200.
  Preferred method for the eigenvalue solver ('KS_method') not specified in 'control.in'.
  Calling blacs routine to test compilation state
  Since scalapack support is enabled, defaulting to 'elpa'.
  Preferred method for the MBD eigenvalue solver ('mbd_eigensolver') not specified in 'control.in'.
  Calling blacs routine to test compilation state
  Since scalapack support is enabled, defaulting to 'scaLAPACK'.
  Will not use alltoall communication since running on < 1024 CPUs.
  Threshold for basis singularities not set.
  Default threshold for basis singularities:  0.1000E-04
  partition_type (choice of integration weights) for integrals was not specified.
  | Using a version of the partition function of Stratmann and coworkers ('stratmann_smoother').
  | At each grid point, the set of atoms used to build the partition table is smoothly restricted to
  | only those atoms whose free-atom density would be non-zero at that grid point.
  Partitioning for Hartree potential was not defined. Using partition_type for integrals.
  | Adjusted default value of keyword multip_moments_threshold to:       0.10000000E-11
  | This value may affect high angular momentum components of the Hartree potential in periodic systems.
  No q(lm)/r^(l+1) cutoff set for long-range Hartree potential.
  | Using default value of  0.100000E-09 .
  | Verify using the multipole_threshold keyword.
  Defaulting to new monopole extrapolation.
  Density update method: automatic selection selected.
------------------------------------------------------------


------------------------------------------------------------
          Reading geometry description geometry.in.
------------------------------------------------------------
 * Warning! You did not set the 'relativistic' flag in input file 'control.in'.
 * Since you are not attempting to treat any elements beyond Ca(Z=20), FHI-aims
 * will default to 'relativistic none'.
 * You must ensure that this is really what you want!!
 * For example, DO NOT compute total-energy differences between results from
 * different settings of the 'relativistic' flag.
  Input structure read successfully.
  The structure contains       32 atoms,  and a total of        116.000 electrons.

  Input geometry:
  | No unit cell requested.
  | Atomic structure:
  |       Atom                x [A]            y [A]            z [A]
  |    1: Species C              0.180415         0.896201         0.095756
  |    2: Species C              0.295360         0.365343         1.515155
  |    3: Species O              1.334112         0.430524         2.162889
  |    4: Species H              1.029544         0.524742        -0.489861
  |    5: Species H              0.255086         1.991334         0.121379
  |    6: Species H             -0.753992         0.618232        -0.408835
  |    7: Species N             -0.845683        -0.205203         2.022293
  |    8: Species C             -0.959108        -0.621404         3.416279
  |    9: Species C             -0.146683        -1.861752         3.871535
  |   10: Species O              0.247168        -1.882175         5.034032
  |   11: Species H             -1.698416        -0.132857         1.478974
  |   12: Species H             -0.540213         0.174515         4.048013
  |   13: Species C             -2.433783        -0.832983         3.772073
  |   14: Species H             -2.888205        -1.630163         3.164113
  |   15: Species H             -3.008302         0.091696         3.622327
  |   16: Species H             -2.519957        -1.124240         4.824752
  |   17: Species N              0.063386        -2.922965         3.038765
  |   18: Species C             -0.433190        -3.207189         1.705597
  |   19: Species C             -0.931997        -4.665414         1.701967
  |   20: Species O             -0.401956        -5.517112         2.411456
  |   21: Species H              0.514914        -3.718487         3.491943
  |   22: Species H             -1.259831        -2.527019         1.479631
  |   23: Species C              0.662761        -3.054624         0.633783
  |   24: Species H              1.469944        -3.773598         0.823992
  |   25: Species H              1.088396        -2.046342         0.673495
  |   26: Species H              0.270916        -3.238510        -0.376433
  |   27: Species N             -1.944122        -4.974217         0.839560
  |   28: Species C             -2.719671        -4.066101         0.010991
  |   29: Species H             -2.210223        -5.953768         0.858849
  |   30: Species H             -3.412039        -4.658909        -0.595974
  |   31: Species H             -2.086027        -3.492486        -0.680100
  |   32: Species H             -3.319593        -3.361209         0.607967
  |

  | The smallest distance between any two atoms is         1.01369683 AA.
  |
  | The first atom of this pair is atom number                      7 .
  | The second atom of this pair is atom number                    11 .

  Number of empty states per atom not set in control.in - providing a guess from actual geometry.
  | Total number of empty states used during s.c.f. cycle:       71
  If you use a very high smearing, use empty_states (per atom!) in control.in to increase this value.

  Structure-dependent array size parameters: 
  | Maximum number of distinct radial functions  :       40
  | Maximum number of basis functions            :      840
  | Number of Kohn-Sham states (occupied + empty):      129
------------------------------------------------------------

------------------------------------------------------------
          Preparing all fixed parts of the calculation.
------------------------------------------------------------
  Determining machine precision:
    2.225073858507201E-308
  Setting up grids for atomic and cluster calculations.

  Creating wave function, potential, and density for free atoms.

  Species: H

  List of occupied orbitals and eigenvalues:
    n    l              occ      energy [Ha]    energy [eV]
    1    0           1.0000        -0.238382        -6.4867


  Species: C

  List of occupied orbitals and eigenvalues:
    n    l              occ      energy [Ha]    energy [eV]
    1    0           2.0000       -10.041232      -273.2358
    2    0           2.0000        -0.504327       -13.7234
    2    1           2.0000        -0.193750        -5.2722


  Species: N

  List of occupied orbitals and eigenvalues:
    n    l              occ      energy [Ha]    energy [eV]
    1    0           2.0000       -14.129007      -384.4699
    2    0           2.0000        -0.681802       -18.5528
    2    1           3.0000        -0.260543        -7.0897


  Species: O

  List of occupied orbitals and eigenvalues:
    n    l              occ      energy [Ha]    energy [eV]
    1    0           2.0000       -18.898576      -514.2564
    2    0           2.0000        -0.878795       -23.9132
    2    1           4.0000        -0.332075        -9.0362

  Creating fixed part of basis set: Ionic, confined, hydrogenic.
 
  H                    hydrogenic:
 
  List of hydrogenic basis orbitals: 
    n    l      effective z      eigenvalue [eV]  inner max. [A]     outer max. [A]     outer radius [A]   
    2    0         2.100000       -14.9965           0.193243           1.317208           5.373006
    2    1         3.500000       -41.6672           0.602369           0.602369           4.056063
    1    0         0.850000        -9.8292           0.624871           0.624871           5.373006
    2    1         3.700000       -46.5653           0.573622           0.573622           3.910002
    2    0         1.200000        -4.5995           0.334980           2.228188           5.505995
    3    2         7.000000       -74.0753           0.680699           0.680699           3.769201
 
 
  C                    hydrogenic:
 
  List of hydrogenic basis orbitals: 
    n    l      effective z      eigenvalue [eV]  inner max. [A]     outer max. [A]     outer radius [A]   
    2    1         1.700000        -9.8152           1.245706           1.245706           5.401630
    3    2         6.000000       -54.4226           0.792453           0.792453           4.178599
    2    0         4.900000       -81.6681           0.082559           0.562749           3.353238
    4    3         9.800000       -81.6681           0.863254           0.863254           4.028125
    3    1         5.200000       -40.8774           0.305389           1.215618           4.898362
    3    0         4.300000       -27.9508           0.091041           1.610311           5.401630
    5    4        14.400000      -112.8510           0.917666           0.917666           3.883070
    3    2         6.200000       -58.1113           0.763917           0.763917           4.077671
 
 
  N                    hydrogenic:
 
  List of hydrogenic basis orbitals: 
    n    l      effective z      eigenvalue [eV]  inner max. [A]     outer max. [A]     outer radius [A]   
    2    1         1.800000       -11.0118           1.177451           1.177451           5.427479
    3    2         6.800000       -69.9029           0.704619           0.704619           3.854246
    3    0         5.800000       -50.8549           0.067388           1.191934           4.629968
    4    3        10.800000       -99.1854           0.786571           0.786571           3.761152
    3    1         5.800000       -50.8549           0.274880           1.094176           4.518138
    1    0         0.800000        -8.7059           0.662839           0.662839           5.361532
    5    4        16.000000      -139.3222           0.825990           0.825990           3.625711
    3    2         4.900000       -36.2967           0.968267           0.968267           4.862000
 
 
  O                    hydrogenic:
 
  List of hydrogenic basis orbitals: 
    n    l      effective z      eigenvalue [eV]  inner max. [A]     outer max. [A]     outer radius [A]   
    2    1         1.800000       -11.0118           1.178562           1.178562           5.432602
    3    2         7.600000       -87.3182           0.624125           0.624125           3.541477
    3    0         6.400000       -61.9209           0.061167           1.081902           4.306578
    4    3        11.600000      -114.4238           0.731631           0.731631           3.585037
    3    1         6.200000       -58.1113           0.255680           1.030270           4.306578
    3    2         5.600000       -47.4081           0.847233           0.847233           4.413171
    5    4        17.600000      -168.5799           0.749740           0.749740           3.372465
    1    0         0.750000        -7.6499           0.705284           0.705284           5.366593
 

  Adding cutoff potential to free-atom effective potential.
  Creating atomic-like basis functions for current effective potential.

  Species H                   :

  List of atomic basis orbitals and eigenvalues:
    n    l      energy [Ha]    energy [eV]    outer radius [A]
    1    0        -0.238382        -6.4867       5.373006


  Species C                   :

  List of atomic basis orbitals and eigenvalues:
    n    l      energy [Ha]    energy [eV]    outer radius [A]
    1    0       -10.041232      -273.2358       1.934409
    2    0        -0.504327       -13.7234       5.271162
    2    1        -0.193750        -5.2722       5.401630


  Species N                   :

  List of atomic basis orbitals and eigenvalues:
    n    l      energy [Ha]    energy [eV]    outer radius [A]
    1    0       -14.129007      -384.4699       1.637919
    2    0        -0.681802       -18.5528       5.168461
    2    1        -0.260543        -7.0897       5.361532


  Species O                   :

  List of atomic basis orbitals and eigenvalues:
    n    l      energy [Ha]    energy [eV]    outer radius [A]
    1    0       -18.898576      -514.2564       1.415765
    2    0        -0.878795       -23.9132       5.048385
    2    1        -0.332075        -9.0362       5.301386

  Assembling full basis from fixed parts.
  | Species H :   atomic orbital   1 s accepted.
  | Species H :    hydro orbital   2 s accepted.
  | Species H :    hydro orbital   1 s accepted.
  | Species H :    hydro orbital   2 s accepted.
  | Species H :    hydro orbital   2 p accepted.
  | Species H :    hydro orbital   2 p accepted.
  | Species H :    hydro orbital   3 d accepted.
  | Species C :   atomic orbital   1 s accepted.
  | Species C :    hydro orbital   2 s accepted.
  | Species C :   atomic orbital   2 s accepted.
  | Species C :    hydro orbital   3 s accepted.
  | Species C :    hydro orbital   3 p accepted.
  | Species C :   atomic orbital   2 p accepted.
  | Species C :    hydro orbital   2 p accepted.
  | Species C :    hydro orbital   3 d accepted.
  | Species C :    hydro orbital   3 d accepted.
  | Species C :    hydro orbital   4 f accepted.
  | Species C :    hydro orbital   5 g accepted.
  | Species N :   atomic orbital   1 s accepted.
  | Species N :    hydro orbital   3 s accepted.
  | Species N :   atomic orbital   2 s accepted.
  | Species N :    hydro orbital   1 s accepted.
  | Species N :    hydro orbital   3 p accepted.
  | Species N :   atomic orbital   2 p accepted.
  | Species N :    hydro orbital   2 p accepted.
  | Species N :    hydro orbital   3 d accepted.
  | Species N :    hydro orbital   3 d accepted.
  | Species N :    hydro orbital   4 f accepted.
  | Species N :    hydro orbital   5 g accepted.
  | Species O :   atomic orbital   1 s accepted.
  | Species O :    hydro orbital   3 s accepted.
  | Species O :   atomic orbital   2 s accepted.
  | Species O :    hydro orbital   1 s accepted.
  | Species O :    hydro orbital   3 p accepted.
  | Species O :   atomic orbital   2 p accepted.
  | Species O :    hydro orbital   2 p accepted.
  | Species O :    hydro orbital   3 d accepted.
  | Species O :    hydro orbital   3 d accepted.
  | Species O :    hydro orbital   4 f accepted.
  | Species O :    hydro orbital   5 g accepted.
 
  Basis size parameters after reduction:
  | Total number of radial functions:       40
  | Total number of basis functions :      840
 
  Testing on-site integration grid accuracy.
  |  Species  Function  <phi|h_atom|phi> (log., in eV)  <phi|h_atom|phi> (rad., in eV)
           1        1                 -6.4869821809                 -6.4870742227
           1        2                 13.5044133542                 13.5041049177
           1        3                 32.7854418792                 32.7779770519
           1        4                 33.7995553101                 33.7152624900 ***
           1        5                 28.8558651799                 28.8558652046
           1        6                 59.6361831893                 59.6362535845
           1        7                 60.2733718049                 60.2733715484
           2        8               -273.2358277112               -273.2358261765
           2        9                -10.7624923123                -10.7625144012
           2       10                 17.4634079027                 17.4634252127
           2       11                 53.0363661832                 53.0366180446
           2       12                 15.0981351967                 15.0981317714
           2       13                  3.8522181899                  3.8522770949
           2       14                 12.1181835661                 12.1206868578
           2       15                 29.4320778347                 29.4320780959
           2       16                 54.8753777694                 54.8752901936
           2       17                 59.3533975461                 59.3533974833
           2       18                 93.4537491195                 93.4537492066
           3       19               -384.4698526889               -384.4698499465
           3       20                 12.5691022037                 12.5690910168
           3       21                -15.7489097511                -15.7489165588
           3       22                 27.0978334940                 27.0985589490
           3       23                 18.5949116966                 18.5949125562
           3       24                  1.2212828291                  1.2212855301
           3       25                 13.4428926797                 13.4434051125
           3       26                 35.9380614500                 35.9380613666
           3       27                 39.9231532098                 39.9231654735
           3       28                 72.9957335806                 72.9957336833
           3       29                116.4231321147                116.4231321431
           4       30               -514.2564144315               -514.2564099626
           4       31                 15.1726678541                 15.1726530877
           4       32                -21.5447785304                -21.5447874973
           4       33                 14.4944558459                 14.4944698284
           4       34                 20.8882174564                 20.8882178906
           4       35                 -2.4850315908                 -2.4850322289
           4       36                 13.8600193195                 13.8599826966
           4       37                 45.8243383616                 45.8243383675
           4       38                 52.1840606465                 52.1840622440
           4       39                 85.4074185510                 85.4074185819
           4       40                142.0983717302                142.0983717339
 * Note: Onsite integrals marked "***" above are less accurate than
 * onsite_accuracy_threshold =    0.03000 eV. Usually, this is harmless.
 * When in doubt, tighten the "radial" and/or "radial_multiplier" flags to check.

  Preparing densities etc. for the partition functions (integrals / Hartree potential).

  Preparations completed.
  max(cpu_time)          :      0.236 s.
  Wall clock time (cpu1) :      0.236 s.
------------------------------------------------------------

------------------------------------------------------------
          Begin self-consistency loop: Initialization.

          Date     :  20170309, Time     :  183611.597
------------------------------------------------------------

  Initializing index lists of integration centers etc. from given atomic structure:
  | Number of centers in hartree potential         :        32
  | Number of centers in hartree multipole         :        32
  | Number of centers in electron density summation:        32
  | Number of centers in basis integrals           :        32
  | Number of centers in integrals                 :        32
  | Number of centers in hamiltonian               :        32
  Using modified Scalapack Eigenvalue solver (ELPA)
  * Using 32 tasks for Scalapack Eigenvalue solver.
  Detailed listing of tasks and assigned k-points:
  (for non-periodic systems, the "k-point" denotes an internal label only)
   Task     0 k-point     1 on eos399
   Task     1 k-point     1 on eos399
   Task     2 k-point     1 on eos399
   Task     3 k-point     1 on eos399
   Task     4 k-point     1 on eos399
   Task     5 k-point     1 on eos399
   Task     6 k-point     1 on eos399
   Task     7 k-point     1 on eos399
   Task     8 k-point     1 on eos399
   Task     9 k-point     1 on eos399
   Task    10 k-point     1 on eos399
   Task    11 k-point     1 on eos399
   Task    12 k-point     1 on eos399
   Task    13 k-point     1 on eos399
   Task    14 k-point     1 on eos399
   Task    15 k-point     1 on eos399
   Task    16 k-point     1 on eos399
   Task    17 k-point     1 on eos399
   Task    18 k-point     1 on eos399
   Task    19 k-point     1 on eos399
   Task    20 k-point     1 on eos399
   Task    21 k-point     1 on eos399
   Task    22 k-point     1 on eos399
   Task    23 k-point     1 on eos399
   Task    24 k-point     1 on eos399
   Task    25 k-point     1 on eos399
   Task    26 k-point     1 on eos399
   Task    27 k-point     1 on eos399
   Task    28 k-point     1 on eos399
   Task    29 k-point     1 on eos399
   Task    30 k-point     1 on eos399
   Task    31 k-point     1 on eos399
  Tasks:    32 split into      8 X      4 BLACS grid
  Calculating blocksize based on n_basis =          840 max_nprow =            8 max_npcol =            4
  Scalapack blocksize set to:           16
  Required Scalapack workspace - INTEGER:            1 REAL:             1
  Partitioning the integration grid into batches with parallel hashing+maxmin method.
  | Number of batches:     4876
  | Maximal batch size:     190
  | Minimal batch size:      43
  | Average batch size:     108.230
  | Standard deviation of batch sizes:      35.103

  Integration load balanced across    32 MPI tasks.
  Work distribution over tasks is as follows:
  Task     0 has      16452 integration points.
  Task     1 has      16569 integration points.
  Task     2 has      16538 integration points.
  Task     3 has      16436 integration points.
  Task     4 has      16515 integration points.
  Task     5 has      16565 integration points.
  Task     6 has      16574 integration points.
  Task     7 has      16571 integration points.
  Task     8 has      16421 integration points.
  Task     9 has      16564 integration points.
  Task    10 has      16460 integration points.
  Task    11 has      16406 integration points.
  Task    12 has      16577 integration points.
  Task    13 has      16495 integration points.
  Task    14 has      16532 integration points.
  Task    15 has      16557 integration points.
  Task    16 has      16497 integration points.
  Task    17 has      16445 integration points.
  Task    18 has      16516 integration points.
  Task    19 has      16480 integration points.
  Task    20 has      16404 integration points.
  Task    21 has      16467 integration points.
  Task    22 has      16459 integration points.
  Task    23 has      16464 integration points.
  Task    24 has      16573 integration points.
  Task    25 has      16532 integration points.
  Task    26 has      16410 integration points.
  Task    27 has      16491 integration points.
  Task    28 has      16403 integration points.
  Task    29 has      16485 integration points.
  Task    30 has      16408 integration points.
  Task    31 has      16462 integration points.
  Initializing partition tables, free-atom densities, potentials, etc. across the integration grid (initialize_grid_storage).
  | initialize_grid_storage: Actual outermost partition radius vs. multipole_radius_free
  | (-- VB: in principle, multipole_radius_free should be larger, hence this output)
  | Species        1: Confinement radius =              6.000000000000000 AA, multipole_radius_free =              6.071692442739658 AA.
  | Species        1: outer_partition_radius set to              6.071692442739658 AA .
  | Species        2: Confinement radius =              6.000000000000000 AA, multipole_radius_free =              6.029870734432609 AA.
  | Species        2: outer_partition_radius set to              6.029870734432609 AA .
  | Species        3: Confinement radius =              6.000000000000000 AA, multipole_radius_free =              6.058726835495003 AA.
  | Species        3: outer_partition_radius set to              6.058726835495003 AA .
  | Species        4: Confinement radius =              6.000000000000000 AA, multipole_radius_free =              6.064445521808699 AA.
  | Species        4: outer_partition_radius set to              6.064445521808699 AA .
  | Original list of interatomic distances with          32 x         32 entries is created.
  | Net number of integration points:   527728
  | of which are non-zero points    :   413322
  Obtaining max. number of non-zero basis functions in each batch (get_n_compute_maxes).
  | Maximal number of non-zero basis functions:      790 in task     0
  | Maximal number of non-zero basis functions:      815 in task     1
  | Maximal number of non-zero basis functions:      801 in task     2
  | Maximal number of non-zero basis functions:      810 in task     3
  | Maximal number of non-zero basis functions:      810 in task     4
  | Maximal number of non-zero basis functions:      807 in task     5
  | Maximal number of non-zero basis functions:      806 in task     6
  | Maximal number of non-zero basis functions:      790 in task     7
  | Maximal number of non-zero basis functions:      796 in task     8
  | Maximal number of non-zero basis functions:      768 in task     9
  | Maximal number of non-zero basis functions:      819 in task    10
  | Maximal number of non-zero basis functions:      804 in task    11
  | Maximal number of non-zero basis functions:      798 in task    12
  | Maximal number of non-zero basis functions:      812 in task    13
  | Maximal number of non-zero basis functions:      790 in task    14
  | Maximal number of non-zero basis functions:      802 in task    15
  | Maximal number of non-zero basis functions:      801 in task    16
  | Maximal number of non-zero basis functions:      807 in task    17
  | Maximal number of non-zero basis functions:      794 in task    18
  | Maximal number of non-zero basis functions:      813 in task    19
  | Maximal number of non-zero basis functions:      804 in task    20
  | Maximal number of non-zero basis functions:      795 in task    21
  | Maximal number of non-zero basis functions:      798 in task    22
  | Maximal number of non-zero basis functions:      817 in task    23
  | Maximal number of non-zero basis functions:      807 in task    24
  | Maximal number of non-zero basis functions:      808 in task    25
  | Maximal number of non-zero basis functions:      807 in task    26
  | Maximal number of non-zero basis functions:      810 in task    27
  | Maximal number of non-zero basis functions:      806 in task    28
  | Maximal number of non-zero basis functions:      810 in task    29
  | Maximal number of non-zero basis functions:      813 in task    30
  | Maximal number of non-zero basis functions:      798 in task    31
  Selecting the method for density update.
  Loop over occupied states selected for charge density update.
  Integrating Hamiltonian matrix: batch-based integration.
  Time summed over all CPUs for integration: real work       23.105 s, elapsed       24.336 s
  Integrating overlap matrix.
  Time summed over all CPUs for integration: real work       14.118 s, elapsed       14.881 s
  Deallocating overlap matrix.

  Updating Kohn-Sham eigenvalues, eigenvectors, occupation numbers, and Fermi level.
  Solving generalized eigenproblem
  Solving real symmetric generalised eigenvalue problem by standard ScaLAPACK.
  Transforming overlap matrix with ScaLAPACK and checking for singularities.
  : Overlap matrix is nonsingular, using Cholesky decomposition
  | Lowest eigenvalue:  0.835853E-04
  Factoring overlap matrix with Cholesky decomposition
  Using Cholesky factor for transformation
  Using 1-stage real ELPA solver
  Determining occupation numbers for Kohn-Sham eigenstates.
  | Chemical potential (Fermi level) in eV                 : -.96807774E+01
  | Error in electron count due to remaining E_F inaccuracy: 0.00000000E+00
  | Maximum occupation number of highest empty state:  0.00E+00

  Writing Kohn-Sham eigenvalues.

  State    Occupation    Eigenvalue [Ha]    Eigenvalue [eV]
      1       2.00000         -18.974831         -516.33142
      2       2.00000         -18.974592         -516.32491
      3       2.00000         -18.974427         -516.32043
      4       2.00000         -14.255029         -387.89908
      5       2.00000         -14.254562         -387.88637
      6       2.00000         -14.254135         -387.87475
      7       2.00000         -10.170753         -276.76028
      8       2.00000         -10.170612         -276.75644
      9       2.00000         -10.170201         -276.74526
     10       2.00000         -10.166485         -276.64413
     11       2.00000         -10.149564         -276.18370
     12       2.00000         -10.148035         -276.14207
     13       2.00000         -10.136278         -275.82215
     14       2.00000         -10.134828         -275.78271
     15       2.00000         -10.133916         -275.75787
     16       2.00000          -1.135853          -30.90813
     17       2.00000          -1.132768          -30.82418
     18       2.00000          -1.130483          -30.76202
     19       2.00000          -1.019085          -27.73073
     20       2.00000          -1.011941          -27.53632
     21       2.00000          -1.007852          -27.42504
     22       2.00000          -0.887165          -24.14098
     23       2.00000          -0.876051          -23.83857
     24       2.00000          -0.841112          -22.88783
     25       2.00000          -0.815974          -22.20379
     26       2.00000          -0.775439          -21.10077
     27       2.00000          -0.760933          -20.70603
     28       2.00000          -0.705291          -19.19194
     29       2.00000          -0.695077          -18.91401
     30       2.00000          -0.679154          -18.48071
     31       2.00000          -0.630904          -17.16777
     32       2.00000          -0.625925          -17.03228
     33       2.00000          -0.606856          -16.51339
     34       2.00000          -0.603866          -16.43203
     35       2.00000          -0.594401          -16.17448
     36       2.00000          -0.575802          -15.66838
     37       2.00000          -0.571351          -15.54726
     38       2.00000          -0.565367          -15.38442
     39       2.00000          -0.558009          -15.18421
     40       2.00000          -0.552092          -15.02319
     41       2.00000          -0.546592          -14.87354
     42       2.00000          -0.543410          -14.78693
     43       2.00000          -0.540166          -14.69865
     44       2.00000          -0.530220          -14.42803
     45       2.00000          -0.520745          -14.17018
     46       2.00000          -0.514418          -13.99802
     47       2.00000          -0.509822          -13.87297
     48       2.00000          -0.503572          -13.70289
     49       2.00000          -0.493874          -13.43899
     50       2.00000          -0.489157          -13.31064
     51       2.00000          -0.484508          -13.18412
     52       2.00000          -0.469888          -12.78631
     53       2.00000          -0.411646          -11.20145
     54       2.00000          -0.405062          -11.02229
     55       2.00000          -0.403121          -10.96949
     56       2.00000          -0.387564          -10.54615
     57       2.00000          -0.382199          -10.40016
     58       2.00000          -0.378644          -10.30343
     59       0.00000          -0.167371           -4.55439
     60       0.00000          -0.157760           -4.29288
     61       0.00000          -0.156420           -4.25642
     62       0.00000          -0.088574           -2.41023
     63       0.00000          -0.064117           -1.74472
     64       0.00000          -0.057631           -1.56822
     65       0.00000          -0.056644           -1.54137
     66       0.00000          -0.047878           -1.30283
     67       0.00000          -0.037578           -1.02256
     68       0.00000          -0.033928           -0.92323
     69       0.00000          -0.028955           -0.78791
     70       0.00000          -0.024399           -0.66394
     71       0.00000          -0.020723           -0.56391
     72       0.00000          -0.018176           -0.49458
     73       0.00000          -0.015364           -0.41807
     74       0.00000          -0.008932           -0.24304
     75       0.00000          -0.004861           -0.13227
     76       0.00000           0.002289            0.06228
     77       0.00000           0.006138            0.16701
     78       0.00000           0.008275            0.22516
     79       0.00000           0.017547            0.47747
     80       0.00000           0.021524            0.58570
     81       0.00000           0.023007            0.62605
     82       0.00000           0.028564            0.77726
     83       0.00000           0.033101            0.90072
     84       0.00000           0.036233            0.98595
     85       0.00000           0.043094            1.17265
     86       0.00000           0.049189            1.33851
     87       0.00000           0.052136            1.41868
     88       0.00000           0.059167            1.61002
     89       0.00000           0.064760            1.76221
     90       0.00000           0.070099            1.90748
     91       0.00000           0.074594            2.02981
     92       0.00000           0.086263            2.34735
     93       0.00000           0.089569            2.43729
     94       0.00000           0.093857            2.55399
     95       0.00000           0.098407            2.67779
     96       0.00000           0.101596            2.76456
     97       0.00000           0.111187            3.02555
     98       0.00000           0.117446            3.19586
     99       0.00000           0.125562            3.41671
    100       0.00000           0.126618            3.44545
    101       0.00000           0.127851            3.47901
    102       0.00000           0.136086            3.70308
    103       0.00000           0.140078            3.81172
    104       0.00000           0.143796            3.91287
    105       0.00000           0.147568            4.01552
    106       0.00000           0.151578            4.12465
    107       0.00000           0.153008            4.16356
    108       0.00000           0.158167            4.30394
    109       0.00000           0.165956            4.51589
    110       0.00000           0.168984            4.59828
    111       0.00000           0.172734            4.70033
    112       0.00000           0.180763            4.91881
    113       0.00000           0.183098            4.98234
    114       0.00000           0.192048            5.22589
    115       0.00000           0.197267            5.36792
    116       0.00000           0.204184            5.55614
    117       0.00000           0.209280            5.69479
    118       0.00000           0.213412            5.80725
    119       0.00000           0.217758            5.92550
    120       0.00000           0.223488            6.08142
    121       0.00000           0.230438            6.27054
    122       0.00000           0.233812            6.36235
    123       0.00000           0.235477            6.40766
    124       0.00000           0.244220            6.64556
    125       0.00000           0.251132            6.83365
    126       0.00000           0.253806            6.90641
    127       0.00000           0.254586            6.92765
    128       0.00000           0.262865            7.15291
    129       0.00000           0.265105            7.21388

  Highest occupied state (VBM) at    -10.30343476 eV
  | Occupation number:      2.00000000

  Lowest unoccupied state (CBM) at    -4.55439405 eV
  | Occupation number:      0.00000000

  Overall HOMO-LUMO gap:      5.74904070 eV.
  Calculating total energy contributions from superposition of free atom densities.

  Total energy components:
  | Sum of eigenvalues            :        -437.88321477 Ha      -11915.40852316 eV
  | XC energy correction          :         -98.82003796 Ha       -2689.03004913 eV
  | XC potential correction       :         127.02138011 Ha        3456.42761394 eV
  | Free-atom electrostatic energy:        -333.60050314 Ha       -9077.73156031 eV
  | Hartree energy correction     :           0.00000000 Ha           0.00000000 eV
  | MBD@rsSCS energy              :           0.00000000 Ha           0.00000000 eV
  | Entropy correction            :          -0.00000000 Ha          -0.00000000 eV
  | ---------------------------
  | Total energy                  :        -743.28237575 Ha      -20225.74251866 eV
  | Total energy, T -> 0          :        -743.28237575 Ha      -20225.74251866 eV  <-- do not rely on this value for anything but (periodic) metals
  | Electronic free energy        :        -743.28237575 Ha      -20225.74251866 eV

  Derived energy quantities:
  | Kinetic energy                :         735.16579988 Ha       20004.87925191 eV
  | Electrostatic energy          :       -1379.62813768 Ha      -37541.59172144 eV
  | Energy correction for multipole
  | error in Hartree potential    :           0.00000000 Ha           0.00000000 eV
  | Sum of eigenvalues per atom                           :        -372.35651635 eV
  | Total energy (T->0) per atom                          :        -632.05445371 eV  <-- do not rely on this value for anything but (periodic) metals
  | Electronic free energy per atom                       :        -632.05445371 eV
  Initialize hartree_potential_storage
  Max. number of atoms included in rho_multipole:           32

  End scf initialization - timings             :  max(cpu_time)    wall_clock(cpu1)
  | Time for scf. initialization               :        1.984 s           1.981 s
  | Boundary condition initialization          :        0.000 s           0.001 s
  | Integration                                :        1.248 s           1.248 s
  | Solution of K.-S. eqns.                    :        0.076 s           0.074 s
  | Grid partitioning                          :        0.280 s           0.274 s
  | Preloading free-atom quantities on grid    :        0.028 s           0.028 s
  | Free-atom superposition energy             :        0.044 s           0.041 s
  | Total energy evaluation                    :        0.000 s           0.001 s
------------------------------------------------------------

------------------------------------------------------------
          Begin self-consistency iteration #    1

  Date     :  20170309, Time     :  183613.579
------------------------------------------------------------
  Evaluating new KS density.
  Integration grid: deviation in total charge (<rho> - N_e) =   1.136868E-13
  Pulay mixing of updated and previous charge densities.

  Evaluating partitioned Hartree potential by multipole expansion.
  | Analytical far-field extrapolation by fixed multipoles:
  | Hartree multipole sum: apparent total charge =   0.344187E-04
  Summing up the Hartree potential.
  Time summed over all CPUs for potential: real work        9.653 s, elapsed        9.985 s
  | RMS charge density error from multipole expansion :   0.106741E-01

  Integrating Hamiltonian matrix: batch-based integration.
  Time summed over all CPUs for integration: real work       22.924 s, elapsed       24.116 s

  Updating Kohn-Sham eigenvalues, eigenvectors, occupation numbers, and Fermi level.
  Solving generalized eigenproblem
  Solving real symmetric generalised eigenvalue problem by standard ScaLAPACK.
  Using Cholesky factor for transformation
  Using 2-stage real ELPA solver
  K-Point:    1, Trafo times: 1-stage=     0.021 s, 2-stage=     0.020 s ==> Using 2-stage solver
  Determining occupation numbers for Kohn-Sham eigenstates.
  | Chemical potential (Fermi level) in eV                 : -.19763310E+01
  | Error in electron count due to remaining E_F inaccuracy: 0.00000000E+00
  | Maximum occupation number of highest empty state:  0.00E+00

  Writing Kohn-Sham eigenvalues.

  State    Occupation    Eigenvalue [Ha]    Eigenvalue [eV]
      1       2.00000         -18.621808         -506.72518
      2       2.00000         -18.607442         -506.33425
      3       2.00000         -18.597357         -506.05984
      4       2.00000         -14.000082         -380.96161
      5       2.00000         -13.996752         -380.87100
      6       2.00000         -13.974965         -380.27816
      7       2.00000         -10.058089         -273.69453
      8       2.00000         -10.052474         -273.54172
      9       2.00000         -10.041671         -273.24778
     10       2.00000          -9.965007         -271.16164
     11       2.00000          -9.956833         -270.93920
     12       2.00000          -9.912028         -269.72001
     13       2.00000          -9.855789         -268.18965
     14       2.00000          -9.848763         -267.99849
     15       2.00000          -9.837039         -267.67946
     16       2.00000          -0.968723          -26.36031
     17       2.00000          -0.958897          -26.09292
     18       2.00000          -0.944574          -25.70317
     19       2.00000          -0.869432          -23.65844
     20       2.00000          -0.868794          -23.64109
     21       2.00000          -0.852849          -23.20721
     22       2.00000          -0.740480          -20.14947
     23       2.00000          -0.725184          -19.73327
     24       2.00000          -0.692169          -18.83489
     25       2.00000          -0.687413          -18.70546
     26       2.00000          -0.632587          -17.21357
     27       2.00000          -0.623174          -16.95742
     28       2.00000          -0.574586          -15.63529
     29       2.00000          -0.568674          -15.47442
     30       2.00000          -0.554249          -15.08189
     31       2.00000          -0.498519          -13.56538
     32       2.00000          -0.487809          -13.27397
     33       2.00000          -0.470581          -12.80516
     34       2.00000          -0.462659          -12.58958
     35       2.00000          -0.454281          -12.36161
     36       2.00000          -0.450420          -12.25656
     37       2.00000          -0.441711          -12.01956
     38       2.00000          -0.428442          -11.65850
     39       2.00000          -0.419516          -11.41562
     40       2.00000          -0.404988          -11.02030
     41       2.00000          -0.404690          -11.01218
     42       2.00000          -0.397010          -10.80320
     43       2.00000          -0.383429          -10.43364
     44       2.00000          -0.376749          -10.25187
     45       2.00000          -0.372786          -10.14402
     46       2.00000          -0.372351          -10.13218
     47       2.00000          -0.359398           -9.77971
     48       2.00000          -0.353460           -9.61814
     49       2.00000          -0.350599           -9.54028
     50       2.00000          -0.349035           -9.49771
     51       2.00000          -0.332949           -9.05999
     52       2.00000          -0.322756           -8.78263
     53       2.00000          -0.243477           -6.62536
     54       2.00000          -0.238653           -6.49407
     55       2.00000          -0.224217           -6.10125
     56       2.00000          -0.212940           -5.79440
     57       2.00000          -0.206731           -5.62543
     58       2.00000          -0.196258           -5.34045
     59       0.00000          -0.056853           -1.54704
     60       0.00000          -0.052419           -1.42639
     61       0.00000          -0.043027           -1.17082
     62       0.00000          -0.035423           -0.96390
     63       0.00000          -0.028317           -0.77055
     64       0.00000          -0.018291           -0.49773
     65       0.00000          -0.011297           -0.30741
     66       0.00000          -0.004690           -0.12762
     67       0.00000           0.008322            0.22646
     68       0.00000           0.011531            0.31377
     69       0.00000           0.024020            0.65363
     70       0.00000           0.025341            0.68956
     71       0.00000           0.027521            0.74888
     72       0.00000           0.033528            0.91233
     73       0.00000           0.048196            1.31149
     74       0.00000           0.049744            1.35359
     75       0.00000           0.053560            1.45745
     76       0.00000           0.059076            1.60753
     77       0.00000           0.063869            1.73795
     78       0.00000           0.073835            2.00916
     79       0.00000           0.076327            2.07696
     80       0.00000           0.084159            2.29009
     81       0.00000           0.086801            2.36197
     82       0.00000           0.092216            2.50933
     83       0.00000           0.098071            2.66864
     84       0.00000           0.100250            2.72794
     85       0.00000           0.107168            2.91618
     86       0.00000           0.110907            3.01795
     87       0.00000           0.115593            3.14546
     88       0.00000           0.123750            3.36741
     89       0.00000           0.130431            3.54922
     90       0.00000           0.136801            3.72254
     91       0.00000           0.142568            3.87946
     92       0.00000           0.145921            3.97072
     93       0.00000           0.156668            4.26314
     94       0.00000           0.161135            4.38471
     95       0.00000           0.166081            4.51929
     96       0.00000           0.166960            4.54322
     97       0.00000           0.175414            4.77325
     98       0.00000           0.179418            4.88220
     99       0.00000           0.182181            4.95741
    100       0.00000           0.185401            5.04503
    101       0.00000           0.193290            5.25968
    102       0.00000           0.197821            5.38298
    103       0.00000           0.199430            5.42675
    104       0.00000           0.202154            5.50089
    105       0.00000           0.207341            5.64204
    106       0.00000           0.209947            5.71294
    107       0.00000           0.213798            5.81775
    108       0.00000           0.217605            5.92135
    109       0.00000           0.222592            6.05703
    110       0.00000           0.226932            6.17513
    111       0.00000           0.237821            6.47145
    112       0.00000           0.239673            6.52184
    113       0.00000           0.248487            6.76167
    114       0.00000           0.252382            6.86767
    115       0.00000           0.255619            6.95575
    116       0.00000           0.261050            7.10354
    117       0.00000           0.265937            7.23652
    118       0.00000           0.271668            7.39246
    119       0.00000           0.287050            7.81102
    120       0.00000           0.288762            7.85761
    121       0.00000           0.295836            8.05010
    122       0.00000           0.298323            8.11779
    123       0.00000           0.305691            8.31828
    124       0.00000           0.309406            8.41938
    125       0.00000           0.310685            8.45417
    126       0.00000           0.317644            8.64353
    127       0.00000           0.326757            8.89152
    128       0.00000           0.327414            8.90939
    129       0.00000           0.334847            9.11166

  Highest occupied state (VBM) at     -5.34045120 eV
  | Occupation number:      2.00000000

  Lowest unoccupied state (CBM) at    -1.54704065 eV
  | Occupation number:      0.00000000

  Overall HOMO-LUMO gap:      3.79341056 eV.

  Total energy components:
  | Sum of eigenvalues            :        -417.60860223 Ha      -11363.70824571 eV
  | XC energy correction          :        -100.75538706 Ha       -2741.69357767 eV
  | XC potential correction       :         129.53111731 Ha        3524.72103774 eV
  | Free-atom electrostatic energy:        -333.60050314 Ha       -9077.73156031 eV
  | Hartree energy correction     :         -20.27782172 Ha        -551.78760358 eV
  | MBD@rsSCS energy              :           0.00000000 Ha           0.00000000 eV
  | Entropy correction            :          -0.00000000 Ha          -0.00000000 eV
  | ---------------------------
  | Total energy                  :        -742.71119683 Ha      -20210.19994953 eV
  | Total energy, T -> 0          :        -742.71119683 Ha      -20210.19994953 eV  <-- do not rely on this value for anything but (periodic) metals
  | Electronic free energy        :        -742.71119683 Ha      -20210.19994953 eV

  Derived energy quantities:
  | Kinetic energy                :         744.05998403 Ha       20246.90231649 eV
  | Electrostatic energy          :       -1386.01579381 Ha      -37715.40868835 eV
  | Energy correction for multipole
  | error in Hartree potential    :          -0.04133786 Ha          -1.12486039 eV
  | Sum of eigenvalues per atom                           :        -355.11588268 eV
  | Total energy (T->0) per atom                          :        -631.56874842 eV  <-- do not rely on this value for anything but (periodic) metals
  | Electronic free energy per atom                       :        -631.56874842 eV

  Self-consistency convergence accuracy:
  | Change of charge density      :  0.9036E+00
  | Change of sum of eigenvalues  :  0.5517E+03 eV
  | Change of total energy        :  0.1554E+02 eV

  End self-consistency iteration #     1       :  max(cpu_time)    wall_clock(cpu1)
  | Time for this iteration                    :        1.636 s           1.634 s
[...]
   Multipole                     : -0.244205E+00  0.470823E+00 -0.332252E+00
   Pulay + GGA                   : -0.550375E+01  0.920291E+01 -0.770009E+01
   MBD@rsSCS                     : -0.125927E-02  0.178600E-01 -0.675315E-02
   ----------------------------------------------------------------
   Total forces(  20)            :  0.755664E-02  0.111136E-01 -0.170009E-02
  atom #   21
   Hellmann-Feynman              : -0.304937E-01  0.358305E-01  0.402021E-02
   Ionic forces                  :  0.000000E+00  0.000000E+00  0.000000E+00
   Multipole                     :  0.543798E-02  0.953456E-03 -0.214023E-01
   Pulay + GGA                   :  0.305236E-01 -0.473822E-01  0.174590E-01
   MBD@rsSCS                     : -0.322024E-02  0.348715E-02 -0.889544E-02
   ----------------------------------------------------------------
   Total forces(  21)            :  0.224759E-02 -0.711107E-02 -0.881854E-02
  atom #   22
   Hellmann-Feynman              :  0.557097E-01 -0.171501E-01  0.234066E-01
   Ionic forces                  :  0.000000E+00  0.000000E+00  0.000000E+00
   Multipole                     : -0.112112E-02 -0.366105E-02 -0.120576E-01
   Pulay + GGA                   : -0.639795E-01  0.227933E-01 -0.140080E-01
   MBD@rsSCS                     : -0.222123E-01  0.226565E-01 -0.246012E-02
   ----------------------------------------------------------------
   Total forces(  22)            : -0.316032E-01  0.246386E-01 -0.511904E-02
  atom #   23
   Hellmann-Feynman              :  0.903008E+00  0.143995E+00 -0.507720E+00
   Ionic forces                  :  0.000000E+00  0.000000E+00  0.000000E+00
   Multipole                     : -0.266246E+00  0.172751E-01  0.208669E+00
   Pulay + GGA                   : -0.627431E+00 -0.198519E+00  0.299213E+00
   MBD@rsSCS                     : -0.206210E-01  0.136604E-01  0.157826E-01
   ----------------------------------------------------------------
   Total forces(  23)            : -0.112897E-01 -0.235886E-01  0.159452E-01
  atom #   24
   Hellmann-Feynman              : -0.441411E-01  0.117878E-01  0.286494E-01
   Ionic forces                  :  0.000000E+00  0.000000E+00  0.000000E+00
   Multipole                     : -0.362447E-02  0.199293E-01 -0.246435E-01
   Pulay + GGA                   :  0.478039E-01 -0.380977E-01  0.282135E-04
   MBD@rsSCS                     : -0.759570E-02 -0.207579E-02  0.900806E-02
   ----------------------------------------------------------------
   Total forces(  24)            : -0.755738E-02 -0.845631E-02  0.130422E-01
  atom #   25
   Hellmann-Feynman              : -0.108824E-01 -0.250424E-01  0.518351E-01
   Ionic forces                  :  0.000000E+00  0.000000E+00  0.000000E+00
   Multipole                     :  0.404736E-02 -0.212719E-01 -0.270546E-01
   Pulay + GGA                   :  0.107661E-01  0.546559E-01 -0.228179E-01
   MBD@rsSCS                     : -0.102128E-01  0.172653E-01  0.120442E-01
   ----------------------------------------------------------------
   Total forces(  25)            : -0.628162E-02  0.256068E-01  0.140069E-01
  atom #   26
   Hellmann-Feynman              :  0.622694E-02 -0.111277E-01  0.410194E-01
   Ionic forces                  :  0.000000E+00  0.000000E+00  0.000000E+00
   Multipole                     :  0.233666E-01  0.777112E-02  0.112543E-01
   Pulay + GGA                   : -0.350169E-01 -0.347081E-02 -0.548390E-01
   MBD@rsSCS                     : -0.153541E-01 -0.215736E-02  0.453130E-02
   ----------------------------------------------------------------
   Total forces(  26)            : -0.207775E-01 -0.898477E-02  0.196595E-02
  atom #   27
   Hellmann-Feynman              :  0.119494E+01 -0.105122E+01  0.504493E+00
   Ionic forces                  :  0.000000E+00  0.000000E+00  0.000000E+00
   Multipole                     :  0.127154E+00 -0.483758E-01  0.123438E+00
   Pulay + GGA                   : -0.132545E+01  0.109794E+01 -0.636650E+00
   MBD@rsSCS                     :  0.143629E-01  0.145500E-01  0.701805E-02
   ----------------------------------------------------------------
   Total forces(  27)            :  0.110007E-01  0.128982E-01 -0.170145E-02
  atom #   28
   Hellmann-Feynman              : -0.121317E+01  0.114927E+01 -0.129596E+01
   Ionic forces                  :  0.000000E+00  0.000000E+00  0.000000E+00
   Multipole                     :  0.772759E-01 -0.953210E-01  0.562731E-01
   Pulay + GGA                   :  0.112959E+01 -0.105753E+01  0.123664E+01
   MBD@rsSCS                     :  0.146402E-01  0.862437E-02  0.784037E-02
   ----------------------------------------------------------------
   Total forces(  28)            :  0.832933E-02  0.504283E-02  0.479052E-02
  atom #   29
   Hellmann-Feynman              :  0.460965E-01  0.276913E-01  0.351734E-01
   Ionic forces                  :  0.000000E+00  0.000000E+00  0.000000E+00
   Multipole                     : -0.226592E-01  0.223417E-01 -0.259335E-01
   Pulay + GGA                   : -0.276965E-01 -0.616818E-01 -0.104206E-01
   MBD@rsSCS                     :  0.165040E-02  0.748815E-02 -0.105137E-02
   ----------------------------------------------------------------
   Total forces(  29)            : -0.260882E-02 -0.416058E-02 -0.223212E-02
  atom #   30
   Hellmann-Feynman              :  0.385311E-01 -0.903439E-02  0.353557E-01
   Ionic forces                  :  0.000000E+00  0.000000E+00  0.000000E+00
   Multipole                     : -0.194104E-02  0.423129E-01 -0.236638E-02
   Pulay + GGA                   : -0.417647E-01 -0.372496E-01 -0.351030E-01
   MBD@rsSCS                     :  0.481552E-02 -0.980760E-03  0.435085E-02
   ----------------------------------------------------------------
   Total forces(  30)            : -0.359156E-03 -0.495189E-02  0.223710E-02
  atom #   31
   Hellmann-Feynman              :  0.580650E-02 -0.466807E-01  0.330632E-01
   Ionic forces                  :  0.000000E+00  0.000000E+00  0.000000E+00
   Multipole                     : -0.241831E-01  0.996310E-03  0.181602E-01
   Pulay + GGA                   :  0.285657E-01  0.442927E-01 -0.412005E-01
   MBD@rsSCS                     :  0.142546E-01  0.349276E-02  0.989912E-02
   ----------------------------------------------------------------
   Total forces(  31)            :  0.244437E-01  0.210104E-02  0.199220E-01
  atom #   32
   Hellmann-Feynman              :  0.183534E-01 -0.614923E-01  0.788607E-03
   Ionic forces                  :  0.000000E+00  0.000000E+00  0.000000E+00
   Multipole                     :  0.182705E-01 -0.457850E-02 -0.229107E-01
   Pulay + GGA                   : -0.340716E-01  0.606104E-01  0.201812E-01
   MBD@rsSCS                     :  0.103526E-01  0.500035E-02  0.102756E-01
   ----------------------------------------------------------------
   Total forces(  32)            :  0.129049E-01 -0.459985E-03  0.833470E-02

  Removing unitary transformations (pure translations, rotations) from forces on atoms.
  Atomic forces before filtering:
  | Net force on center of mass :  -0.657835E-03  0.404510E-03 -0.596806E-03 eV/A
  | Net torque on center of mass:  -0.134263E-02 -0.167081E-02  0.185816E-02 eV
  Atomic forces after filtering:
  | Net force on center of mass :   0.139380E-16  0.522674E-17  0.418139E-17 eV/A
  | Net torque on center of mass:   0.270134E-16  0.265524E-16  0.236021E-16 eV

  Energy and forces in a compact form:
  | Total energy uncorrected      :         -0.202088190237510E+05 eV
  | Total energy corrected        :         -0.202088190237510E+05 eV  <-- do not rely on this value for anything but (periodic) metals
  | Electronic free energy        :         -0.202088190237510E+05 eV
  Total atomic forces (unitary forces cleaned) [eV/Ang]:
  |   1         -0.243713566981609E-02          0.179591978938006E-02         -0.120266506814378E-02
  |   2         -0.505192950378214E-02         -0.161197117307887E-01          0.165029506137835E-01
  |   3         -0.125864429137780E-01         -0.496201343340027E-02         -0.242068426279175E-02
  |   4          0.459358065843914E-02         -0.382334028993173E-03          0.560037117945553E-02
  |   5          0.520663306274443E-02         -0.278547290638090E-02          0.627368719634294E-02
  |   6         -0.639874288866935E-02         -0.195192156636535E-03          0.752907623167305E-02
  |   7          0.203925020144140E-02         -0.275662640687870E-01         -0.913557003408434E-03
  |   8          0.689672801909497E-02         -0.106309972689239E-01         -0.127517779697427E-01
  |   9         -0.294696195122958E-02          0.659204161364163E-02         -0.261373252201443E-01
  |  10         -0.168755332439753E-01          0.766718085841478E-02          0.598463310821897E-02
  |  11         -0.136102694529196E-01         -0.499195874689130E-02          0.685114125551178E-02
  |  12         -0.151550937069231E-02          0.276791669458517E-02         -0.436167716671036E-02
  |  13          0.105684516591951E-01         -0.517105592469297E-02          0.190719812806179E-02
  |  14          0.175565151555172E-01          0.146378938888632E-02         -0.152001637490663E-01
  |  15          0.151844691135113E-01          0.412581347305635E-02         -0.115635800503506E-01
  |  16          0.167130382738830E-01          0.105242949021315E-02          0.270765570562265E-02
  |  17         -0.625279022923253E-03          0.151712260967505E-01         -0.160414411160466E-01
  |  18         -0.366010619505011E-02          0.529627227525008E-02         -0.519983142376377E-02
  |  19          0.101337911464471E-02          0.324236962494825E-02         -0.183319399813523E-01
  |  20          0.755573080821087E-02          0.110922644816594E-01         -0.171155084317672E-02
  |  21          0.227370278929100E-02         -0.714781998283176E-02         -0.882730252214525E-02
  |  22         -0.315895951825012E-01          0.246310935114889E-01         -0.509949143289671E-02
  |  23         -0.112898713228294E-01         -0.236060378987295E-01          0.159395572063581E-01
  |  24         -0.756143120022270E-02         -0.848186740769026E-02          0.130223881816556E-01
  |  25         -0.627294069291990E-02          0.255855315075350E-01          0.140037775873018E-01
  |  26         -0.207904410342646E-01         -0.899172106103104E-02          0.196335545306266E-02
  |  27          0.109868248727118E-01          0.129009949613733E-01         -0.169184292456335E-02
  |  28          0.831378747457403E-02          0.505802656712948E-02          0.481527628924696E-02
  |  29         -0.263065995235441E-02         -0.415571036727016E-02         -0.222658512260623E-02
  |  30         -0.386393489593602E-03         -0.492656425169943E-02          0.226531653526890E-02
  |  31          0.244252199115929E-01          0.211592069863518E-02          0.199438334938399E-01
  |  32          0.129019319726698E-01         -0.444069798200732E-03          0.837119769150494E-02

  ------------------------------------ 
  Start decomposition of the XC Energy 
  ------------------------------------ 
  Hartree-Fock part   :          0.000000000 Ha              0.000000000 eV
  ------------------------------------ 
  X Energy            :        -96.983584671 Ha          -2639.057612681 eV
  C Energy GGA        :         -3.867667959 Ha           -105.244599938 eV
  Total XC Energy     :       -100.851252630 Ha          -2744.302212619 eV
  LDA X and C from self-consistent density 
  X Energy LDA        :        -87.998568677 Ha          -2394.562887708 eV
  C Energy LDA        :         -7.531538256 Ha           -204.943583359 eV
  ------------------------------------ 
  End decomposition of the XC Energy 
  ------------------------------------ 
   
  ESP charge fitting starts.
  | Calculation :  00000001  of  00000001
  | Full density
  Computing multipole expansion for total density.
  Generating points for esp charges.
  Partitioning the integration grid into batches with parallel hashing+maxmin method.
  | Number of batches:     3814
  | Maximal batch size:     199
  | Minimal batch size:      53
  | Average batch size:     127.418
  | Standard deviation of batch sizes:      20.051

  Integration load balanced across    32 MPI tasks.
  Work distribution over tasks is as follows:
  Initializing partition tables, free-atom densities, potentials, etc. across the integration grid (initialize_grid_storage).
  | Original list of interatomic distances with          32 x         32 entries is created.
  | Net number of integration points:   485972
  | of which are non-zero points    :   485972
  Summing up potential from multipole expanded  density.
  Summing up the Hartree potential.
  Time summed over all CPUs for potential: real work        6.428 s, elapsed        6.768 s
  Fitting esp charges to potential.
  |
  | ESP charges fitted to the electrostatic potential :
  |
  | Atom         1: C, ESP charge:      0.82689944
  |
  | Atom         2: C, ESP charge:     -0.59724546
  |
  | Atom         3: O, ESP charge:      0.50822822
  |
  | Atom         4: H, ESP charge:     -0.24170608
  |
  | Atom         5: H, ESP charge:     -0.24072808
  |
  | Atom         6: H, ESP charge:     -0.18861061
  |
  | Atom         7: N, ESP charge:      0.26205664
  |
  | Atom         8: C, ESP charge:     -0.13358902
  |
  | Atom         9: C, ESP charge:     -0.48375348
  |
  | Atom        10: O, ESP charge:      0.52326841
  |
  | Atom        11: H, ESP charge:     -0.17541518
  |
  | Atom        12: H, ESP charge:     -0.06346874
  |
  | Atom        13: C, ESP charge:      0.42886457
  |
  | Atom        14: H, ESP charge:     -0.08714895
  |
  | Atom        15: H, ESP charge:     -0.11921858
  |
  | Atom        16: H, ESP charge:     -0.14785938
  |
  | Atom        17: N, ESP charge:      0.57407471
  |
  | Atom        18: C, ESP charge:     -0.65782443
  |
  | Atom        19: C, ESP charge:     -0.08860723
  |
  | Atom        20: O, ESP charge:      0.44414631
  |
  | Atom        21: H, ESP charge:     -0.30798711
  |
  | Atom        22: H, ESP charge:     -0.12733888
  |
  | Atom        23: C, ESP charge:      0.52120301
  |
  | Atom        24: H, ESP charge:     -0.15718325
  |
  | Atom        25: H, ESP charge:     -0.09263906
  |
  | Atom        26: H, ESP charge:     -0.11967615
  |
  | Atom        27: N, ESP charge:      0.29152582
  |
  | Atom        28: C, ESP charge:      0.15661026
  |
  | Atom        29: H, ESP charge:     -0.30595434
  |
  | Atom        30: H, ESP charge:     -0.12967415
  |
  | Atom        31: H, ESP charge:     -0.03273968
  |
  | Atom        32: H, ESP charge:     -0.03850954

  RRMS:       0.00094500

  Done.

------------------------------------------------------------------------------
  Final output of selected total energy values:

  The following output summarizes some interesting total energy values
  at the end of a run (AFTER all relaxation, molecular dynamics, etc.).

  | Total energy of the DFT / Hartree-Fock s.c.f. calculation      :         -20208.819023751 eV
  | Final zero-broadening corrected energy (caution - metals only) :         -20208.819023751 eV
  | For reference only, the value of 1 Hartree used in FHI-aims is :             27.211384500 eV

  Before relying on these values, please be sure to understand exactly which
  total energy value is referred to by a given number. Different objects may
  all carry the same name 'total energy'. Definitions:

  Total energy of the DFT / Hartree-Fock s.c.f. calculation:
  | Note that this energy does not include ANY quantities calculated after the
  | s.c.f. cycle, in particular not ANY RPA, MP2, etc. many-body perturbation terms.

  Final zero-broadening corrected energy:
  | For metallic systems only, a broadening of the occupation numbers at the Fermi
  | level can be extrapolated back to zero broadening by an electron-gas inspired
  | formula. For all systems that are not real metals, this value can be
  | meaningless and should be avoided.

------------------------------------------------------------------------------
  Methods described in the following list of references were used in this FHI-aims run.
  If you publish the results, please make sure to cite these reference if they apply.
  FHI-aims is an academic code, and for our developers (often, Ph.D. students
  and postdocs), scientific credit in the community is essential.
  Thank you for helping us!

  For any use of FHI-aims, please cite:

    Volker Blum, Ralf Gehrke, Felix Hanke, Paula Havu, Ville Havu,
    Xinguo Ren, Karsten Reuter, and Matthias Scheffler
    'Ab initio molecular simulations with numeric atom-centered orbitals'
    Computer Physics Communications 180, 2175-2196 (2009)
    http://dx.doi.org/10.1016/j.cpc.2009.06.022


  The scalable eigensolver library ELPA was used in your run.
  ELPA is essential especially for large systems on hundreds or thousands of CPUs.
  For ELPA, please cite:

    Andreas Marek, Volker Blum, Rainer Johanni, Ville Havu, Bruno Lang,
    Thomas Auckenthaler, Alexander Heinecke, Hans-Joachim Bungartz, and Hermann Lederer,
    'The ELPA Library - Scalable Parallel Eigenvalue Solutions
    for Electronic Structure Theory and Computational Science'
    The Journal of Physics: Condensed Matter 26, 213201 (2014).
    http://dx.doi.org/10.1088/0953-8984/26/21/213201


  For ELPA's efficient two-stage tridiagonalization used in your run, please cite:

    T. Auckenthaler, V. Blum, H.-J. Bungartz, T. Huckle, R. Johanni, L. Kraemer,
    B. Lang, H. Lederer, and P. R. Willems,
    'Parallel solution of partial symmetric eigenvalue problems'
    'from  electronic structure calculations'
    Parallel Computing 37, 783-794 (2011).
    http://dx.doi.org/10.1016/j.parco.2011.05.002


  For the real-space grid partitioning and parallelization used in this calculation, please cite:

    Ville Havu, Volker Blum, Paula Havu, and Matthias Scheffler,
    'Efficient O(N) integration for all-electron electronic structure calculation'
    'using numerically tabulated basis functions'
    Journal of Computational Physics 228, 8367-8379 (2009).
    http://dx.doi.org/10.1016/j.jcp.2009.08.008

  Of course, there are many other important community references, e.g., those cited in the
  above references. Our list is limited to references that describe implementations in the
  FHI-aims code. The reason is purely practical (length of this list) - please credit others as well.

------------------------------------------------------------
          Leaving FHI-aims.
          Date     :  20170309, Time     :  183645.502

          Computational steps:
          | Number of self-consistency cycles          :           14

          Detailed time accounting                     :  max(cpu_time)    wall_clock(cpu1)
          | Total time                                 :       34.722 s          34.908 s
          | Preparation time                           :        0.236 s           0.236 s
          | Grid partitioning                          :        0.280 s           0.274 s
          | Preloading free-atom quantities on grid    :        0.028 s           0.028 s
          | Free-atom superposition energy             :        0.044 s           0.041 s
          | Total time for integrations                :       11.989 s          11.981 s
          | Total time for solution of K.-S. equations :        0.532 s           0.498 s
          | Total time for density & force components  :       10.233 s          10.209 s
          | Total time for mixing                      :        0.128 s           0.107 s
          | Total time for Hartree multipole update    :        0.064 s           0.058 s
          | Total time for Hartree multipole sum       :        6.328 s           6.306 s
          | Total time for total energy evaluation     :        0.024 s           0.026 s

          Have a nice day.
------------------------------------------------------------
