  MPI-parallelism will be employed.
------------------------------------------------------------
          Invoking FHI-aims ...
          Version 150427
          Git rev.: 9dd23e0 BL: Update Version stamp
          Compiled on 2015/11/03 at 22:05:20 on host eos03.

          When using FHI-aims, please cite the following reference:

          Volker Blum, Ralf Gehrke, Felix Hanke, Paula Havu,
          Ville Havu, Xinguo Ren, Karsten Reuter, and Matthias Scheffler,
          'Ab Initio Molecular Simulations with Numeric Atom-Centered Orbitals: FHI-aims',
          Computer Physics Communications 180, 2175-2196 (2009)

          For any questions about FHI-aims, please visit the aimsclub website
          with its forums and wiki. Contributions to both the forums and the
          wiki are warmly encouraged - they are for you, and everyone is welcome there.

------------------------------------------------------------

  Date     :  20170309, Time     :  190010.386
  Time zero on CPU 1             :   0.316019000000000E+00  s.
  Internal wall clock time zero  :           258318010.386  s.

  Using       32 parallel tasks.
  Task        0 on host eos399 reporting.
  Task        1 on host eos399 reporting.
  Task        2 on host eos399 reporting.
  Task        3 on host eos399 reporting.
  Task        4 on host eos399 reporting.
  Task        5 on host eos399 reporting.
  Task        6 on host eos399 reporting.
  Task        7 on host eos399 reporting.
  Task        8 on host eos399 reporting.
  Task        9 on host eos399 reporting.
  Task       10 on host eos399 reporting.
  Task       11 on host eos399 reporting.
  Task       12 on host eos399 reporting.
  Task       13 on host eos399 reporting.
  Task       14 on host eos399 reporting.
  Task       15 on host eos399 reporting.
  Task       16 on host eos399 reporting.
  Task       17 on host eos399 reporting.
  Task       18 on host eos399 reporting.
  Task       19 on host eos399 reporting.
  Task       20 on host eos399 reporting.
  Task       21 on host eos399 reporting.
  Task       22 on host eos399 reporting.
  Task       23 on host eos399 reporting.
  Task       24 on host eos399 reporting.
  Task       25 on host eos399 reporting.
  Task       26 on host eos399 reporting.
  Task       27 on host eos399 reporting.
  Task       28 on host eos399 reporting.
  Task       29 on host eos399 reporting.
  Task       30 on host eos399 reporting.
  Task       31 on host eos399 reporting.

  Performing system and environment tests:
  | Environment variable OMP_NUM_THREADS correctly set to 1.
  | Stacksize not measured: no C compiler
  | Checking for scalapack...
  | Testing pdtran()...
  | All pdtran() tests passed.

  Obtaining array dimensions for all initial allocations:
  
  -----------------------------------------------------------------------
  Parsing control.in (first pass over file, find array dimensions only).
  The contents of control.in will be repeated verbatim below
  unless switched off by setting 'verbatim_writeout .false.' .
  in the first line of control.in .
  -----------------------------------------------------------------------
  
  #########################################################################################
  #
  # Input for System
  #
  #########################################################################################
  #
  #
  #  Physical model
  #
    xc                 pbe
    many_body_dispersion
    spin               none
    charge             0.
  #
  #  SCF convergence
  #
    occupation_type    gaussian 0.05
    mixer              pulay
      n_max_pulay        10
      charge_mix_param   0.5
    sc_accuracy_rho    1E-4
    sc_accuracy_eev    1E-2
    sc_accuracy_etot   1E-5
    sc_accuracy_forces 1E-4
    sc_iter_limit      1000
  #
  #  ESP charge
  #
    output esp
    esp equal_grid_n 80 80 80
  #
  #
  ################################################################################
  #
  #  FHI-aims code project
  # Volker Blum, Fritz Haber Institute Berlin, 2009
  #
  #  Suggested "tight" defaults for H atom (to be pasted into control.in file)
  #
  ################################################################################
    species        H
  #     global species definitions
      nucleus             1
      mass                1.00794
  #
      l_hartree           6
  #
      cut_pot             4.0  2.0  1.0
      basis_dep_cutoff    1e-4
  #
      radial_base         24 7.0
      radial_multiplier   2
      angular_grids       specified
        division   0.1930   50
        division   0.3175  110
        division   0.4293  194
        division   0.5066  302
        division   0.5626  434
  #      division   0.5922  590
  #      division   0.6227  974
  #      division   0.6868 1202
  #      outer_grid  770
        outer_grid  434
  ################################################################################
  #
  #  Definition of "minimal" basis
  #
  ################################################################################
  #     valence basis states
      valence      1  s   1.
  #     ion occupancy
      ion_occ      1  s   0.5
  ################################################################################
  #
  #  Suggested additional basis functions. For production calculations,
  #  uncomment them one after another (the most important basis functions are
  #  listed first).
  #
  #  Basis constructed for dimers: 0.5 A, 0.7 A, 1.0 A, 1.5 A, 2.5 A
  #
  ################################################################################
  #  "First tier" - improvements: -1014.90 meV to -62.69 meV
       hydro 2 s 2.1
       hydro 2 p 3.5
  #  "Second tier" - improvements: -12.89 meV to -1.83 meV
       hydro 1 s 0.85
       hydro 2 p 3.7
       hydro 2 s 1.2
       hydro 3 d 7
  #  "Third tier" - improvements: -0.25 meV to -0.12 meV
  #     hydro 4 f 11.2
  #     hydro 3 p 4.8
  #     hydro 4 d 9
  #     hydro 3 s 3.2
  ################################################################################
  #
  # For methods that use the localized form of the "resolution of identity" for
  # the two-electron Coulomb operator (RI_method LVL), particularly Hartree-Fock and
  # hybrid density functional calculations, the highest accuracy can be obtained by
  # uncommenting the line beginning with "for_aux"  below, thus adding an extra g radial
  # function to the construction of the product basis set for the expansion.
  # See Ref. New J. Phys. 17, 093020 (2015) for more information, particularly Figs. 1 and 6.
  #
  ################################################################################
  #
  # for_aux hydro 5 g 6.0
  ################################################################################
  #
  #  FHI-aims code project
  # Volker Blum, Fritz Haber Institute Berlin, 2009
  #
  #  Suggested "tight" defaults for C atom (to be pasted into control.in file)
  #
  ################################################################################
    species        C
  #     global species definitions
      nucleus             6
      mass                12.0107
  #
      l_hartree           6
  #
      cut_pot             4.0  2.0  1.0
      basis_dep_cutoff    1e-4
  #
      radial_base         34 7.0
      radial_multiplier   2
      angular_grids specified
        division   0.2187   50
        division   0.4416  110
        division   0.6335  194
        division   0.7727  302
        division   0.8772  434
  #      division   0.9334  590
  #      division   0.9924  770
  #      division   1.0230  974
  #      division   1.5020 1202
  #     outer_grid  974
        outer_grid  434
  ################################################################################
  #
  #  Definition of "minimal" basis
  #
  ################################################################################
  #     valence basis states
      valence      2  s   2.
      valence      2  p   2.
  #     ion occupancy
      ion_occ      2  s   1.
      ion_occ      2  p   1.
  ################################################################################
  #
  #  Suggested additional basis functions. For production calculations,
  #  uncomment them one after another (the most important basis functions are
  #  listed first).
  #
  #  Constructed for dimers: 1.0 A, 1.25 A, 1.5 A, 2.0 A, 3.0 A
  #
  ################################################################################
  #  "First tier" - improvements: -1214.57 meV to -155.61 meV
       hydro 2 p 1.7
       hydro 3 d 6
       hydro 2 s 4.9
  #  "Second tier" - improvements: -67.75 meV to -5.23 meV
       hydro 4 f 9.8
       hydro 3 p 5.2
       hydro 3 s 4.3
       hydro 5 g 14.4
       hydro 3 d 6.2
  #  "Third tier" - improvements: -2.43 meV to -0.60 meV
  #     hydro 2 p 5.6
  #     hydro 2 s 1.4
  #     hydro 3 d 4.9
  #     hydro 4 f 11.2
  #  "Fourth tier" - improvements: -0.39 meV to -0.18 meV
  #     hydro 2 p 2.1
  #     hydro 5 g 16.4
  #     hydro 4 d 13.2
  #     hydro 3 s 13.6
  #     hydro 4 f 17.6
  #  Further basis functions - improvements: -0.08 meV and below
  #     hydro 3 s 2
  #     hydro 3 p 6
  #     hydro 4 d 20
  ################################################################################
  #
  # For methods that use the localized form of the "resolution of identity" for
  # the two-electron Coulomb operator (RI_method LVL), particularly Hartree-Fock and
  # hybrid density functional calculations, the highest accuracy can be obtained by
  # uncommenting the line beginning with "for_aux"  below, thus adding an extra g radial
  # function to the construction of the product basis set for the expansion.
  # See Ref. New J. Phys. 17, 093020 (2015) for more information, particularly Figs. 1 and 6.
  #
  ################################################################################
  #
  # for_aux hydro 5 g 6.0
  ################################################################################
  #
  #  FHI-aims code project
  # Volker Blum, Fritz Haber Institute Berlin, 2009
  #
  #  Suggested "tight" defaults for N atom (to be pasted into control.in file)
  #
  ################################################################################
    species        N
  #     global species definitions
      nucleus             7
      mass                14.0067
  #
      l_hartree           6
  #
      cut_pot             4.0  2.0  1.0
      basis_dep_cutoff    1e-4
  #
      radial_base         35 7.0
      radial_multiplier   2
      angular_grids       specified
        division   0.1841   50
        division   0.3514  110
        division   0.5126  194
        division   0.6292  302
        division   0.6939  434
  #      division   0.7396  590
  #      division   0.7632  770
  #      division   0.8122  974
  #      division   1.1604 1202
  #      outer_grid  974
        outer_grid  434
  ################################################################################
  #
  #  Definition of "minimal" basis
  #
  ################################################################################
  #     valence basis states
      valence      2  s   2.
      valence      2  p   3.
  #     ion occupancy
      ion_occ      2  s   1.
      ion_occ      2  p   2.
  ################################################################################
  #
  #  Suggested additional basis functions. For production calculations,
  #  uncomment them one after another (the most important basis functions are
  #  listed first).
  #
  #  Constructed for dimers: 1.0 A, 1.1 A, 1.5 A, 2.0 A, 3.0 A
  #
  ################################################################################
  #  "First tier" - improvements: -1193.42 meV to -220.60 meV
       hydro 2 p 1.8
       hydro 3 d 6.8
       hydro 3 s 5.8
  #  "Second tier" - improvements: -80.21 meV to -6.86 meV
       hydro 4 f 10.8
       hydro 3 p 5.8
       hydro 1 s 0.8
       hydro 5 g 16
       hydro 3 d 4.9
  #  "Third tier" - improvements: -4.29 meV to -0.53 meV
  #     hydro 3 s 16
  #     ionic 2 p auto
  #     hydro 3 d 6.6
  #     hydro 4 f 11.6
  #  "Fourth tier" - improvements: -0.75 meV to -0.25 meV
  #     hydro 2 p 4.5
  #     hydro 2 s 2.4
  #     hydro 5 g 14.4
  #     hydro 4 d 14.4
  #     hydro 4 f 16.8
  # Further basis functions - -0.21 meV and below
  #     hydro 3 p 14.8
  #     hydro 3 s 4.4
  #     hydro 3 d 19.6
  #     hydro 5 g 12.8
  ################################################################################
  #
  # For methods that use the localized form of the "resolution of identity" for
  # the two-electron Coulomb operator (RI_method LVL), particularly Hartree-Fock and
  # hybrid density functional calculations, the highest accuracy can be obtained by
  # uncommenting the line beginning with "for_aux"  below, thus adding an extra g radial
  # function to the construction of the product basis set for the expansion.
  # See Ref. New J. Phys. 17, 093020 (2015) for more information, particularly Figs. 1 and 6.
  #
  ################################################################################
  #
  # for_aux hydro 5 g 6.0
  ################################################################################
  #
  #  FHI-aims code project
  # Volker Blum, Fritz Haber Institute Berlin, 2009
  #
  #  Suggested "tight" defaults for O atom (to be pasted into control.in file)
  #
  ################################################################################
    species        O
  #     global species definitions
      nucleus             8
      mass                15.9994
  #
      l_hartree           6
  #
      cut_pot             4.0  2.0  1.0
      basis_dep_cutoff    1e-4
  #
      radial_base         36 7.0
      radial_multiplier   2
       angular_grids specified
        division   0.1817   50
        division   0.3417  110
        division   0.4949  194
        division   0.6251  302
        division   0.8014  434
  #      division   0.8507  590
  #      division   0.8762  770
  #      division   0.9023  974
  #      division   1.2339 1202
  #      outer_grid 974
        outer_grid  434
  ################################################################################
  #
  #  Definition of "minimal" basis
  #
  ################################################################################
  #     valence basis states
      valence      2  s   2.
      valence      2  p   4.
  #     ion occupancy
      ion_occ      2  s   1.
      ion_occ      2  p   3.
  ################################################################################
  #
  #  Suggested additional basis functions. For production calculations,
  #  uncomment them one after another (the most important basis functions are
  #  listed first).
  #
  #  Constructed for dimers: 1.0 A, 1.208 A, 1.5 A, 2.0 A, 3.0 A
  #
  ################################################################################
  #  "First tier" - improvements: -699.05 meV to -159.38 meV
       hydro 2 p 1.8
       hydro 3 d 7.6
       hydro 3 s 6.4
  #  "Second tier" - improvements: -49.91 meV to -5.39 meV
       hydro 4 f 11.6
       hydro 3 p 6.2
       hydro 3 d 5.6
       hydro 5 g 17.6
       hydro 1 s 0.75
  #  "Third tier" - improvements: -2.83 meV to -0.50 meV
  #     ionic 2 p auto
  #     hydro 4 f 10.8
  #     hydro 4 d 4.7
  #     hydro 2 s 6.8
  #  "Fourth tier" - improvements: -0.40 meV to -0.12 meV
  #     hydro 3 p 5
  #     hydro 3 s 3.3
  #     hydro 5 g 15.6
  #     hydro 4 f 17.6
  #     hydro 4 d 14
  # Further basis functions - -0.08 meV and below
  #     hydro 3 s 2.1
  #     hydro 4 d 11.6
  #     hydro 3 p 16
  #     hydro 2 s 17.2
  ################################################################################
  #
  # For methods that use the localized form of the "resolution of identity" for
  # the two-electron Coulomb operator (RI_method LVL), particularly Hartree-Fock and
  # hybrid density functional calculations, the highest accuracy can be obtained by
  # uncommenting the line beginning with "for_aux"  below, thus adding an extra g radial
  # function to the construction of the product basis set for the expansion.
  # See Ref. New J. Phys. 17, 093020 (2015) for more information, particularly Figs. 1 and 6.
  #
  ################################################################################
  #
  # for_aux hydro 5 g 6.0
  
  -----------------------------------------------------------------------
  Completed first pass over input file control.in .
  -----------------------------------------------------------------------
  
  
  -----------------------------------------------------------------------
  Parsing geometry.in (first pass over file, find array dimensions only).
  The contents of geometry.in will be repeated verbatim below
  unless switched off by setting 'verbatim_writeout .false.' .
  in the first line of geometry.in .
  -----------------------------------------------------------------------
  
  #
  # This is the geometry file that corresponds to the current relaxation step.
  # If you do not want this file to be written, set the "write_restart_geometry" flag to .false.
  #
  atom       0.61966455     -0.19837950      0.82760240 C
  atom       0.05441518      0.17699810      2.18329296 C
  atom       0.70688043      0.81363989      3.01103215 O
  atom      -0.00190671     -0.91009971      0.27067469 H
  atom       1.62007099     -0.62357142      0.96742924 H
  atom       0.72956481      0.71712469      0.23108953 H
  atom      -1.22651229     -0.23492320      2.42394674 N
  atom      -1.97506564      0.15942988      3.62144836 C
  atom      -2.09998664      1.71205280      3.64963045 C
  atom      -2.76485569      2.23189606      2.75480392 O
  atom      -1.75809606     -0.60587634      1.64656901 H
  atom      -3.01502995     -0.12245217      3.40397082 H
  atom      -1.54012839     -0.63141901      4.85891599 C
  atom      -2.08504552     -0.30094980      5.75220111 H
  atom      -0.46690869     -0.55716456      5.05611843 H
  atom      -1.77646246     -1.69125945      4.69663654 H
  atom      -1.59105893      2.48588625      4.66430482 N
  atom      -0.45358972      2.24295230      5.55781409 C
  atom      -0.84861347      1.91085884      7.00977829 C
  atom       0.00469207      1.56217026      7.82284640 O
  atom      -1.78370102      3.46868979      4.47130234 H
  atom       0.10970840      1.38723445      5.17201734 H
  atom       0.48600783      3.45189505      5.53628446 C
  atom       0.90548054      3.57977984      4.53107125 H
  atom       1.30465785      3.29032113      6.24608950 H
  atom      -0.04246868      4.37257182      5.82746732 H
  atom      -2.17137889      2.04741575      7.30462079 N
  atom      -2.71572773      1.76985207      8.61749173 C
  atom      -2.78489189      2.30298092      6.53777398 H
  atom      -3.40885025      0.91604095      8.59454349 H
  atom      -3.24629437      2.64380755      9.02024339 H
  atom      -1.87606669      1.52551575      9.27782650 H
  
  -----------------------------------------------------------------------
  Completed first pass over input file geometry.in .
  -----------------------------------------------------------------------
  

  Basic array size parameters:
  | Number of species                 :        4
  | Number of atoms                   :       32
  | Max. basis fn. angular momentum   :        4
  | Max. atomic/ionic basis occupied n:        2
  | Max. number of basis fn. types    :        2
  | Max. radial fns per species/type  :        8
  | Max. logarithmic grid size        :     1301
  | Max. radial integration grid size :       73
  | Max. angular integration grid size:      434
  | Max. angular grid division number :        8
  | Radial grid for Hartree potential :     1301
  | Number of spin channels           :        1

------------------------------------------------------------
          Reading file control.in.
------------------------------------------------------------
  XC: Using PBE gradient-corrected functionals.
  Self-consistent screening and van der Waals energy (TS, TS+SCS,MBD) module
  Spin treatment: No spin polarisation.
  Charge =   0.000000E+00: Neutral system requested explicitly.
  Occupation type: Gaussian broadening, width =   0.500000E-01 eV.
  Using pulay charge density mixing.
  Pulay mixing - number of memorized iterations:   10
  Charge density mixing - mixing parameter:     0.5000
  Convergence accuracy of self-consistent charge density:  0.1000E-03
  Convergence accuracy of sum of eigenvalues:  0.1000E-01
  Convergence accuracy of total energy:  0.1000E-04
  Convergence accuracy of forces:  0.1000E-03
  Maximum number of s.-c. iterations  :  1000
  Fitting ESP-charges to Potential. 
  | Esp charge output options: 
  | ESP Grid method: 3, cubic grid
  | Number of points in x, ,y, z:  0080 0080 0080
  |
 
  Reading configuration options for species H                   .
  | Found nuclear charge :   1.0000
  | Found atomic mass :    1.00794000000000      amu
  | Found l_max for Hartree potential  :   6
  | Found cutoff potl. onset [A], width [A], scale factor :    4.00000    2.00000    1.00000
  | Threshold for basis-dependent cutoff potential is   0.100000E-03
  | Found data for basic radial integration grid :    24 points, outermost radius =    7.000 A
  | Found multiplier for basic radial grid :   2
  | Found angular grid specification: user-specified.
  | Specified grid contains     6 separate shells.
  | Check grid settings after all constraints further below.
  | Found free-atom valence shell :  1 s   1.000
  | No ionic wave fns used. Skipping ion_occ.
  | Found hydrogenic basis function :  2 s   2.100
  | Found hydrogenic basis function :  2 p   3.500
  | Found hydrogenic basis function :  1 s   0.850
  | Found hydrogenic basis function :  2 p   3.700
  | Found hydrogenic basis function :  2 s   1.200
  | Found hydrogenic basis function :  3 d   7.000
  Species H                   : Missing cutoff potential type.
  Defaulting to exp(1/x)/(1-x)^2 type cutoff potential.
  Species H : No 'logarithmic' tag. Using default grid for free atom:
  | Default logarithmic grid data [bohr] : 0.1000E-03 0.1000E+03 0.1012E+01
  Species H : On-site basis accuracy parameter (for Gram-Schmidt orthonormalisation) not specified.
  Using default value basis_acc =  0.1000000E-03.
  Species H                   : Using default innermost maximum threshold i_radial=  2 for radial functions.
  Species H                   : Default cutoff onset for free atom density etc. : 0.40000000E+01 AA.
  Species H                   : Basic radial grid will be enhanced according to radial_multiplier =   2, to contain    49 grid points.
 
  Reading configuration options for species C                   .
  | Found nuclear charge :   6.0000
  | Found atomic mass :    12.0107000000000      amu
  | Found l_max for Hartree potential  :   6
  | Found cutoff potl. onset [A], width [A], scale factor :    4.00000    2.00000    1.00000
  | Threshold for basis-dependent cutoff potential is   0.100000E-03
  | Found data for basic radial integration grid :    34 points, outermost radius =    7.000 A
  | Found multiplier for basic radial grid :   2
  | Found angular grid specification: user-specified.
  | Specified grid contains     6 separate shells.
  | Check grid settings after all constraints further below.
  | Found free-atom valence shell :  2 s   2.000
  | Found free-atom valence shell :  2 p   2.000
  | No ionic wave fns used. Skipping ion_occ.
  | No ionic wave fns used. Skipping ion_occ.
  | Found hydrogenic basis function :  2 p   1.700
  | Found hydrogenic basis function :  3 d   6.000
  | Found hydrogenic basis function :  2 s   4.900
  | Found hydrogenic basis function :  4 f   9.800
  | Found hydrogenic basis function :  3 p   5.200
  | Found hydrogenic basis function :  3 s   4.300
  | Found hydrogenic basis function :  5 g  14.400
  | Found hydrogenic basis function :  3 d   6.200
  Species C                   : Missing cutoff potential type.
  Defaulting to exp(1/x)/(1-x)^2 type cutoff potential.
  Species C : No 'logarithmic' tag. Using default grid for free atom:
  | Default logarithmic grid data [bohr] : 0.1000E-03 0.1000E+03 0.1012E+01
  Species C : On-site basis accuracy parameter (for Gram-Schmidt orthonormalisation) not specified.
  Using default value basis_acc =  0.1000000E-03.
  Species C                   : Using default innermost maximum threshold i_radial=  2 for radial functions.
  Species C                   : Default cutoff onset for free atom density etc. : 0.40000000E+01 AA.
  Species C                   : Basic radial grid will be enhanced according to radial_multiplier =   2, to contain    69 grid points.
 
  Reading configuration options for species N                   .
  | Found nuclear charge :   7.0000
  | Found atomic mass :    14.0067000000000      amu
  | Found l_max for Hartree potential  :   6
  | Found cutoff potl. onset [A], width [A], scale factor :    4.00000    2.00000    1.00000
  | Threshold for basis-dependent cutoff potential is   0.100000E-03
  | Found data for basic radial integration grid :    35 points, outermost radius =    7.000 A
  | Found multiplier for basic radial grid :   2
  | Found angular grid specification: user-specified.
  | Specified grid contains     6 separate shells.
  | Check grid settings after all constraints further below.
  | Found free-atom valence shell :  2 s   2.000
  | Found free-atom valence shell :  2 p   3.000
  | No ionic wave fns used. Skipping ion_occ.
  | No ionic wave fns used. Skipping ion_occ.
  | Found hydrogenic basis function :  2 p   1.800
  | Found hydrogenic basis function :  3 d   6.800
  | Found hydrogenic basis function :  3 s   5.800
  | Found hydrogenic basis function :  4 f  10.800
  | Found hydrogenic basis function :  3 p   5.800
  | Found hydrogenic basis function :  1 s   0.800
  | Found hydrogenic basis function :  5 g  16.000
  | Found hydrogenic basis function :  3 d   4.900
  Species N                   : Missing cutoff potential type.
  Defaulting to exp(1/x)/(1-x)^2 type cutoff potential.
  Species N : No 'logarithmic' tag. Using default grid for free atom:
  | Default logarithmic grid data [bohr] : 0.1000E-03 0.1000E+03 0.1012E+01
  Species N : On-site basis accuracy parameter (for Gram-Schmidt orthonormalisation) not specified.
  Using default value basis_acc =  0.1000000E-03.
  Species N                   : Using default innermost maximum threshold i_radial=  2 for radial functions.
  Species N                   : Default cutoff onset for free atom density etc. : 0.40000000E+01 AA.
  Species N                   : Basic radial grid will be enhanced according to radial_multiplier =   2, to contain    71 grid points.
 
  Reading configuration options for species O                   .
  | Found nuclear charge :   8.0000
  | Found atomic mass :    15.9994000000000      amu
  | Found l_max for Hartree potential  :   6
  | Found cutoff potl. onset [A], width [A], scale factor :    4.00000    2.00000    1.00000
  | Threshold for basis-dependent cutoff potential is   0.100000E-03
  | Found data for basic radial integration grid :    36 points, outermost radius =    7.000 A
  | Found multiplier for basic radial grid :   2
  | Found angular grid specification: user-specified.
  | Specified grid contains     6 separate shells.
  | Check grid settings after all constraints further below.
  | Found free-atom valence shell :  2 s   2.000
  | Found free-atom valence shell :  2 p   4.000
  | No ionic wave fns used. Skipping ion_occ.
  | No ionic wave fns used. Skipping ion_occ.
  | Found hydrogenic basis function :  2 p   1.800
  | Found hydrogenic basis function :  3 d   7.600
  | Found hydrogenic basis function :  3 s   6.400
  | Found hydrogenic basis function :  4 f  11.600
  | Found hydrogenic basis function :  3 p   6.200
  | Found hydrogenic basis function :  3 d   5.600
  | Found hydrogenic basis function :  5 g  17.600
  | Found hydrogenic basis function :  1 s   0.750
  Species O                   : Missing cutoff potential type.
  Defaulting to exp(1/x)/(1-x)^2 type cutoff potential.
  Species O : No 'logarithmic' tag. Using default grid for free atom:
  | Default logarithmic grid data [bohr] : 0.1000E-03 0.1000E+03 0.1012E+01
  Species O : On-site basis accuracy parameter (for Gram-Schmidt orthonormalisation) not specified.
  Using default value basis_acc =  0.1000000E-03.
  Species O                   : Using default innermost maximum threshold i_radial=  2 for radial functions.
  Species O                   : Default cutoff onset for free atom density etc. : 0.40000000E+01 AA.
  Species O                   : Basic radial grid will be enhanced according to radial_multiplier =   2, to contain    73 grid points.
 
  Finished reading input file 'control.in'. Consistency checks are next.
 
  Target number of points in a grid batch is not set. Defaulting to  100
  Method for grid partitioning is not set. Defaulting to parallel hash+maxmin partitioning.
  Batch size limit is not set. Defaulting to    200
  By default, will store active basis functions for each batch.
  If in need of memory, prune_basis_once .false. can be used to disable this option.
  communication_type for Hartree potential was not specified.
  Defaulting to calc_hartree .
  Pulay mixer: Number of initial linear mixing iterations not set.
  Defaulting to    0 iterations.
  Work space size for distributed Hartree potential not set.
  Defaulting to   0.200000E+03 MB.
  Algorithm-dependent basis array size parameters:
  | n_max_pulay                         :       10
  Geometry relaxation not requested: no relaxation will be performed.
  Handling of forces: Unphysical translation and rotation will be removed from forces.
  No accuracy limit for integral partition fn. given. Defaulting to  0.1000E-14.
  No threshold value for u(r) in integrations given. Defaulting to  0.1000E-05.
  No accuracy for occupation numbers given. Defaulting to  0.1000E-07.
  No threshold value for occupation numbers given. Defaulting to  0.0000E+00.
  No accuracy for fermi level given. Defaulting to  0.1000E-19.
  Maximum # of iterations to find E_F not set. Defaulting to  200.
  Preferred method for the eigenvalue solver ('KS_method') not specified in 'control.in'.
  Calling blacs routine to test compilation state
  Since scalapack support is enabled, defaulting to 'elpa'.
  Preferred method for the MBD eigenvalue solver ('mbd_eigensolver') not specified in 'control.in'.
  Calling blacs routine to test compilation state
  Since scalapack support is enabled, defaulting to 'scaLAPACK'.
  Will not use alltoall communication since running on < 1024 CPUs.
  Threshold for basis singularities not set.
  Default threshold for basis singularities:  0.1000E-04
  partition_type (choice of integration weights) for integrals was not specified.
  | Using a version of the partition function of Stratmann and coworkers ('stratmann_smoother').
  | At each grid point, the set of atoms used to build the partition table is smoothly restricted to
  | only those atoms whose free-atom density would be non-zero at that grid point.
  Partitioning for Hartree potential was not defined. Using partition_type for integrals.
  | Adjusted default value of keyword multip_moments_threshold to:       0.10000000E-11
  | This value may affect high angular momentum components of the Hartree potential in periodic systems.
  No q(lm)/r^(l+1) cutoff set for long-range Hartree potential.
  | Using default value of  0.100000E-09 .
  | Verify using the multipole_threshold keyword.
  Defaulting to new monopole extrapolation.
  Density update method: automatic selection selected.
------------------------------------------------------------


------------------------------------------------------------
          Reading geometry description geometry.in.
------------------------------------------------------------
 * Warning! You did not set the 'relativistic' flag in input file 'control.in'.
 * Since you are not attempting to treat any elements beyond Ca(Z=20), FHI-aims
 * will default to 'relativistic none'.
 * You must ensure that this is really what you want!!
 * For example, DO NOT compute total-energy differences between results from
 * different settings of the 'relativistic' flag.
  Input structure read successfully.
  The structure contains       32 atoms,  and a total of        116.000 electrons.

  Input geometry:
  | No unit cell requested.
  | Atomic structure:
  |       Atom                x [A]            y [A]            z [A]
  |    1: Species C              0.619665        -0.198379         0.827602
  |    2: Species C              0.054415         0.176998         2.183293
  |    3: Species O              0.706880         0.813640         3.011032
  |    4: Species H             -0.001907        -0.910100         0.270675
  |    5: Species H              1.620071        -0.623571         0.967429
  |    6: Species H              0.729565         0.717125         0.231090
  |    7: Species N             -1.226512        -0.234923         2.423947
  |    8: Species C             -1.975066         0.159430         3.621448
  |    9: Species C             -2.099987         1.712053         3.649630
  |   10: Species O             -2.764856         2.231896         2.754804
  |   11: Species H             -1.758096        -0.605876         1.646569
  |   12: Species H             -3.015030        -0.122452         3.403971
  |   13: Species C             -1.540128        -0.631419         4.858916
  |   14: Species H             -2.085046        -0.300950         5.752201
  |   15: Species H             -0.466909        -0.557165         5.056118
  |   16: Species H             -1.776462        -1.691259         4.696637
  |   17: Species N             -1.591059         2.485886         4.664305
  |   18: Species C             -0.453590         2.242952         5.557814
  |   19: Species C             -0.848613         1.910859         7.009778
  |   20: Species O              0.004692         1.562170         7.822846
  |   21: Species H             -1.783701         3.468690         4.471302
  |   22: Species H              0.109708         1.387234         5.172017
  |   23: Species C              0.486008         3.451895         5.536284
  |   24: Species H              0.905481         3.579780         4.531071
  |   25: Species H              1.304658         3.290321         6.246090
  |   26: Species H             -0.042469         4.372572         5.827467
  |   27: Species N             -2.171379         2.047416         7.304621
  |   28: Species C             -2.715728         1.769852         8.617492
  |   29: Species H             -2.784892         2.302981         6.537774
  |   30: Species H             -3.408850         0.916041         8.594543
  |   31: Species H             -3.246294         2.643808         9.020243
  |   32: Species H             -1.876067         1.525516         9.277826
  |

  | The smallest distance between any two atoms is         1.01217769 AA.
  |
  | The first atom of this pair is atom number                      7 .
  | The second atom of this pair is atom number                    11 .

  Number of empty states per atom not set in control.in - providing a guess from actual geometry.
  | Total number of empty states used during s.c.f. cycle:       71
  If you use a very high smearing, use empty_states (per atom!) in control.in to increase this value.

  Structure-dependent array size parameters: 
  | Maximum number of distinct radial functions  :       40
  | Maximum number of basis functions            :      840
  | Number of Kohn-Sham states (occupied + empty):      129
------------------------------------------------------------

------------------------------------------------------------
          Preparing all fixed parts of the calculation.
------------------------------------------------------------
  Determining machine precision:
    2.225073858507201E-308
  Setting up grids for atomic and cluster calculations.

  Creating wave function, potential, and density for free atoms.

  Species: H

  List of occupied orbitals and eigenvalues:
    n    l              occ      energy [Ha]    energy [eV]
    1    0           1.0000        -0.238382        -6.4867


  Species: C

  List of occupied orbitals and eigenvalues:
    n    l              occ      energy [Ha]    energy [eV]
    1    0           2.0000       -10.041232      -273.2358
    2    0           2.0000        -0.504327       -13.7234
    2    1           2.0000        -0.193750        -5.2722


  Species: N

  List of occupied orbitals and eigenvalues:
    n    l              occ      energy [Ha]    energy [eV]
    1    0           2.0000       -14.129007      -384.4699
    2    0           2.0000        -0.681802       -18.5528
    2    1           3.0000        -0.260543        -7.0897


  Species: O

  List of occupied orbitals and eigenvalues:
    n    l              occ      energy [Ha]    energy [eV]
    1    0           2.0000       -18.898576      -514.2564
    2    0           2.0000        -0.878795       -23.9132
    2    1           4.0000        -0.332075        -9.0362

  Creating fixed part of basis set: Ionic, confined, hydrogenic.
 
  H                    hydrogenic:
 
  List of hydrogenic basis orbitals: 
    n    l      effective z      eigenvalue [eV]  inner max. [A]     outer max. [A]     outer radius [A]   
    2    0         2.100000       -14.9965           0.193243           1.317208           5.373006
    2    1         3.500000       -41.6672           0.602369           0.602369           4.056063
    1    0         0.850000        -9.8292           0.624871           0.624871           5.373006
    2    1         3.700000       -46.5653           0.573622           0.573622           3.910002
    2    0         1.200000        -4.5995           0.334980           2.228188           5.505995
    3    2         7.000000       -74.0753           0.680699           0.680699           3.769201
 
 
  C                    hydrogenic:
 
  List of hydrogenic basis orbitals: 
    n    l      effective z      eigenvalue [eV]  inner max. [A]     outer max. [A]     outer radius [A]   
    2    1         1.700000        -9.8152           1.245706           1.245706           5.401630
    3    2         6.000000       -54.4226           0.792453           0.792453           4.178599
    2    0         4.900000       -81.6681           0.082559           0.562749           3.353238
    4    3         9.800000       -81.6681           0.863254           0.863254           4.028125
    3    1         5.200000       -40.8774           0.305389           1.215618           4.898362
    3    0         4.300000       -27.9508           0.091041           1.610311           5.401630
    5    4        14.400000      -112.8510           0.917666           0.917666           3.883070
    3    2         6.200000       -58.1113           0.763917           0.763917           4.077671
 
 
  N                    hydrogenic:
 
  List of hydrogenic basis orbitals: 
    n    l      effective z      eigenvalue [eV]  inner max. [A]     outer max. [A]     outer radius [A]   
    2    1         1.800000       -11.0118           1.177451           1.177451           5.427479
    3    2         6.800000       -69.9029           0.704619           0.704619           3.854246
    3    0         5.800000       -50.8549           0.067388           1.191934           4.629968
    4    3        10.800000       -99.1854           0.786571           0.786571           3.761152
    3    1         5.800000       -50.8549           0.274880           1.094176           4.518138
    1    0         0.800000        -8.7059           0.662839           0.662839           5.361532
    5    4        16.000000      -139.3222           0.825990           0.825990           3.625711
    3    2         4.900000       -36.2967           0.968267           0.968267           4.862000
 
 
  O                    hydrogenic:
 
  List of hydrogenic basis orbitals: 
    n    l      effective z      eigenvalue [eV]  inner max. [A]     outer max. [A]     outer radius [A]   
    2    1         1.800000       -11.0118           1.178562           1.178562           5.432602
    3    2         7.600000       -87.3182           0.624125           0.624125           3.541477
    3    0         6.400000       -61.9209           0.061167           1.081902           4.306578
    4    3        11.600000      -114.4238           0.731631           0.731631           3.585037
    3    1         6.200000       -58.1113           0.255680           1.030270           4.306578
    3    2         5.600000       -47.4081           0.847233           0.847233           4.413171
    5    4        17.600000      -168.5799           0.749740           0.749740           3.372465
    1    0         0.750000        -7.6499           0.705284           0.705284           5.366593
 

  Adding cutoff potential to free-atom effective potential.
  Creating atomic-like basis functions for current effective potential.

  Species H                   :

  List of atomic basis orbitals and eigenvalues:
    n    l      energy [Ha]    energy [eV]    outer radius [A]
    1    0        -0.238382        -6.4867       5.373006


  Species C                   :

  List of atomic basis orbitals and eigenvalues:
    n    l      energy [Ha]    energy [eV]    outer radius [A]
    1    0       -10.041232      -273.2358       1.934409
    2    0        -0.504327       -13.7234       5.271162
    2    1        -0.193750        -5.2722       5.401630


  Species N                   :

  List of atomic basis orbitals and eigenvalues:
    n    l      energy [Ha]    energy [eV]    outer radius [A]
    1    0       -14.129007      -384.4699       1.637919
    2    0        -0.681802       -18.5528       5.168461
    2    1        -0.260543        -7.0897       5.361532


  Species O                   :

  List of atomic basis orbitals and eigenvalues:
    n    l      energy [Ha]    energy [eV]    outer radius [A]
    1    0       -18.898576      -514.2564       1.415765
    2    0        -0.878795       -23.9132       5.048385
    2    1        -0.332075        -9.0362       5.301386

  Assembling full basis from fixed parts.
  | Species H :   atomic orbital   1 s accepted.
  | Species H :    hydro orbital   2 s accepted.
  | Species H :    hydro orbital   1 s accepted.
  | Species H :    hydro orbital   2 s accepted.
  | Species H :    hydro orbital   2 p accepted.
  | Species H :    hydro orbital   2 p accepted.
  | Species H :    hydro orbital   3 d accepted.
  | Species C :   atomic orbital   1 s accepted.
  | Species C :    hydro orbital   2 s accepted.
  | Species C :   atomic orbital   2 s accepted.
  | Species C :    hydro orbital   3 s accepted.
  | Species C :    hydro orbital   3 p accepted.
  | Species C :   atomic orbital   2 p accepted.
  | Species C :    hydro orbital   2 p accepted.
  | Species C :    hydro orbital   3 d accepted.
  | Species C :    hydro orbital   3 d accepted.
  | Species C :    hydro orbital   4 f accepted.
  | Species C :    hydro orbital   5 g accepted.
  | Species N :   atomic orbital   1 s accepted.
  | Species N :    hydro orbital   3 s accepted.
  | Species N :   atomic orbital   2 s accepted.
  | Species N :    hydro orbital   1 s accepted.
  | Species N :    hydro orbital   3 p accepted.
  | Species N :   atomic orbital   2 p accepted.
  | Species N :    hydro orbital   2 p accepted.
  | Species N :    hydro orbital   3 d accepted.
  | Species N :    hydro orbital   3 d accepted.
  | Species N :    hydro orbital   4 f accepted.
  | Species N :    hydro orbital   5 g accepted.
  | Species O :   atomic orbital   1 s accepted.
  | Species O :    hydro orbital   3 s accepted.
  | Species O :   atomic orbital   2 s accepted.
  | Species O :    hydro orbital   1 s accepted.
  | Species O :    hydro orbital   3 p accepted.
  | Species O :   atomic orbital   2 p accepted.
  | Species O :    hydro orbital   2 p accepted.
  | Species O :    hydro orbital   3 d accepted.
  | Species O :    hydro orbital   3 d accepted.
  | Species O :    hydro orbital   4 f accepted.
  | Species O :    hydro orbital   5 g accepted.
 
  Basis size parameters after reduction:
  | Total number of radial functions:       40
  | Total number of basis functions :      840
 
  Testing on-site integration grid accuracy.
  |  Species  Function  <phi|h_atom|phi> (log., in eV)  <phi|h_atom|phi> (rad., in eV)
           1        1                 -6.4869821809                 -6.4870742227
           1        2                 13.5044133542                 13.5041049177
           1        3                 32.7854418792                 32.7779770519
           1        4                 33.7995553101                 33.7152624900 ***
           1        5                 28.8558651799                 28.8558652046
           1        6                 59.6361831893                 59.6362535845
           1        7                 60.2733718049                 60.2733715484
           2        8               -273.2358277112               -273.2358261765
           2        9                -10.7624923123                -10.7625144012
           2       10                 17.4634079027                 17.4634252127
           2       11                 53.0363661832                 53.0366180446
           2       12                 15.0981351967                 15.0981317714
           2       13                  3.8522181899                  3.8522770949
           2       14                 12.1181835661                 12.1206868578
           2       15                 29.4320778347                 29.4320780959
           2       16                 54.8753777694                 54.8752901936
           2       17                 59.3533975461                 59.3533974833
           2       18                 93.4537491195                 93.4537492066
           3       19               -384.4698526889               -384.4698499465
           3       20                 12.5691022037                 12.5690910168
           3       21                -15.7489097511                -15.7489165588
           3       22                 27.0978334940                 27.0985589490
           3       23                 18.5949116966                 18.5949125562
           3       24                  1.2212828291                  1.2212855301
           3       25                 13.4428926797                 13.4434051125
           3       26                 35.9380614500                 35.9380613666
           3       27                 39.9231532098                 39.9231654735
           3       28                 72.9957335806                 72.9957336833
           3       29                116.4231321147                116.4231321431
           4       30               -514.2564144315               -514.2564099626
           4       31                 15.1726678541                 15.1726530877
           4       32                -21.5447785304                -21.5447874973
           4       33                 14.4944558459                 14.4944698284
           4       34                 20.8882174564                 20.8882178906
           4       35                 -2.4850315908                 -2.4850322289
           4       36                 13.8600193195                 13.8599826966
           4       37                 45.8243383616                 45.8243383675
           4       38                 52.1840606465                 52.1840622440
           4       39                 85.4074185510                 85.4074185819
           4       40                142.0983717302                142.0983717339
 * Note: Onsite integrals marked "***" above are less accurate than
 * onsite_accuracy_threshold =    0.03000 eV. Usually, this is harmless.
 * When in doubt, tighten the "radial" and/or "radial_multiplier" flags to check.

  Preparing densities etc. for the partition functions (integrals / Hartree potential).

  Preparations completed.
  max(cpu_time)          :      0.236 s.
  Wall clock time (cpu1) :      0.235 s.
------------------------------------------------------------

------------------------------------------------------------
          Begin self-consistency loop: Initialization.

          Date     :  20170309, Time     :  190011.431
------------------------------------------------------------

  Initializing index lists of integration centers etc. from given atomic structure:
  | Number of centers in hartree potential         :        32
  | Number of centers in hartree multipole         :        32
  | Number of centers in electron density summation:        32
  | Number of centers in basis integrals           :        32
  | Number of centers in integrals                 :        32
  | Number of centers in hamiltonian               :        32
  Using modified Scalapack Eigenvalue solver (ELPA)
  * Using 32 tasks for Scalapack Eigenvalue solver.
  Detailed listing of tasks and assigned k-points:
  (for non-periodic systems, the "k-point" denotes an internal label only)
   Task     0 k-point     1 on eos399
   Task     1 k-point     1 on eos399
   Task     2 k-point     1 on eos399
   Task     3 k-point     1 on eos399
   Task     4 k-point     1 on eos399
   Task     5 k-point     1 on eos399
   Task     6 k-point     1 on eos399
   Task     7 k-point     1 on eos399
   Task     8 k-point     1 on eos399
   Task     9 k-point     1 on eos399
   Task    10 k-point     1 on eos399
   Task    11 k-point     1 on eos399
   Task    12 k-point     1 on eos399
   Task    13 k-point     1 on eos399
   Task    14 k-point     1 on eos399
   Task    15 k-point     1 on eos399
   Task    16 k-point     1 on eos399
   Task    17 k-point     1 on eos399
   Task    18 k-point     1 on eos399
   Task    19 k-point     1 on eos399
   Task    20 k-point     1 on eos399
   Task    21 k-point     1 on eos399
   Task    22 k-point     1 on eos399
   Task    23 k-point     1 on eos399
   Task    24 k-point     1 on eos399
   Task    25 k-point     1 on eos399
   Task    26 k-point     1 on eos399
   Task    27 k-point     1 on eos399
   Task    28 k-point     1 on eos399
   Task    29 k-point     1 on eos399
   Task    30 k-point     1 on eos399
   Task    31 k-point     1 on eos399
  Tasks:    32 split into      8 X      4 BLACS grid
  Calculating blocksize based on n_basis =          840 max_nprow =            8 max_npcol =            4
  Scalapack blocksize set to:           16
  Required Scalapack workspace - INTEGER:            1 REAL:             1
  Partitioning the integration grid into batches with parallel hashing+maxmin method.
  | Number of batches:     5032
  | Maximal batch size:     200
  | Minimal batch size:      27
  | Average batch size:     104.874
  | Standard deviation of batch sizes:      35.644

  Integration load balanced across    32 MPI tasks.
  Work distribution over tasks is as follows:
  Task     0 has      16484 integration points.
  Task     1 has      16436 integration points.
  Task     2 has      16477 integration points.
  Task     3 has      16441 integration points.
  Task     4 has      16539 integration points.
  Task     5 has      16510 integration points.
  Task     6 has      16527 integration points.
  Task     7 has      16532 integration points.
  Task     8 has      16527 integration points.
  Task     9 has      16473 integration points.
  Task    10 has      16495 integration points.
  Task    11 has      16487 integration points.
  Task    12 has      16474 integration points.
  Task    13 has      16466 integration points.
  Task    14 has      16491 integration points.
  Task    15 has      16490 integration points.
  Task    16 has      16544 integration points.
  Task    17 has      16432 integration points.
  Task    18 has      16516 integration points.
  Task    19 has      16436 integration points.
  Task    20 has      16477 integration points.
  Task    21 has      16523 integration points.
  Task    22 has      16556 integration points.
  Task    23 has      16445 integration points.
  Task    24 has      16440 integration points.
  Task    25 has      16499 integration points.
  Task    26 has      16562 integration points.
  Task    27 has      16534 integration points.
  Task    28 has      16481 integration points.
  Task    29 has      16480 integration points.
  Task    30 has      16486 integration points.
  Task    31 has      16468 integration points.
  Initializing partition tables, free-atom densities, potentials, etc. across the integration grid (initialize_grid_storage).
  | initialize_grid_storage: Actual outermost partition radius vs. multipole_radius_free
  | (-- VB: in principle, multipole_radius_free should be larger, hence this output)
  | Species        1: Confinement radius =              6.000000000000000 AA, multipole_radius_free =              6.071692442739658 AA.
  | Species        1: outer_partition_radius set to              6.071692442739658 AA .
  | Species        2: Confinement radius =              6.000000000000000 AA, multipole_radius_free =              6.029870734432609 AA.
  | Species        2: outer_partition_radius set to              6.029870734432609 AA .
  | Species        3: Confinement radius =              6.000000000000000 AA, multipole_radius_free =              6.058726835495003 AA.
  | Species        3: outer_partition_radius set to              6.058726835495003 AA .
  | Species        4: Confinement radius =              6.000000000000000 AA, multipole_radius_free =              6.064445521808699 AA.
  | Species        4: outer_partition_radius set to              6.064445521808699 AA .
  | Original list of interatomic distances with          32 x         32 entries is created.
  | Net number of integration points:   527728
  | of which are non-zero points    :   414466
  Obtaining max. number of non-zero basis functions in each batch (get_n_compute_maxes).
  | Maximal number of non-zero basis functions:      763 in task     0
  | Maximal number of non-zero basis functions:      757 in task     1
  | Maximal number of non-zero basis functions:      756 in task     2
  | Maximal number of non-zero basis functions:      755 in task     3
  | Maximal number of non-zero basis functions:      758 in task     4
  | Maximal number of non-zero basis functions:      750 in task     5
  | Maximal number of non-zero basis functions:      762 in task     6
  | Maximal number of non-zero basis functions:      753 in task     7
  | Maximal number of non-zero basis functions:      746 in task     8
  | Maximal number of non-zero basis functions:      746 in task     9
  | Maximal number of non-zero basis functions:      763 in task    10
  | Maximal number of non-zero basis functions:      764 in task    11
  | Maximal number of non-zero basis functions:      766 in task    12
  | Maximal number of non-zero basis functions:      763 in task    13
  | Maximal number of non-zero basis functions:      757 in task    14
  | Maximal number of non-zero basis functions:      766 in task    15
  | Maximal number of non-zero basis functions:      755 in task    16
  | Maximal number of non-zero basis functions:      758 in task    17
  | Maximal number of non-zero basis functions:      763 in task    18
  | Maximal number of non-zero basis functions:      754 in task    19
  | Maximal number of non-zero basis functions:      751 in task    20
  | Maximal number of non-zero basis functions:      763 in task    21
  | Maximal number of non-zero basis functions:      760 in task    22
  | Maximal number of non-zero basis functions:      748 in task    23
  | Maximal number of non-zero basis functions:      750 in task    24
  | Maximal number of non-zero basis functions:      753 in task    25
  | Maximal number of non-zero basis functions:      762 in task    26
  | Maximal number of non-zero basis functions:      772 in task    27
  | Maximal number of non-zero basis functions:      758 in task    28
  | Maximal number of non-zero basis functions:      764 in task    29
  | Maximal number of non-zero basis functions:      760 in task    30
  | Maximal number of non-zero basis functions:      755 in task    31
  Selecting the method for density update.
  Loop over occupied states selected for charge density update.
  Integrating Hamiltonian matrix: batch-based integration.
  Time summed over all CPUs for integration: real work       22.256 s, elapsed       22.897 s
  Integrating overlap matrix.
  Time summed over all CPUs for integration: real work       13.757 s, elapsed       14.189 s
  Deallocating overlap matrix.

  Updating Kohn-Sham eigenvalues, eigenvectors, occupation numbers, and Fermi level.
  Solving generalized eigenproblem
  Solving real symmetric generalised eigenvalue problem by standard ScaLAPACK.
  Transforming overlap matrix with ScaLAPACK and checking for singularities.
  : Overlap matrix is nonsingular, using Cholesky decomposition
  | Lowest eigenvalue:  0.906400E-04
  Factoring overlap matrix with Cholesky decomposition
  Using Cholesky factor for transformation
  Using 1-stage real ELPA solver
  Determining occupation numbers for Kohn-Sham eigenstates.
  | Chemical potential (Fermi level) in eV                 : -.95794503E+01
  | Error in electron count due to remaining E_F inaccuracy: 0.00000000E+00
  | Maximum occupation number of highest empty state:  0.00E+00

  Writing Kohn-Sham eigenvalues.

  State    Occupation    Eigenvalue [Ha]    Eigenvalue [eV]
      1       2.00000         -18.974225         -516.31494
      2       2.00000         -18.974062         -516.31049
      3       2.00000         -18.973934         -516.30701
      4       2.00000         -14.256515         -387.93952
      5       2.00000         -14.254304         -387.87936
      6       2.00000         -14.252026         -387.81737
      7       2.00000         -10.171261         -276.77408
      8       2.00000         -10.171106         -276.76988
      9       2.00000         -10.171063         -276.76871
     10       2.00000         -10.166799         -276.65269
     11       2.00000         -10.149133         -276.17195
     12       2.00000         -10.146789         -276.10819
     13       2.00000         -10.136394         -275.82531
     14       2.00000         -10.135149         -275.79143
     15       2.00000         -10.132007         -275.70593
     16       2.00000          -1.134657          -30.87559
     17       2.00000          -1.131352          -30.78567
     18       2.00000          -1.128196          -30.69979
     19       2.00000          -1.021602          -27.79920
     20       2.00000          -1.012987          -27.56478
     21       2.00000          -1.003885          -27.31710
     22       2.00000          -0.885510          -24.09595
     23       2.00000          -0.878566          -23.90699
     24       2.00000          -0.841610          -22.90139
     25       2.00000          -0.822100          -22.37048
     26       2.00000          -0.770464          -20.96539
     27       2.00000          -0.757440          -20.61100
     28       2.00000          -0.706400          -19.22211
     29       2.00000          -0.685967          -18.66611
     30       2.00000          -0.669663          -18.22245
     31       2.00000          -0.643500          -17.51052
     32       2.00000          -0.637781          -17.35491
     33       2.00000          -0.614394          -16.71851
     34       2.00000          -0.598883          -16.29643
     35       2.00000          -0.590874          -16.07849
     36       2.00000          -0.578132          -15.73177
     37       2.00000          -0.567242          -15.43544
     38       2.00000          -0.558834          -15.20664
     39       2.00000          -0.557912          -15.18154
     40       2.00000          -0.554918          -15.10008
     41       2.00000          -0.549163          -14.94350
     42       2.00000          -0.540314          -14.70268
     43       2.00000          -0.534700          -14.54992
     44       2.00000          -0.530510          -14.43591
     45       2.00000          -0.521495          -14.19061
     46       2.00000          -0.517186          -14.07334
     47       2.00000          -0.512104          -13.93505
     48       2.00000          -0.501595          -13.64910
     49       2.00000          -0.499966          -13.60478
     50       2.00000          -0.480953          -13.08739
     51       2.00000          -0.477532          -12.99432
     52       2.00000          -0.466379          -12.69082
     53       2.00000          -0.417835          -11.36988
     54       2.00000          -0.408412          -11.11345
     55       2.00000          -0.402939          -10.96452
     56       2.00000          -0.387898          -10.55523
     57       2.00000          -0.386104          -10.50642
     58       2.00000          -0.377856          -10.28198
     59       0.00000          -0.168952           -4.59741
     60       0.00000          -0.157856           -4.29548
     61       0.00000          -0.155487           -4.23102
     62       0.00000          -0.080269           -2.18423
     63       0.00000          -0.066548           -1.81086
     64       0.00000          -0.053895           -1.46656
     65       0.00000          -0.051621           -1.40468
     66       0.00000          -0.050660           -1.37853
     67       0.00000          -0.041584           -1.13156
     68       0.00000          -0.031948           -0.86935
     69       0.00000          -0.026399           -0.71835
     70       0.00000          -0.025259           -0.68732
     71       0.00000          -0.021622           -0.58836
     72       0.00000          -0.012747           -0.34685
     73       0.00000          -0.009633           -0.26214
     74       0.00000          -0.007567           -0.20591
     75       0.00000          -0.001985           -0.05402
     76       0.00000          -0.001188           -0.03232
     77       0.00000           0.000747            0.02032
     78       0.00000           0.002428            0.06606
     79       0.00000           0.009281            0.25256
     80       0.00000           0.012102            0.32930
     81       0.00000           0.019621            0.53390
     82       0.00000           0.024041            0.65419
     83       0.00000           0.038693            1.05289
     84       0.00000           0.040003            1.08855
     85       0.00000           0.042935            1.16832
     86       0.00000           0.050928            1.38583
     87       0.00000           0.054754            1.48994
     88       0.00000           0.057364            1.56096
     89       0.00000           0.062551            1.70210
     90       0.00000           0.066707            1.81518
     91       0.00000           0.073984            2.01321
     92       0.00000           0.079777            2.17086
     93       0.00000           0.082425            2.24289
     94       0.00000           0.084021            2.28633
     95       0.00000           0.091052            2.47764
     96       0.00000           0.098538            2.68136
     97       0.00000           0.105276            2.86471
     98       0.00000           0.113328            3.08382
     99       0.00000           0.119859            3.26152
    100       0.00000           0.121399            3.30344
    101       0.00000           0.126283            3.43633
    102       0.00000           0.135179            3.67841
    103       0.00000           0.140993            3.83663
    104       0.00000           0.147817            4.02230
    105       0.00000           0.150014            4.08210
    106       0.00000           0.153859            4.18673
    107       0.00000           0.160663            4.37186
    108       0.00000           0.160891            4.37807
    109       0.00000           0.169472            4.61158
    110       0.00000           0.172700            4.69941
    111       0.00000           0.176210            4.79493
    112       0.00000           0.181640            4.94268
    113       0.00000           0.184784            5.02823
    114       0.00000           0.186831            5.08393
    115       0.00000           0.192296            5.23264
    116       0.00000           0.195485            5.31942
    117       0.00000           0.203018            5.52440
    118       0.00000           0.209819            5.70948
    119       0.00000           0.214444            5.83531
    120       0.00000           0.216435            5.88949
    121       0.00000           0.220878            6.01039
    122       0.00000           0.231387            6.29637
    123       0.00000           0.236780            6.44312
    124       0.00000           0.239989            6.53043
    125       0.00000           0.248024            6.74907
    126       0.00000           0.253544            6.89929
    127       0.00000           0.261601            7.11853
    128       0.00000           0.264634            7.20105
    129       0.00000           0.270572            7.36263

  Highest occupied state (VBM) at    -10.28197668 eV
  | Occupation number:      2.00000000

  Lowest unoccupied state (CBM) at    -4.59741210 eV
  | Occupation number:      0.00000000

  Overall HOMO-LUMO gap:      5.68456458 eV.
  Calculating total energy contributions from superposition of free atom densities.

  Total energy components:
  | Sum of eigenvalues            :        -437.86115045 Ha      -11914.80812244 eV
  | XC energy correction          :         -98.81748620 Ha       -2688.96061226 eV
  | XC potential correction       :         127.01777300 Ha        3456.32945950 eV
  | Free-atom electrostatic energy:        -333.62557268 Ha       -9078.41373727 eV
  | Hartree energy correction     :           0.00000000 Ha           0.00000000 eV
  | MBD@rsSCS energy              :           0.00000000 Ha           0.00000000 eV
  | Entropy correction            :          -0.00000000 Ha          -0.00000000 eV
  | ---------------------------
  | Total energy                  :        -743.28643632 Ha      -20225.85301247 eV
  | Total energy, T -> 0          :        -743.28643632 Ha      -20225.85301247 eV  <-- do not rely on this value for anything but (periodic) metals
  | Electronic free energy        :        -743.28643632 Ha      -20225.85301247 eV

  Derived energy quantities:
  | Kinetic energy                :         735.15080782 Ha       20004.47129720 eV
  | Electrostatic energy          :       -1379.61975795 Ha      -37541.36369741 eV
  | Energy correction for multipole
  | error in Hartree potential    :           0.00000000 Ha           0.00000000 eV
  | Sum of eigenvalues per atom                           :        -372.33775383 eV
  | Total energy (T->0) per atom                          :        -632.05790664 eV  <-- do not rely on this value for anything but (periodic) metals
  | Electronic free energy per atom                       :        -632.05790664 eV
  Initialize hartree_potential_storage
  Max. number of atoms included in rho_multipole:           32

  End scf initialization - timings             :  max(cpu_time)    wall_clock(cpu1)
  | Time for scf. initialization               :        1.888 s           1.885 s
  | Boundary condition initialization          :        0.000 s           0.001 s
  | Integration                                :        1.180 s           1.179 s
  | Solution of K.-S. eqns.                    :        0.080 s           0.077 s
  | Grid partitioning                          :        0.268 s           0.267 s
  | Preloading free-atom quantities on grid    :        0.028 s           0.028 s
  | Free-atom superposition energy             :        0.040 s           0.038 s
  | Total energy evaluation                    :        0.000 s           0.001 s
------------------------------------------------------------

------------------------------------------------------------
          Begin self-consistency iteration #    1

  Date     :  20170309, Time     :  190013.317
------------------------------------------------------------
  Evaluating new KS density.
  Integration grid: deviation in total charge (<rho> - N_e) =  -1.421085E-14
  Pulay mixing of updated and previous charge densities.

  Evaluating partitioned Hartree potential by multipole expansion.
  | Analytical far-field extrapolation by fixed multipoles:
  | Hartree multipole sum: apparent total charge =  -0.234542E-04
  Summing up the Hartree potential.
  Time summed over all CPUs for potential: real work        9.575 s, elapsed        9.878 s
  | RMS charge density error from multipole expansion :   0.104322E-01

  Integrating Hamiltonian matrix: batch-based integration.
  Time summed over all CPUs for integration: real work       22.045 s, elapsed       22.898 s

  Updating Kohn-Sham eigenvalues, eigenvectors, occupation numbers, and Fermi level.
  Solving generalized eigenproblem
  Solving real symmetric generalised eigenvalue problem by standard ScaLAPACK.
  Using Cholesky factor for transformation
  Using 2-stage real ELPA solver
  K-Point:    1, Trafo times: 1-stage=     0.021 s, 2-stage=     0.019 s ==> Using 2-stage solver
  Determining occupation numbers for Kohn-Sham eigenstates.
  | Chemical potential (Fermi level) in eV                 : -.41583905E+01
  | Error in electron count due to remaining E_F inaccuracy: 0.00000000E+00
  | Maximum occupation number of highest empty state:  0.00E+00

  Writing Kohn-Sham eigenvalues.

  State    Occupation    Eigenvalue [Ha]    Eigenvalue [eV]
      1       2.00000         -18.622103         -506.73321
      2       2.00000         -18.614843         -506.53566
      3       2.00000         -18.603161         -506.21775
      4       2.00000         -13.996060         -380.85216
      5       2.00000         -13.990625         -380.70426
      6       2.00000         -13.984248         -380.53074
      7       2.00000         -10.066015         -273.91020
      8       2.00000         -10.048766         -273.44083
      9       2.00000         -10.039160         -273.17943
     10       2.00000          -9.965702         -271.18056
     11       2.00000          -9.952987         -270.83455
     12       2.00000          -9.881334         -268.88478
     13       2.00000          -9.848022         -267.97830
     14       2.00000          -9.834667         -267.61491
     15       2.00000          -9.827589         -267.42232
     16       2.00000          -0.971881          -26.44623
     17       2.00000          -0.953896          -25.95683
     18       2.00000          -0.948655          -25.81421
     19       2.00000          -0.869974          -23.67320
     20       2.00000          -0.863671          -23.50168
     21       2.00000          -0.850318          -23.13833
     22       2.00000          -0.738484          -20.09518
     23       2.00000          -0.721921          -19.64447
     24       2.00000          -0.686111          -18.67004
     25       2.00000          -0.669680          -18.22292
     26       2.00000          -0.627387          -17.07206
     27       2.00000          -0.606757          -16.51069
     28       2.00000          -0.582985          -15.86383
     29       2.00000          -0.550179          -14.97114
     30       2.00000          -0.541737          -14.74141
     31       2.00000          -0.507351          -13.80571
     32       2.00000          -0.505566          -13.75716
     33       2.00000          -0.468145          -12.73888
     34       2.00000          -0.451904          -12.29694
     35       2.00000          -0.441154          -12.00441
     36       2.00000          -0.433631          -11.79971
     37       2.00000          -0.423461          -11.52297
     38       2.00000          -0.419880          -11.42553
     39       2.00000          -0.405186          -11.02568
     40       2.00000          -0.399262          -10.86447
     41       2.00000          -0.391461          -10.65218
     42       2.00000          -0.387936          -10.55628
     43       2.00000          -0.380776          -10.36143
     44       2.00000          -0.374401          -10.18796
     45       2.00000          -0.365826           -9.95463
     46       2.00000          -0.362419           -9.86193
     47       2.00000          -0.359775           -9.78998
     48       2.00000          -0.353561           -9.62088
     49       2.00000          -0.346871           -9.43883
     50       2.00000          -0.339177           -9.22947
     51       2.00000          -0.331681           -9.02550
     52       2.00000          -0.320499           -8.72121
     53       2.00000          -0.250002           -6.80291
     54       2.00000          -0.238067           -6.47815
     55       2.00000          -0.225558           -6.13776
     56       2.00000          -0.218529           -5.94648
     57       2.00000          -0.209582           -5.70301
     58       2.00000          -0.197792           -5.38220
     59       0.00000          -0.061927           -1.68512
     60       0.00000          -0.043355           -1.17976
     61       0.00000          -0.032673           -0.88909
     62       0.00000          -0.031635           -0.86082
     63       0.00000          -0.025826           -0.70276
     64       0.00000          -0.010879           -0.29604
     65       0.00000          -0.004848           -0.13192
     66       0.00000           0.006412            0.17448
     67       0.00000           0.008997            0.24482
     68       0.00000           0.023706            0.64508
     69       0.00000           0.024794            0.67467
     70       0.00000           0.030597            0.83259
     71       0.00000           0.037377            1.01709
     72       0.00000           0.042479            1.15591
     73       0.00000           0.044900            1.22180
     74       0.00000           0.046920            1.27676
     75       0.00000           0.058718            1.59780
     76       0.00000           0.063873            1.73808
     77       0.00000           0.066330            1.80492
     78       0.00000           0.076764            2.08885
     79       0.00000           0.079714            2.16913
     80       0.00000           0.086151            2.34428
     81       0.00000           0.100073            2.72312
     82       0.00000           0.102142            2.77942
     83       0.00000           0.105467            2.86990
     84       0.00000           0.107872            2.93534
     85       0.00000           0.112531            3.06212
     86       0.00000           0.117504            3.19745
     87       0.00000           0.120998            3.29252
     88       0.00000           0.124918            3.39918
     89       0.00000           0.126667            3.44678
     90       0.00000           0.132483            3.60504
     91       0.00000           0.138939            3.78073
     92       0.00000           0.148651            4.04500
     93       0.00000           0.150258            4.08872
     94       0.00000           0.156746            4.26529
     95       0.00000           0.158443            4.31146
     96       0.00000           0.172692            4.69919
     97       0.00000           0.178454            4.85599
     98       0.00000           0.180517            4.91212
     99       0.00000           0.190423            5.18166
    100       0.00000           0.192326            5.23347
    101       0.00000           0.195997            5.33336
    102       0.00000           0.202223            5.50276
    103       0.00000           0.207764            5.65354
    104       0.00000           0.208749            5.68036
    105       0.00000           0.212500            5.78241
    106       0.00000           0.217009            5.90511
    107       0.00000           0.223127            6.07160
    108       0.00000           0.226335            6.15888
    109       0.00000           0.230127            6.26206
    110       0.00000           0.235481            6.40776
    111       0.00000           0.236522            6.43608
    112       0.00000           0.243392            6.62304
    113       0.00000           0.245835            6.68950
    114       0.00000           0.253814            6.90662
    115       0.00000           0.255045            6.94013
    116       0.00000           0.263907            7.18127
    117       0.00000           0.267759            7.28610
    118       0.00000           0.276082            7.51258
    119       0.00000           0.280187            7.62429
    120       0.00000           0.284465            7.74068
    121       0.00000           0.289830            7.88668
    122       0.00000           0.299706            8.15542
    123       0.00000           0.311506            8.47651
    124       0.00000           0.314606            8.56085
    125       0.00000           0.321600            8.75118
    126       0.00000           0.328345            8.93473
    127       0.00000           0.332613            9.05085
    128       0.00000           0.340986            9.27871
    129       0.00000           0.346541            9.42986

  Highest occupied state (VBM) at     -5.38219918 eV
  | Occupation number:      2.00000000

  Lowest unoccupied state (CBM) at    -1.68512124 eV
  | Occupation number:      0.00000000

  Overall HOMO-LUMO gap:      3.69707794 eV.

  Total energy components:
  | Sum of eigenvalues            :        -417.13674184 Ha      -11350.86827141 eV
  | XC energy correction          :        -100.75241820 Ha       -2741.61279102 eV
  | XC potential correction       :         129.52737038 Ha        3524.61907857 eV
  | Free-atom electrostatic energy:        -333.62557268 Ha       -9078.41373727 eV
  | Hartree energy correction     :         -20.72818178 Ha        -564.04252445 eV
  | MBD@rsSCS energy              :           0.00000000 Ha           0.00000000 eV
  | Entropy correction            :          -0.00000000 Ha          -0.00000000 eV
  | ---------------------------
  | Total energy                  :        -742.71554413 Ha      -20210.31824558 eV
  | Total energy, T -> 0          :        -742.71554413 Ha      -20210.31824558 eV  <-- do not rely on this value for anything but (periodic) metals
  | Electronic free energy        :        -742.71554413 Ha      -20210.31824558 eV

  Derived energy quantities:
  | Kinetic energy                :         744.03319167 Ha       20246.17325936 eV
  | Electrostatic energy          :       -1385.99631760 Ha      -37714.87871391 eV
  | Energy correction for multipole
  | error in Hartree potential    :          -0.04096400 Ha          -1.11468717 eV
  | Sum of eigenvalues per atom                           :        -354.71463348 eV
  | Total energy (T->0) per atom                          :        -631.57244517 eV  <-- do not rely on this value for anything but (periodic) metals
  | Electronic free energy per atom                       :        -631.57244517 eV

  Self-consistency convergence accuracy:
  | Change of charge density      :  0.9027E+00
  | Change of sum of eigenvalues  :  0.5639E+03 eV
  | Change of total energy        :  0.1553E+02 eV

  End self-consistency iteration #     1       :  max(cpu_time)    wall_clock(cpu1)
  | Time for this iteration                    :        1.568 s           1.566 s
[...]
   Multipole                     : -0.489298E+00  0.200337E+00 -0.347262E+00
   Pulay + GGA                   : -0.956382E+01  0.374082E+01 -0.825153E+01
   MBD@rsSCS                     : -0.848001E-02  0.383864E-02 -0.194474E-01
   ----------------------------------------------------------------
   Total forces(  20)            :  0.191192E-03  0.160790E-01 -0.135147E-01
  atom #   21
   Hellmann-Feynman              :  0.753588E-02 -0.651440E-01 -0.355272E-01
   Ionic forces                  :  0.000000E+00  0.000000E+00  0.000000E+00
   Multipole                     :  0.647594E-02  0.127123E-01  0.405618E-01
   Pulay + GGA                   : -0.908121E-02  0.622864E-01  0.244746E-02
   MBD@rsSCS                     :  0.555590E-02 -0.550251E-02  0.838117E-02
   ----------------------------------------------------------------
   Total forces(  21)            :  0.104865E-01  0.435221E-02  0.158632E-01
  atom #   22
   Hellmann-Feynman              : -0.664422E-02  0.636662E-01 -0.319513E-02
   Ionic forces                  :  0.000000E+00  0.000000E+00  0.000000E+00
   Multipole                     : -0.400194E-02 -0.382540E-02  0.148463E-01
   Pulay + GGA                   :  0.105334E-01 -0.603339E-01 -0.119492E-01
   MBD@rsSCS                     : -0.786841E-02 -0.586442E-02 -0.700046E-02
   ----------------------------------------------------------------
   Total forces(  22)            : -0.798113E-02 -0.635756E-02 -0.729845E-02
  atom #   23
   Hellmann-Feynman              :  0.953530E+00  0.732572E+00 -0.411348E-01
   Ionic forces                  :  0.000000E+00  0.000000E+00  0.000000E+00
   Multipole                     : -0.150309E+00 -0.263255E+00 -0.984586E-02
   Pulay + GGA                   : -0.790734E+00 -0.455698E+00  0.650393E-01
   MBD@rsSCS                     : -0.107151E-01 -0.120617E-01 -0.182117E-02
   ----------------------------------------------------------------
   Total forces(  23)            :  0.177183E-02  0.155758E-02  0.122375E-01
  atom #   24
   Hellmann-Feynman              : -0.245306E-01 -0.546388E-01  0.206513E-01
   Ionic forces                  :  0.000000E+00  0.000000E+00  0.000000E+00
   Multipole                     :  0.987269E-03  0.277201E-01  0.288365E-01
   Pulay + GGA                   :  0.209999E-01  0.314568E-01 -0.487447E-01
   MBD@rsSCS                     : -0.921788E-02 -0.108414E-01 -0.518747E-02
   ----------------------------------------------------------------
   Total forces(  24)            : -0.117613E-01 -0.630333E-02 -0.444428E-02
  atom #   25
   Hellmann-Feynman              : -0.531435E-01 -0.500844E-01 -0.499608E-03
   Ionic forces                  :  0.000000E+00  0.000000E+00  0.000000E+00
   Multipole                     : -0.102326E-02  0.355816E-01 -0.215145E-01
   Pulay + GGA                   :  0.527491E-01  0.940104E-02  0.283610E-01
   MBD@rsSCS                     : -0.758538E-02 -0.791970E-02  0.121497E-02
   ----------------------------------------------------------------
   Total forces(  25)            : -0.900309E-02 -0.130214E-01  0.756191E-02
  atom #   26
   Hellmann-Feynman              :  0.161667E-01 -0.392420E-01  0.776400E-02
   Ionic forces                  :  0.000000E+00  0.000000E+00  0.000000E+00
   Multipole                     :  0.248825E-01 -0.997564E-02 -0.124373E-01
   Pulay + GGA                   : -0.451079E-01  0.474781E-01 -0.869244E-04
   MBD@rsSCS                     : -0.917111E-02 -0.853874E-02  0.193238E-03
   ----------------------------------------------------------------
   Total forces(  26)            : -0.132298E-01 -0.102783E-01 -0.456694E-02
  atom #   27
   Hellmann-Feynman              :  0.677460E+00  0.658331E+00 -0.845109E+00
   Ionic forces                  :  0.000000E+00  0.000000E+00  0.000000E+00
   Multipole                     :  0.279518E+00 -0.464340E-01 -0.167762E-01
   Pulay + GGA                   : -0.966520E+00 -0.613976E+00  0.876488E+00
   MBD@rsSCS                     :  0.184383E-01 -0.566241E-02 -0.269927E-01
   ----------------------------------------------------------------
   Total forces(  27)            :  0.889634E-02 -0.774152E-02 -0.123905E-01
  atom #   28
   Hellmann-Feynman              : -0.515384E+00 -0.461171E+00  0.224398E+01
   Ionic forces                  :  0.000000E+00  0.000000E+00  0.000000E+00
   Multipole                     :  0.550145E-01  0.376717E-01 -0.159676E+00
   Pulay + GGA                   :  0.457416E+00  0.423784E+00 -0.206465E+01
   MBD@rsSCS                     :  0.935522E-02 -0.154997E-02 -0.101323E-01
   ----------------------------------------------------------------
   Total forces(  28)            :  0.640181E-02 -0.126506E-02  0.951398E-02
  atom #   29
   Hellmann-Feynman              :  0.459680E-01 -0.365133E-02 -0.922521E-04
   Ionic forces                  :  0.000000E+00  0.000000E+00  0.000000E+00
   Multipole                     : -0.247153E-01 -0.565671E-02  0.523364E-01
   Pulay + GGA                   : -0.308779E-01  0.141738E-01 -0.461994E-01
   MBD@rsSCS                     :  0.501844E-02 -0.484867E-02 -0.883766E-02
   ----------------------------------------------------------------
   Total forces(  29)            : -0.460685E-02  0.170457E-04 -0.279291E-02
  atom #   30
   Hellmann-Feynman              :  0.368096E-01  0.272600E-01 -0.221887E-01
   Ionic forces                  :  0.000000E+00  0.000000E+00  0.000000E+00
   Multipole                     :  0.784740E-02  0.243767E-01  0.197945E-01
   Pulay + GGA                   : -0.492524E-01 -0.486849E-01  0.428316E-02
   MBD@rsSCS                     :  0.429650E-02  0.364097E-03 -0.659015E-02
   ----------------------------------------------------------------
   Total forces(  30)            : -0.298822E-03  0.331591E-02 -0.470117E-02
  atom #   31
   Hellmann-Feynman              :  0.356270E-01 -0.109879E-01 -0.386435E-01
   Ionic forces                  :  0.000000E+00  0.000000E+00  0.000000E+00
   Multipole                     :  0.123396E-02 -0.346989E-01  0.784053E-02
   Pulay + GGA                   : -0.406524E-01  0.461100E-01  0.297385E-01
   MBD@rsSCS                     :  0.392783E-02 -0.324043E-03 -0.566867E-02
   ----------------------------------------------------------------
   Total forces(  31)            :  0.136415E-03  0.992258E-04 -0.673319E-02
  atom #   32
   Hellmann-Feynman              :  0.231566E-01  0.117568E-01 -0.660740E-01
   Ionic forces                  :  0.000000E+00  0.000000E+00  0.000000E+00
   Multipole                     : -0.484636E-01  0.246748E-02  0.159502E-01
   Pulay + GGA                   :  0.274122E-01 -0.146118E-01  0.527751E-01
   MBD@rsSCS                     :  0.415706E-03  0.109517E-02 -0.693766E-02
   ----------------------------------------------------------------
   Total forces(  32)            :  0.252092E-02  0.707623E-03 -0.428629E-02

  Removing unitary transformations (pure translations, rotations) from forces on atoms.
  Atomic forces before filtering:
  | Net force on center of mass :  -0.171484E-03  0.813014E-04  0.156746E-04 eV/A
  | Net torque on center of mass:  -0.113691E-02 -0.140994E-02 -0.283916E-03 eV
  Atomic forces after filtering:
  | Net force on center of mass :  -0.522674E-17 -0.696899E-18 -0.153318E-16 eV/A
  | Net torque on center of mass:   0.685936E-16 -0.184392E-16 -0.350344E-17 eV

  Energy and forces in a compact form:
  | Total energy uncorrected      :         -0.202089685706381E+05 eV
  | Total energy corrected        :         -0.202089685706381E+05 eV  <-- do not rely on this value for anything but (periodic) metals
  | Electronic free energy        :         -0.202089685706381E+05 eV
  Total atomic forces (unitary forces cleaned) [eV/Ang]:
  |   1         -0.223716694442481E-02         -0.369193555577351E-02         -0.441355379136235E-02
  |   2         -0.132082800039174E-01         -0.175297671930985E-02          0.295004492920223E-01
  |   3         -0.296557083795464E-01         -0.548848845106865E-02          0.117437613881520E-01
  |   4         -0.735419933463084E-02          0.228998360290366E-02          0.801830614748493E-02
  |   5         -0.154345481515432E-02          0.427569128905909E-02          0.606678977785178E-02
  |   6          0.204086830151165E-02          0.467105915988502E-03          0.759138139899658E-02
  |   7          0.512103076369076E-02         -0.970366559987235E-03          0.283020421143665E-02
  |   8          0.196297504094787E-01          0.134805490059815E-01          0.150399932129320E-01
  |   9          0.259809667835497E-01         -0.122704705546855E-01          0.148295100340180E-01
  |  10         -0.143813107797530E-02         -0.970536518535822E-02         -0.605513242378718E-02
  |  11          0.608569877795652E-03          0.153388969246494E-02         -0.404561473952615E-02
  |  12         -0.185188917606628E-02         -0.545695250731724E-02          0.374450879517989E-02
  |  13          0.253190830495460E-01          0.409074562531927E-01         -0.167981602387408E-01
  |  14          0.173461535143817E-02          0.365289431470705E-01          0.648536339336625E-03
  |  15          0.779887747205308E-02          0.215927581890108E-01         -0.224519330596152E-01
  |  16         -0.382209602968189E-02          0.180890332357023E-02         -0.106898469019008E-01
  |  17          0.120440252850633E-01         -0.169604873054690E-01          0.571174991281205E-02
  |  18         -0.185084727692898E-01         -0.439779168953860E-01         -0.196593239745577E-01
  |  19         -0.436374037576096E-02         -0.363513730803580E-02         -0.612312807016227E-02
  |  20          0.214069924118053E-03          0.160688302836024E-01         -0.135202567325566E-01
  |  21          0.104829315130211E-01          0.434816704643391E-02          0.158753308707633E-01
  |  22         -0.797370047602544E-02         -0.635792600709730E-02         -0.730523675511942E-02
  |  23          0.177473488551245E-02          0.155713108851244E-02          0.122357939866286E-01
  |  24         -0.117648875046653E-01         -0.629881590328847E-02         -0.444804403126500E-02
  |  25         -0.899537467498330E-02         -0.130216899589502E-01          0.755470084548782E-02
  |  26         -0.132281284814045E-01         -0.102814615234004E-01         -0.456214390867413E-02
  |  27          0.891450869934145E-02         -0.775694719415428E-02         -0.123811663279286E-01
  |  28          0.642881031949109E-02         -0.128695248099542E-02          0.952563343862872E-02
  |  29         -0.459414773348863E-02          0.236062628476370E-05         -0.277893363070450E-02
  |  30         -0.269176420375520E-03          0.329184087362215E-02         -0.468837944813848E-02
  |  31          0.162999873548546E-03          0.741682349820975E-04         -0.671521095187746E-02
  |  32          0.255271168823102E-02          0.686111537597400E-03         -0.428058466581456E-02

  ------------------------------------ 
  Start decomposition of the XC Energy 
  ------------------------------------ 
  Hartree-Fock part   :          0.000000000 Ha              0.000000000 eV
  ------------------------------------ 
  X Energy            :        -96.985491438 Ha          -2639.109498433 eV
  C Energy GGA        :         -3.869758539 Ha           -105.301487522 eV
  Total XC Energy     :       -100.855249977 Ha          -2744.410985955 eV
  LDA X and C from self-consistent density 
  X Energy LDA        :        -88.003796642 Ha          -2394.705147887 eV
  C Energy LDA        :         -7.532231410 Ha           -204.962445036 eV
  ------------------------------------ 
  End decomposition of the XC Energy 
  ------------------------------------ 
   
  ESP charge fitting starts.
  | Calculation :  00000001  of  00000001
  | Full density
  Computing multipole expansion for total density.
  Generating points for esp charges.
  Partitioning the integration grid into batches with parallel hashing+maxmin method.
  | Number of batches:     3855
  | Maximal batch size:     200
  | Minimal batch size:      90
  | Average batch size:     126.372
  | Standard deviation of batch sizes:      18.194

  Integration load balanced across    32 MPI tasks.
  Work distribution over tasks is as follows:
  Initializing partition tables, free-atom densities, potentials, etc. across the integration grid (initialize_grid_storage).
  | Original list of interatomic distances with          32 x         32 entries is created.
  | Net number of integration points:   487164
  | of which are non-zero points    :   487164
  Summing up potential from multipole expanded  density.
  Summing up the Hartree potential.
  Time summed over all CPUs for potential: real work        6.330 s, elapsed        6.528 s
  Fitting esp charges to potential.
  |
  | ESP charges fitted to the electrostatic potential :
  |
  | Atom         1: C, ESP charge:      0.76327564
  |
  | Atom         2: C, ESP charge:     -0.86729325
  |
  | Atom         3: O, ESP charge:      0.60009546
  |
  | Atom         4: H, ESP charge:     -0.18536872
  |
  | Atom         5: H, ESP charge:     -0.21278058
  |
  | Atom         6: H, ESP charge:     -0.21566110
  |
  | Atom         7: N, ESP charge:      0.76611828
  |
  | Atom         8: C, ESP charge:     -0.43778923
  |
  | Atom         9: C, ESP charge:     -0.36384899
  |
  | Atom        10: O, ESP charge:      0.55009167
  |
  | Atom        11: H, ESP charge:     -0.36162621
  |
  | Atom        12: H, ESP charge:     -0.01330879
  |
  | Atom        13: C, ESP charge:      0.39697416
  |
  | Atom        14: H, ESP charge:     -0.06119156
  |
  | Atom        15: H, ESP charge:     -0.12706546
  |
  | Atom        16: H, ESP charge:     -0.10962429
  |
  | Atom        17: N, ESP charge:      0.12376010
  |
  | Atom        18: C, ESP charge:      0.06132605
  |
  | Atom        19: C, ESP charge:     -0.22990085
  |
  | Atom        20: O, ESP charge:      0.46018647
  |
  | Atom        21: H, ESP charge:     -0.20581467
  |
  | Atom        22: H, ESP charge:     -0.16701159
  |
  | Atom        23: C, ESP charge:      0.34201152
  |
  | Atom        24: H, ESP charge:     -0.11349001
  |
  | Atom        25: H, ESP charge:     -0.14437832
  |
  | Atom        26: H, ESP charge:     -0.09194924
  |
  | Atom        27: N, ESP charge:     -0.02958109
  |
  | Atom        28: C, ESP charge:      0.16147489
  |
  | Atom        29: H, ESP charge:     -0.05801974
  |
  | Atom        30: H, ESP charge:     -0.06585131
  |
  | Atom        31: H, ESP charge:     -0.06765603
  |
  | Atom        32: H, ESP charge:     -0.09610323

  RRMS:       0.00665579

  Done.

------------------------------------------------------------------------------
  Final output of selected total energy values:

  The following output summarizes some interesting total energy values
  at the end of a run (AFTER all relaxation, molecular dynamics, etc.).

  | Total energy of the DFT / Hartree-Fock s.c.f. calculation      :         -20208.968570638 eV
  | Final zero-broadening corrected energy (caution - metals only) :         -20208.968570638 eV
  | For reference only, the value of 1 Hartree used in FHI-aims is :             27.211384500 eV

  Before relying on these values, please be sure to understand exactly which
  total energy value is referred to by a given number. Different objects may
  all carry the same name 'total energy'. Definitions:

  Total energy of the DFT / Hartree-Fock s.c.f. calculation:
  | Note that this energy does not include ANY quantities calculated after the
  | s.c.f. cycle, in particular not ANY RPA, MP2, etc. many-body perturbation terms.

  Final zero-broadening corrected energy:
  | For metallic systems only, a broadening of the occupation numbers at the Fermi
  | level can be extrapolated back to zero broadening by an electron-gas inspired
  | formula. For all systems that are not real metals, this value can be
  | meaningless and should be avoided.

------------------------------------------------------------------------------
  Methods described in the following list of references were used in this FHI-aims run.
  If you publish the results, please make sure to cite these reference if they apply.
  FHI-aims is an academic code, and for our developers (often, Ph.D. students
  and postdocs), scientific credit in the community is essential.
  Thank you for helping us!

  For any use of FHI-aims, please cite:

    Volker Blum, Ralf Gehrke, Felix Hanke, Paula Havu, Ville Havu,
    Xinguo Ren, Karsten Reuter, and Matthias Scheffler
    'Ab initio molecular simulations with numeric atom-centered orbitals'
    Computer Physics Communications 180, 2175-2196 (2009)
    http://dx.doi.org/10.1016/j.cpc.2009.06.022


  The scalable eigensolver library ELPA was used in your run.
  ELPA is essential especially for large systems on hundreds or thousands of CPUs.
  For ELPA, please cite:

    Andreas Marek, Volker Blum, Rainer Johanni, Ville Havu, Bruno Lang,
    Thomas Auckenthaler, Alexander Heinecke, Hans-Joachim Bungartz, and Hermann Lederer,
    'The ELPA Library - Scalable Parallel Eigenvalue Solutions
    for Electronic Structure Theory and Computational Science'
    The Journal of Physics: Condensed Matter 26, 213201 (2014).
    http://dx.doi.org/10.1088/0953-8984/26/21/213201


  For ELPA's efficient two-stage tridiagonalization used in your run, please cite:

    T. Auckenthaler, V. Blum, H.-J. Bungartz, T. Huckle, R. Johanni, L. Kraemer,
    B. Lang, H. Lederer, and P. R. Willems,
    'Parallel solution of partial symmetric eigenvalue problems'
    'from  electronic structure calculations'
    Parallel Computing 37, 783-794 (2011).
    http://dx.doi.org/10.1016/j.parco.2011.05.002


  For the real-space grid partitioning and parallelization used in this calculation, please cite:

    Ville Havu, Volker Blum, Paula Havu, and Matthias Scheffler,
    'Efficient O(N) integration for all-electron electronic structure calculation'
    'using numerically tabulated basis functions'
    Journal of Computational Physics 228, 8367-8379 (2009).
    http://dx.doi.org/10.1016/j.jcp.2009.08.008

  Of course, there are many other important community references, e.g., those cited in the
  above references. Our list is limited to references that describe implementations in the
  FHI-aims code. The reason is purely practical (length of this list) - please credit others as well.

------------------------------------------------------------
          Leaving FHI-aims.
          Date     :  20170309, Time     :  190044.187

          Computational steps:
          | Number of self-consistency cycles          :           14

          Detailed time accounting                     :  max(cpu_time)    wall_clock(cpu1)
          | Total time                                 :       33.602 s          33.801 s
          | Preparation time                           :        0.236 s           0.235 s
          | Grid partitioning                          :        0.268 s           0.267 s
          | Preloading free-atom quantities on grid    :        0.028 s           0.028 s
          | Free-atom superposition energy             :        0.040 s           0.038 s
          | Total time for integrations                :       11.337 s          11.322 s
          | Total time for solution of K.-S. equations :        0.536 s           0.502 s
          | Total time for density & force components  :        9.689 s           9.668 s
          | Total time for mixing                      :        0.128 s           0.105 s
          | Total time for Hartree multipole update    :        0.080 s           0.062 s
          | Total time for Hartree multipole sum       :        6.404 s           6.386 s
          | Total time for total energy evaluation     :        0.020 s           0.024 s

          Have a nice day.
------------------------------------------------------------
