  MPI-parallelism will be employed.
------------------------------------------------------------
          Invoking FHI-aims ...
          Version 150427
          Git rev.: 9dd23e0 BL: Update Version stamp
          Compiled on 2015/11/03 at 22:05:20 on host eos03.

          When using FHI-aims, please cite the following reference:

          Volker Blum, Ralf Gehrke, Felix Hanke, Paula Havu,
          Ville Havu, Xinguo Ren, Karsten Reuter, and Matthias Scheffler,
          'Ab Initio Molecular Simulations with Numeric Atom-Centered Orbitals: FHI-aims',
          Computer Physics Communications 180, 2175-2196 (2009)

          For any questions about FHI-aims, please visit the aimsclub website
          with its forums and wiki. Contributions to both the forums and the
          wiki are warmly encouraged - they are for you, and everyone is welcome there.

------------------------------------------------------------

  Date     :  20170309, Time     :  162410.448
  Time zero on CPU 1             :   0.316019000000000E+00  s.
  Internal wall clock time zero  :           258308650.448  s.

  Using       32 parallel tasks.
  Task        0 on host eos100 reporting.
  Task        1 on host eos100 reporting.
  Task        2 on host eos100 reporting.
  Task        3 on host eos100 reporting.
  Task        4 on host eos100 reporting.
  Task        5 on host eos100 reporting.
  Task        6 on host eos100 reporting.
  Task        7 on host eos100 reporting.
  Task        8 on host eos100 reporting.
  Task        9 on host eos100 reporting.
  Task       10 on host eos100 reporting.
  Task       11 on host eos100 reporting.
  Task       12 on host eos100 reporting.
  Task       13 on host eos100 reporting.
  Task       14 on host eos100 reporting.
  Task       15 on host eos100 reporting.
  Task       16 on host eos100 reporting.
  Task       17 on host eos100 reporting.
  Task       18 on host eos100 reporting.
  Task       19 on host eos100 reporting.
  Task       20 on host eos100 reporting.
  Task       21 on host eos100 reporting.
  Task       22 on host eos100 reporting.
  Task       23 on host eos100 reporting.
  Task       24 on host eos100 reporting.
  Task       25 on host eos100 reporting.
  Task       26 on host eos100 reporting.
  Task       27 on host eos100 reporting.
  Task       28 on host eos100 reporting.
  Task       29 on host eos100 reporting.
  Task       30 on host eos100 reporting.
  Task       31 on host eos100 reporting.

  Performing system and environment tests:
  | Environment variable OMP_NUM_THREADS correctly set to 1.
  | Stacksize not measured: no C compiler
  | Checking for scalapack...
  | Testing pdtran()...
  | All pdtran() tests passed.

  Obtaining array dimensions for all initial allocations:
  
  -----------------------------------------------------------------------
  Parsing control.in (first pass over file, find array dimensions only).
  The contents of control.in will be repeated verbatim below
  unless switched off by setting 'verbatim_writeout .false.' .
  in the first line of control.in .
  -----------------------------------------------------------------------
  
  #########################################################################################
  #
  # Input for System
  #
  #########################################################################################
  #
  #
  #  Physical model
  #
    xc                 pbe
    many_body_dispersion
    spin               none
    charge             0.
  #
  #  SCF convergence
  #
    occupation_type    gaussian 0.05
    mixer              pulay
      n_max_pulay        10
      charge_mix_param   0.5
    sc_accuracy_rho    1E-4
    sc_accuracy_eev    1E-2
    sc_accuracy_etot   1E-5
    sc_accuracy_forces 1E-4
    sc_iter_limit      1000
  #
  #  ESP charge
  #
    output esp
    esp equal_grid_n 80 80 80
  #
  #
  ################################################################################
  #
  #  FHI-aims code project
  # Volker Blum, Fritz Haber Institute Berlin, 2009
  #
  #  Suggested "tight" defaults for H atom (to be pasted into control.in file)
  #
  ################################################################################
    species        H
  #     global species definitions
      nucleus             1
      mass                1.00794
  #
      l_hartree           6
  #
      cut_pot             4.0  2.0  1.0
      basis_dep_cutoff    1e-4
  #
      radial_base         24 7.0
      radial_multiplier   2
      angular_grids       specified
        division   0.1930   50
        division   0.3175  110
        division   0.4293  194
        division   0.5066  302
        division   0.5626  434
  #      division   0.5922  590
  #      division   0.6227  974
  #      division   0.6868 1202
  #      outer_grid  770
        outer_grid  434
  ################################################################################
  #
  #  Definition of "minimal" basis
  #
  ################################################################################
  #     valence basis states
      valence      1  s   1.
  #     ion occupancy
      ion_occ      1  s   0.5
  ################################################################################
  #
  #  Suggested additional basis functions. For production calculations,
  #  uncomment them one after another (the most important basis functions are
  #  listed first).
  #
  #  Basis constructed for dimers: 0.5 A, 0.7 A, 1.0 A, 1.5 A, 2.5 A
  #
  ################################################################################
  #  "First tier" - improvements: -1014.90 meV to -62.69 meV
       hydro 2 s 2.1
       hydro 2 p 3.5
  #  "Second tier" - improvements: -12.89 meV to -1.83 meV
       hydro 1 s 0.85
       hydro 2 p 3.7
       hydro 2 s 1.2
       hydro 3 d 7
  #  "Third tier" - improvements: -0.25 meV to -0.12 meV
  #     hydro 4 f 11.2
  #     hydro 3 p 4.8
  #     hydro 4 d 9
  #     hydro 3 s 3.2
  ################################################################################
  #
  # For methods that use the localized form of the "resolution of identity" for
  # the two-electron Coulomb operator (RI_method LVL), particularly Hartree-Fock and
  # hybrid density functional calculations, the highest accuracy can be obtained by
  # uncommenting the line beginning with "for_aux"  below, thus adding an extra g radial
  # function to the construction of the product basis set for the expansion.
  # See Ref. New J. Phys. 17, 093020 (2015) for more information, particularly Figs. 1 and 6.
  #
  ################################################################################
  #
  # for_aux hydro 5 g 6.0
  ################################################################################
  #
  #  FHI-aims code project
  # Volker Blum, Fritz Haber Institute Berlin, 2009
  #
  #  Suggested "tight" defaults for C atom (to be pasted into control.in file)
  #
  ################################################################################
    species        C
  #     global species definitions
      nucleus             6
      mass                12.0107
  #
      l_hartree           6
  #
      cut_pot             4.0  2.0  1.0
      basis_dep_cutoff    1e-4
  #
      radial_base         34 7.0
      radial_multiplier   2
      angular_grids specified
        division   0.2187   50
        division   0.4416  110
        division   0.6335  194
        division   0.7727  302
        division   0.8772  434
  #      division   0.9334  590
  #      division   0.9924  770
  #      division   1.0230  974
  #      division   1.5020 1202
  #     outer_grid  974
        outer_grid  434
  ################################################################################
  #
  #  Definition of "minimal" basis
  #
  ################################################################################
  #     valence basis states
      valence      2  s   2.
      valence      2  p   2.
  #     ion occupancy
      ion_occ      2  s   1.
      ion_occ      2  p   1.
  ################################################################################
  #
  #  Suggested additional basis functions. For production calculations,
  #  uncomment them one after another (the most important basis functions are
  #  listed first).
  #
  #  Constructed for dimers: 1.0 A, 1.25 A, 1.5 A, 2.0 A, 3.0 A
  #
  ################################################################################
  #  "First tier" - improvements: -1214.57 meV to -155.61 meV
       hydro 2 p 1.7
       hydro 3 d 6
       hydro 2 s 4.9
  #  "Second tier" - improvements: -67.75 meV to -5.23 meV
       hydro 4 f 9.8
       hydro 3 p 5.2
       hydro 3 s 4.3
       hydro 5 g 14.4
       hydro 3 d 6.2
  #  "Third tier" - improvements: -2.43 meV to -0.60 meV
  #     hydro 2 p 5.6
  #     hydro 2 s 1.4
  #     hydro 3 d 4.9
  #     hydro 4 f 11.2
  #  "Fourth tier" - improvements: -0.39 meV to -0.18 meV
  #     hydro 2 p 2.1
  #     hydro 5 g 16.4
  #     hydro 4 d 13.2
  #     hydro 3 s 13.6
  #     hydro 4 f 17.6
  #  Further basis functions - improvements: -0.08 meV and below
  #     hydro 3 s 2
  #     hydro 3 p 6
  #     hydro 4 d 20
  ################################################################################
  #
  # For methods that use the localized form of the "resolution of identity" for
  # the two-electron Coulomb operator (RI_method LVL), particularly Hartree-Fock and
  # hybrid density functional calculations, the highest accuracy can be obtained by
  # uncommenting the line beginning with "for_aux"  below, thus adding an extra g radial
  # function to the construction of the product basis set for the expansion.
  # See Ref. New J. Phys. 17, 093020 (2015) for more information, particularly Figs. 1 and 6.
  #
  ################################################################################
  #
  # for_aux hydro 5 g 6.0
  ################################################################################
  #
  #  FHI-aims code project
  # Volker Blum, Fritz Haber Institute Berlin, 2009
  #
  #  Suggested "tight" defaults for N atom (to be pasted into control.in file)
  #
  ################################################################################
    species        N
  #     global species definitions
      nucleus             7
      mass                14.0067
  #
      l_hartree           6
  #
      cut_pot             4.0  2.0  1.0
      basis_dep_cutoff    1e-4
  #
      radial_base         35 7.0
      radial_multiplier   2
      angular_grids       specified
        division   0.1841   50
        division   0.3514  110
        division   0.5126  194
        division   0.6292  302
        division   0.6939  434
  #      division   0.7396  590
  #      division   0.7632  770
  #      division   0.8122  974
  #      division   1.1604 1202
  #      outer_grid  974
        outer_grid  434
  ################################################################################
  #
  #  Definition of "minimal" basis
  #
  ################################################################################
  #     valence basis states
      valence      2  s   2.
      valence      2  p   3.
  #     ion occupancy
      ion_occ      2  s   1.
      ion_occ      2  p   2.
  ################################################################################
  #
  #  Suggested additional basis functions. For production calculations,
  #  uncomment them one after another (the most important basis functions are
  #  listed first).
  #
  #  Constructed for dimers: 1.0 A, 1.1 A, 1.5 A, 2.0 A, 3.0 A
  #
  ################################################################################
  #  "First tier" - improvements: -1193.42 meV to -220.60 meV
       hydro 2 p 1.8
       hydro 3 d 6.8
       hydro 3 s 5.8
  #  "Second tier" - improvements: -80.21 meV to -6.86 meV
       hydro 4 f 10.8
       hydro 3 p 5.8
       hydro 1 s 0.8
       hydro 5 g 16
       hydro 3 d 4.9
  #  "Third tier" - improvements: -4.29 meV to -0.53 meV
  #     hydro 3 s 16
  #     ionic 2 p auto
  #     hydro 3 d 6.6
  #     hydro 4 f 11.6
  #  "Fourth tier" - improvements: -0.75 meV to -0.25 meV
  #     hydro 2 p 4.5
  #     hydro 2 s 2.4
  #     hydro 5 g 14.4
  #     hydro 4 d 14.4
  #     hydro 4 f 16.8
  # Further basis functions - -0.21 meV and below
  #     hydro 3 p 14.8
  #     hydro 3 s 4.4
  #     hydro 3 d 19.6
  #     hydro 5 g 12.8
  ################################################################################
  #
  # For methods that use the localized form of the "resolution of identity" for
  # the two-electron Coulomb operator (RI_method LVL), particularly Hartree-Fock and
  # hybrid density functional calculations, the highest accuracy can be obtained by
  # uncommenting the line beginning with "for_aux"  below, thus adding an extra g radial
  # function to the construction of the product basis set for the expansion.
  # See Ref. New J. Phys. 17, 093020 (2015) for more information, particularly Figs. 1 and 6.
  #
  ################################################################################
  #
  # for_aux hydro 5 g 6.0
  ################################################################################
  #
  #  FHI-aims code project
  # Volker Blum, Fritz Haber Institute Berlin, 2009
  #
  #  Suggested "tight" defaults for O atom (to be pasted into control.in file)
  #
  ################################################################################
    species        O
  #     global species definitions
      nucleus             8
      mass                15.9994
  #
      l_hartree           6
  #
      cut_pot             4.0  2.0  1.0
      basis_dep_cutoff    1e-4
  #
      radial_base         36 7.0
      radial_multiplier   2
       angular_grids specified
        division   0.1817   50
        division   0.3417  110
        division   0.4949  194
        division   0.6251  302
        division   0.8014  434
  #      division   0.8507  590
  #      division   0.8762  770
  #      division   0.9023  974
  #      division   1.2339 1202
  #      outer_grid 974
        outer_grid  434
  ################################################################################
  #
  #  Definition of "minimal" basis
  #
  ################################################################################
  #     valence basis states
      valence      2  s   2.
      valence      2  p   4.
  #     ion occupancy
      ion_occ      2  s   1.
      ion_occ      2  p   3.
  ################################################################################
  #
  #  Suggested additional basis functions. For production calculations,
  #  uncomment them one after another (the most important basis functions are
  #  listed first).
  #
  #  Constructed for dimers: 1.0 A, 1.208 A, 1.5 A, 2.0 A, 3.0 A
  #
  ################################################################################
  #  "First tier" - improvements: -699.05 meV to -159.38 meV
       hydro 2 p 1.8
       hydro 3 d 7.6
       hydro 3 s 6.4
  #  "Second tier" - improvements: -49.91 meV to -5.39 meV
       hydro 4 f 11.6
       hydro 3 p 6.2
       hydro 3 d 5.6
       hydro 5 g 17.6
       hydro 1 s 0.75
  #  "Third tier" - improvements: -2.83 meV to -0.50 meV
  #     ionic 2 p auto
  #     hydro 4 f 10.8
  #     hydro 4 d 4.7
  #     hydro 2 s 6.8
  #  "Fourth tier" - improvements: -0.40 meV to -0.12 meV
  #     hydro 3 p 5
  #     hydro 3 s 3.3
  #     hydro 5 g 15.6
  #     hydro 4 f 17.6
  #     hydro 4 d 14
  # Further basis functions - -0.08 meV and below
  #     hydro 3 s 2.1
  #     hydro 4 d 11.6
  #     hydro 3 p 16
  #     hydro 2 s 17.2
  ################################################################################
  #
  # For methods that use the localized form of the "resolution of identity" for
  # the two-electron Coulomb operator (RI_method LVL), particularly Hartree-Fock and
  # hybrid density functional calculations, the highest accuracy can be obtained by
  # uncommenting the line beginning with "for_aux"  below, thus adding an extra g radial
  # function to the construction of the product basis set for the expansion.
  # See Ref. New J. Phys. 17, 093020 (2015) for more information, particularly Figs. 1 and 6.
  #
  ################################################################################
  #
  # for_aux hydro 5 g 6.0
  
  -----------------------------------------------------------------------
  Completed first pass over input file control.in .
  -----------------------------------------------------------------------
  
  
  -----------------------------------------------------------------------
  Parsing geometry.in (first pass over file, find array dimensions only).
  The contents of geometry.in will be repeated verbatim below
  unless switched off by setting 'verbatim_writeout .false.' .
  in the first line of geometry.in .
  -----------------------------------------------------------------------
  
  #
  # This is the geometry file that corresponds to the current relaxation step.
  # If you do not want this file to be written, set the "write_restart_geometry" flag to .false.
  #
  atom      -0.76351206     -1.59123252      0.86909031 C
  atom      -0.24238061     -0.68796841      1.97083200 C
  atom       0.95666238     -0.61269135      2.25793189 O
  atom      -1.52159938     -2.28851545      1.25257040 H
  atom       0.07335793     -2.16359196      0.46050742 H
  atom      -1.22367570     -1.00342159      0.06283192 H
  atom      -1.18949322      0.04736012      2.62314633 N
  atom      -0.86539874      1.00586406      3.68157449 C
  atom      -0.72313072      0.27847227      5.04630336 C
  atom      -1.57960870      0.36150499      5.92999985 O
  atom      -2.16937803     -0.10359541      2.40869327 H
  atom       0.11851979      1.42352911      3.42009929 H
  atom      -1.91127408      2.10867960      3.74155526 C
  atom      -2.89493605      1.70608346      4.01750925 H
  atom      -1.98327466      2.61877002      2.77253202 H
  atom      -1.64197331      2.84617589      4.50636065 H
  atom       0.41361918     -0.45501387      5.14315761 N
  atom       0.71260755     -1.32201752      6.27915255 C
  atom       1.85684214     -0.68447975      7.10273386 C
  atom       3.03024180     -0.80863533      6.75378133 O
  atom       1.01962705     -0.49637457      4.31825138 H
  atom      -0.21001311     -1.37217647      6.86998487 H
  atom       1.11413778     -2.71777620      5.80825044 C
  atom       1.30276988     -3.37280389      6.66864227 H
  atom       2.03504539     -2.67405589      5.21401614 H
  atom       0.31079231     -3.15643747      5.20297662 H
  atom       1.51242728      0.04272015      8.20404102 N
  atom       0.19670553      0.27250631      8.78628862 C
  atom       2.31963094      0.41954905      8.69262520 H
  atom       0.22286623      1.21493220      9.34643897 H
  atom      -0.09722852     -0.52941361      9.48269275 H
  atom      -0.56948026      0.37005502      8.00773767 H
  
  -----------------------------------------------------------------------
  Completed first pass over input file geometry.in .
  -----------------------------------------------------------------------
  

  Basic array size parameters:
  | Number of species                 :        4
  | Number of atoms                   :       32
  | Max. basis fn. angular momentum   :        4
  | Max. atomic/ionic basis occupied n:        2
  | Max. number of basis fn. types    :        2
  | Max. radial fns per species/type  :        8
  | Max. logarithmic grid size        :     1301
  | Max. radial integration grid size :       73
  | Max. angular integration grid size:      434
  | Max. angular grid division number :        8
  | Radial grid for Hartree potential :     1301
  | Number of spin channels           :        1

------------------------------------------------------------
          Reading file control.in.
------------------------------------------------------------
  XC: Using PBE gradient-corrected functionals.
  Self-consistent screening and van der Waals energy (TS, TS+SCS,MBD) module
  Spin treatment: No spin polarisation.
  Charge =   0.000000E+00: Neutral system requested explicitly.
  Occupation type: Gaussian broadening, width =   0.500000E-01 eV.
  Using pulay charge density mixing.
  Pulay mixing - number of memorized iterations:   10
  Charge density mixing - mixing parameter:     0.5000
  Convergence accuracy of self-consistent charge density:  0.1000E-03
  Convergence accuracy of sum of eigenvalues:  0.1000E-01
  Convergence accuracy of total energy:  0.1000E-04
  Convergence accuracy of forces:  0.1000E-03
  Maximum number of s.-c. iterations  :  1000
  Fitting ESP-charges to Potential. 
  | Esp charge output options: 
  | ESP Grid method: 3, cubic grid
  | Number of points in x, ,y, z:  0080 0080 0080
  |
 
  Reading configuration options for species H                   .
  | Found nuclear charge :   1.0000
  | Found atomic mass :    1.00794000000000      amu
  | Found l_max for Hartree potential  :   6
  | Found cutoff potl. onset [A], width [A], scale factor :    4.00000    2.00000    1.00000
  | Threshold for basis-dependent cutoff potential is   0.100000E-03
  | Found data for basic radial integration grid :    24 points, outermost radius =    7.000 A
  | Found multiplier for basic radial grid :   2
  | Found angular grid specification: user-specified.
  | Specified grid contains     6 separate shells.
  | Check grid settings after all constraints further below.
  | Found free-atom valence shell :  1 s   1.000
  | No ionic wave fns used. Skipping ion_occ.
  | Found hydrogenic basis function :  2 s   2.100
  | Found hydrogenic basis function :  2 p   3.500
  | Found hydrogenic basis function :  1 s   0.850
  | Found hydrogenic basis function :  2 p   3.700
  | Found hydrogenic basis function :  2 s   1.200
  | Found hydrogenic basis function :  3 d   7.000
  Species H                   : Missing cutoff potential type.
  Defaulting to exp(1/x)/(1-x)^2 type cutoff potential.
  Species H : No 'logarithmic' tag. Using default grid for free atom:
  | Default logarithmic grid data [bohr] : 0.1000E-03 0.1000E+03 0.1012E+01
  Species H : On-site basis accuracy parameter (for Gram-Schmidt orthonormalisation) not specified.
  Using default value basis_acc =  0.1000000E-03.
  Species H                   : Using default innermost maximum threshold i_radial=  2 for radial functions.
  Species H                   : Default cutoff onset for free atom density etc. : 0.40000000E+01 AA.
  Species H                   : Basic radial grid will be enhanced according to radial_multiplier =   2, to contain    49 grid points.
 
  Reading configuration options for species C                   .
  | Found nuclear charge :   6.0000
  | Found atomic mass :    12.0107000000000      amu
  | Found l_max for Hartree potential  :   6
  | Found cutoff potl. onset [A], width [A], scale factor :    4.00000    2.00000    1.00000
  | Threshold for basis-dependent cutoff potential is   0.100000E-03
  | Found data for basic radial integration grid :    34 points, outermost radius =    7.000 A
  | Found multiplier for basic radial grid :   2
  | Found angular grid specification: user-specified.
  | Specified grid contains     6 separate shells.
  | Check grid settings after all constraints further below.
  | Found free-atom valence shell :  2 s   2.000
  | Found free-atom valence shell :  2 p   2.000
  | No ionic wave fns used. Skipping ion_occ.
  | No ionic wave fns used. Skipping ion_occ.
  | Found hydrogenic basis function :  2 p   1.700
  | Found hydrogenic basis function :  3 d   6.000
  | Found hydrogenic basis function :  2 s   4.900
  | Found hydrogenic basis function :  4 f   9.800
  | Found hydrogenic basis function :  3 p   5.200
  | Found hydrogenic basis function :  3 s   4.300
  | Found hydrogenic basis function :  5 g  14.400
  | Found hydrogenic basis function :  3 d   6.200
  Species C                   : Missing cutoff potential type.
  Defaulting to exp(1/x)/(1-x)^2 type cutoff potential.
  Species C : No 'logarithmic' tag. Using default grid for free atom:
  | Default logarithmic grid data [bohr] : 0.1000E-03 0.1000E+03 0.1012E+01
  Species C : On-site basis accuracy parameter (for Gram-Schmidt orthonormalisation) not specified.
  Using default value basis_acc =  0.1000000E-03.
  Species C                   : Using default innermost maximum threshold i_radial=  2 for radial functions.
  Species C                   : Default cutoff onset for free atom density etc. : 0.40000000E+01 AA.
  Species C                   : Basic radial grid will be enhanced according to radial_multiplier =   2, to contain    69 grid points.
 
  Reading configuration options for species N                   .
  | Found nuclear charge :   7.0000
  | Found atomic mass :    14.0067000000000      amu
  | Found l_max for Hartree potential  :   6
  | Found cutoff potl. onset [A], width [A], scale factor :    4.00000    2.00000    1.00000
  | Threshold for basis-dependent cutoff potential is   0.100000E-03
  | Found data for basic radial integration grid :    35 points, outermost radius =    7.000 A
  | Found multiplier for basic radial grid :   2
  | Found angular grid specification: user-specified.
  | Specified grid contains     6 separate shells.
  | Check grid settings after all constraints further below.
  | Found free-atom valence shell :  2 s   2.000
  | Found free-atom valence shell :  2 p   3.000
  | No ionic wave fns used. Skipping ion_occ.
  | No ionic wave fns used. Skipping ion_occ.
  | Found hydrogenic basis function :  2 p   1.800
  | Found hydrogenic basis function :  3 d   6.800
  | Found hydrogenic basis function :  3 s   5.800
  | Found hydrogenic basis function :  4 f  10.800
  | Found hydrogenic basis function :  3 p   5.800
  | Found hydrogenic basis function :  1 s   0.800
  | Found hydrogenic basis function :  5 g  16.000
  | Found hydrogenic basis function :  3 d   4.900
  Species N                   : Missing cutoff potential type.
  Defaulting to exp(1/x)/(1-x)^2 type cutoff potential.
  Species N : No 'logarithmic' tag. Using default grid for free atom:
  | Default logarithmic grid data [bohr] : 0.1000E-03 0.1000E+03 0.1012E+01
  Species N : On-site basis accuracy parameter (for Gram-Schmidt orthonormalisation) not specified.
  Using default value basis_acc =  0.1000000E-03.
  Species N                   : Using default innermost maximum threshold i_radial=  2 for radial functions.
  Species N                   : Default cutoff onset for free atom density etc. : 0.40000000E+01 AA.
  Species N                   : Basic radial grid will be enhanced according to radial_multiplier =   2, to contain    71 grid points.
 
  Reading configuration options for species O                   .
  | Found nuclear charge :   8.0000
  | Found atomic mass :    15.9994000000000      amu
  | Found l_max for Hartree potential  :   6
  | Found cutoff potl. onset [A], width [A], scale factor :    4.00000    2.00000    1.00000
  | Threshold for basis-dependent cutoff potential is   0.100000E-03
  | Found data for basic radial integration grid :    36 points, outermost radius =    7.000 A
  | Found multiplier for basic radial grid :   2
  | Found angular grid specification: user-specified.
  | Specified grid contains     6 separate shells.
  | Check grid settings after all constraints further below.
  | Found free-atom valence shell :  2 s   2.000
  | Found free-atom valence shell :  2 p   4.000
  | No ionic wave fns used. Skipping ion_occ.
  | No ionic wave fns used. Skipping ion_occ.
  | Found hydrogenic basis function :  2 p   1.800
  | Found hydrogenic basis function :  3 d   7.600
  | Found hydrogenic basis function :  3 s   6.400
  | Found hydrogenic basis function :  4 f  11.600
  | Found hydrogenic basis function :  3 p   6.200
  | Found hydrogenic basis function :  3 d   5.600
  | Found hydrogenic basis function :  5 g  17.600
  | Found hydrogenic basis function :  1 s   0.750
  Species O                   : Missing cutoff potential type.
  Defaulting to exp(1/x)/(1-x)^2 type cutoff potential.
  Species O : No 'logarithmic' tag. Using default grid for free atom:
  | Default logarithmic grid data [bohr] : 0.1000E-03 0.1000E+03 0.1012E+01
  Species O : On-site basis accuracy parameter (for Gram-Schmidt orthonormalisation) not specified.
  Using default value basis_acc =  0.1000000E-03.
  Species O                   : Using default innermost maximum threshold i_radial=  2 for radial functions.
  Species O                   : Default cutoff onset for free atom density etc. : 0.40000000E+01 AA.
  Species O                   : Basic radial grid will be enhanced according to radial_multiplier =   2, to contain    73 grid points.
 
  Finished reading input file 'control.in'. Consistency checks are next.
 
  Target number of points in a grid batch is not set. Defaulting to  100
  Method for grid partitioning is not set. Defaulting to parallel hash+maxmin partitioning.
  Batch size limit is not set. Defaulting to    200
  By default, will store active basis functions for each batch.
  If in need of memory, prune_basis_once .false. can be used to disable this option.
  communication_type for Hartree potential was not specified.
  Defaulting to calc_hartree .
  Pulay mixer: Number of initial linear mixing iterations not set.
  Defaulting to    0 iterations.
  Work space size for distributed Hartree potential not set.
  Defaulting to   0.200000E+03 MB.
  Algorithm-dependent basis array size parameters:
  | n_max_pulay                         :       10
  Geometry relaxation not requested: no relaxation will be performed.
  Handling of forces: Unphysical translation and rotation will be removed from forces.
  No accuracy limit for integral partition fn. given. Defaulting to  0.1000E-14.
  No threshold value for u(r) in integrations given. Defaulting to  0.1000E-05.
  No accuracy for occupation numbers given. Defaulting to  0.1000E-07.
  No threshold value for occupation numbers given. Defaulting to  0.0000E+00.
  No accuracy for fermi level given. Defaulting to  0.1000E-19.
  Maximum # of iterations to find E_F not set. Defaulting to  200.
  Preferred method for the eigenvalue solver ('KS_method') not specified in 'control.in'.
  Calling blacs routine to test compilation state
  Since scalapack support is enabled, defaulting to 'elpa'.
  Preferred method for the MBD eigenvalue solver ('mbd_eigensolver') not specified in 'control.in'.
  Calling blacs routine to test compilation state
  Since scalapack support is enabled, defaulting to 'scaLAPACK'.
  Will not use alltoall communication since running on < 1024 CPUs.
  Threshold for basis singularities not set.
  Default threshold for basis singularities:  0.1000E-04
  partition_type (choice of integration weights) for integrals was not specified.
  | Using a version of the partition function of Stratmann and coworkers ('stratmann_smoother').
  | At each grid point, the set of atoms used to build the partition table is smoothly restricted to
  | only those atoms whose free-atom density would be non-zero at that grid point.
  Partitioning for Hartree potential was not defined. Using partition_type for integrals.
  | Adjusted default value of keyword multip_moments_threshold to:       0.10000000E-11
  | This value may affect high angular momentum components of the Hartree potential in periodic systems.
  No q(lm)/r^(l+1) cutoff set for long-range Hartree potential.
  | Using default value of  0.100000E-09 .
  | Verify using the multipole_threshold keyword.
  Defaulting to new monopole extrapolation.
  Density update method: automatic selection selected.
------------------------------------------------------------


------------------------------------------------------------
          Reading geometry description geometry.in.
------------------------------------------------------------
 * Warning! You did not set the 'relativistic' flag in input file 'control.in'.
 * Since you are not attempting to treat any elements beyond Ca(Z=20), FHI-aims
 * will default to 'relativistic none'.
 * You must ensure that this is really what you want!!
 * For example, DO NOT compute total-energy differences between results from
 * different settings of the 'relativistic' flag.
  Input structure read successfully.
  The structure contains       32 atoms,  and a total of        116.000 electrons.

  Input geometry:
  | No unit cell requested.
  | Atomic structure:
  |       Atom                x [A]            y [A]            z [A]
  |    1: Species C             -0.763512        -1.591233         0.869090
  |    2: Species C             -0.242381        -0.687968         1.970832
  |    3: Species O              0.956662        -0.612691         2.257932
  |    4: Species H             -1.521599        -2.288515         1.252570
  |    5: Species H              0.073358        -2.163592         0.460507
  |    6: Species H             -1.223676        -1.003422         0.062832
  |    7: Species N             -1.189493         0.047360         2.623146
  |    8: Species C             -0.865399         1.005864         3.681574
  |    9: Species C             -0.723131         0.278472         5.046303
  |   10: Species O             -1.579609         0.361505         5.930000
  |   11: Species H             -2.169378        -0.103595         2.408693
  |   12: Species H              0.118520         1.423529         3.420099
  |   13: Species C             -1.911274         2.108680         3.741555
  |   14: Species H             -2.894936         1.706083         4.017509
  |   15: Species H             -1.983275         2.618770         2.772532
  |   16: Species H             -1.641973         2.846176         4.506361
  |   17: Species N              0.413619        -0.455014         5.143158
  |   18: Species C              0.712608        -1.322018         6.279153
  |   19: Species C              1.856842        -0.684480         7.102734
  |   20: Species O              3.030242        -0.808635         6.753781
  |   21: Species H              1.019627        -0.496375         4.318251
  |   22: Species H             -0.210013        -1.372176         6.869985
  |   23: Species C              1.114138        -2.717776         5.808250
  |   24: Species H              1.302770        -3.372804         6.668642
  |   25: Species H              2.035045        -2.674056         5.214016
  |   26: Species H              0.310792        -3.156437         5.202977
  |   27: Species N              1.512427         0.042720         8.204041
  |   28: Species C              0.196706         0.272506         8.786289
  |   29: Species H              2.319631         0.419549         8.692625
  |   30: Species H              0.222866         1.214932         9.346439
  |   31: Species H             -0.097229        -0.529414         9.482693
  |   32: Species H             -0.569480         0.370055         8.007738
  |

  | The smallest distance between any two atoms is         1.01437268 AA.
  |
  | The first atom of this pair is atom number                      7 .
  | The second atom of this pair is atom number                    11 .

  Number of empty states per atom not set in control.in - providing a guess from actual geometry.
  | Total number of empty states used during s.c.f. cycle:       71
  If you use a very high smearing, use empty_states (per atom!) in control.in to increase this value.

  Structure-dependent array size parameters: 
  | Maximum number of distinct radial functions  :       40
  | Maximum number of basis functions            :      840
  | Number of Kohn-Sham states (occupied + empty):      129
------------------------------------------------------------

------------------------------------------------------------
          Preparing all fixed parts of the calculation.
------------------------------------------------------------
  Determining machine precision:
    2.225073858507201E-308
  Setting up grids for atomic and cluster calculations.

  Creating wave function, potential, and density for free atoms.

  Species: H

  List of occupied orbitals and eigenvalues:
    n    l              occ      energy [Ha]    energy [eV]
    1    0           1.0000        -0.238382        -6.4867


  Species: C

  List of occupied orbitals and eigenvalues:
    n    l              occ      energy [Ha]    energy [eV]
    1    0           2.0000       -10.041232      -273.2358
    2    0           2.0000        -0.504327       -13.7234
    2    1           2.0000        -0.193750        -5.2722


  Species: N

  List of occupied orbitals and eigenvalues:
    n    l              occ      energy [Ha]    energy [eV]
    1    0           2.0000       -14.129007      -384.4699
    2    0           2.0000        -0.681802       -18.5528
    2    1           3.0000        -0.260543        -7.0897


  Species: O

  List of occupied orbitals and eigenvalues:
    n    l              occ      energy [Ha]    energy [eV]
    1    0           2.0000       -18.898576      -514.2564
    2    0           2.0000        -0.878795       -23.9132
    2    1           4.0000        -0.332075        -9.0362

  Creating fixed part of basis set: Ionic, confined, hydrogenic.
 
  H                    hydrogenic:
 
  List of hydrogenic basis orbitals: 
    n    l      effective z      eigenvalue [eV]  inner max. [A]     outer max. [A]     outer radius [A]   
    2    0         2.100000       -14.9965           0.193243           1.317208           5.373006
    2    1         3.500000       -41.6672           0.602369           0.602369           4.056063
    1    0         0.850000        -9.8292           0.624871           0.624871           5.373006
    2    1         3.700000       -46.5653           0.573622           0.573622           3.910002
    2    0         1.200000        -4.5995           0.334980           2.228188           5.505995
    3    2         7.000000       -74.0753           0.680699           0.680699           3.769201
 
 
  C                    hydrogenic:
 
  List of hydrogenic basis orbitals: 
    n    l      effective z      eigenvalue [eV]  inner max. [A]     outer max. [A]     outer radius [A]   
    2    1         1.700000        -9.8152           1.245706           1.245706           5.401630
    3    2         6.000000       -54.4226           0.792453           0.792453           4.178599
    2    0         4.900000       -81.6681           0.082559           0.562749           3.353238
    4    3         9.800000       -81.6681           0.863254           0.863254           4.028125
    3    1         5.200000       -40.8774           0.305389           1.215618           4.898362
    3    0         4.300000       -27.9508           0.091041           1.610311           5.401630
    5    4        14.400000      -112.8510           0.917666           0.917666           3.883070
    3    2         6.200000       -58.1113           0.763917           0.763917           4.077671
 
 
  N                    hydrogenic:
 
  List of hydrogenic basis orbitals: 
    n    l      effective z      eigenvalue [eV]  inner max. [A]     outer max. [A]     outer radius [A]   
    2    1         1.800000       -11.0118           1.177451           1.177451           5.427479
    3    2         6.800000       -69.9029           0.704619           0.704619           3.854246
    3    0         5.800000       -50.8549           0.067388           1.191934           4.629968
    4    3        10.800000       -99.1854           0.786571           0.786571           3.761152
    3    1         5.800000       -50.8549           0.274880           1.094176           4.518138
    1    0         0.800000        -8.7059           0.662839           0.662839           5.361532
    5    4        16.000000      -139.3222           0.825990           0.825990           3.625711
    3    2         4.900000       -36.2967           0.968267           0.968267           4.862000
 
 
  O                    hydrogenic:
 
  List of hydrogenic basis orbitals: 
    n    l      effective z      eigenvalue [eV]  inner max. [A]     outer max. [A]     outer radius [A]   
    2    1         1.800000       -11.0118           1.178562           1.178562           5.432602
    3    2         7.600000       -87.3182           0.624125           0.624125           3.541477
    3    0         6.400000       -61.9209           0.061167           1.081902           4.306578
    4    3        11.600000      -114.4238           0.731631           0.731631           3.585037
    3    1         6.200000       -58.1113           0.255680           1.030270           4.306578
    3    2         5.600000       -47.4081           0.847233           0.847233           4.413171
    5    4        17.600000      -168.5799           0.749740           0.749740           3.372465
    1    0         0.750000        -7.6499           0.705284           0.705284           5.366593
 

  Adding cutoff potential to free-atom effective potential.
  Creating atomic-like basis functions for current effective potential.

  Species H                   :

  List of atomic basis orbitals and eigenvalues:
    n    l      energy [Ha]    energy [eV]    outer radius [A]
    1    0        -0.238382        -6.4867       5.373006


  Species C                   :

  List of atomic basis orbitals and eigenvalues:
    n    l      energy [Ha]    energy [eV]    outer radius [A]
    1    0       -10.041232      -273.2358       1.934409
    2    0        -0.504327       -13.7234       5.271162
    2    1        -0.193750        -5.2722       5.401630


  Species N                   :

  List of atomic basis orbitals and eigenvalues:
    n    l      energy [Ha]    energy [eV]    outer radius [A]
    1    0       -14.129007      -384.4699       1.637919
    2    0        -0.681802       -18.5528       5.168461
    2    1        -0.260543        -7.0897       5.361532


  Species O                   :

  List of atomic basis orbitals and eigenvalues:
    n    l      energy [Ha]    energy [eV]    outer radius [A]
    1    0       -18.898576      -514.2564       1.415765
    2    0        -0.878795       -23.9132       5.048385
    2    1        -0.332075        -9.0362       5.301386

  Assembling full basis from fixed parts.
  | Species H :   atomic orbital   1 s accepted.
  | Species H :    hydro orbital   2 s accepted.
  | Species H :    hydro orbital   1 s accepted.
  | Species H :    hydro orbital   2 s accepted.
  | Species H :    hydro orbital   2 p accepted.
  | Species H :    hydro orbital   2 p accepted.
  | Species H :    hydro orbital   3 d accepted.
  | Species C :   atomic orbital   1 s accepted.
  | Species C :    hydro orbital   2 s accepted.
  | Species C :   atomic orbital   2 s accepted.
  | Species C :    hydro orbital   3 s accepted.
  | Species C :    hydro orbital   3 p accepted.
  | Species C :   atomic orbital   2 p accepted.
  | Species C :    hydro orbital   2 p accepted.
  | Species C :    hydro orbital   3 d accepted.
  | Species C :    hydro orbital   3 d accepted.
  | Species C :    hydro orbital   4 f accepted.
  | Species C :    hydro orbital   5 g accepted.
  | Species N :   atomic orbital   1 s accepted.
  | Species N :    hydro orbital   3 s accepted.
  | Species N :   atomic orbital   2 s accepted.
  | Species N :    hydro orbital   1 s accepted.
  | Species N :    hydro orbital   3 p accepted.
  | Species N :   atomic orbital   2 p accepted.
  | Species N :    hydro orbital   2 p accepted.
  | Species N :    hydro orbital   3 d accepted.
  | Species N :    hydro orbital   3 d accepted.
  | Species N :    hydro orbital   4 f accepted.
  | Species N :    hydro orbital   5 g accepted.
  | Species O :   atomic orbital   1 s accepted.
  | Species O :    hydro orbital   3 s accepted.
  | Species O :   atomic orbital   2 s accepted.
  | Species O :    hydro orbital   1 s accepted.
  | Species O :    hydro orbital   3 p accepted.
  | Species O :   atomic orbital   2 p accepted.
  | Species O :    hydro orbital   2 p accepted.
  | Species O :    hydro orbital   3 d accepted.
  | Species O :    hydro orbital   3 d accepted.
  | Species O :    hydro orbital   4 f accepted.
  | Species O :    hydro orbital   5 g accepted.
 
  Basis size parameters after reduction:
  | Total number of radial functions:       40
  | Total number of basis functions :      840
 
  Testing on-site integration grid accuracy.
  |  Species  Function  <phi|h_atom|phi> (log., in eV)  <phi|h_atom|phi> (rad., in eV)
           1        1                 -6.4869821809                 -6.4870742227
           1        2                 13.5044133542                 13.5041049177
           1        3                 32.7854418792                 32.7779770519
           1        4                 33.7995553101                 33.7152624900 ***
           1        5                 28.8558651799                 28.8558652046
           1        6                 59.6361831893                 59.6362535845
           1        7                 60.2733718049                 60.2733715484
           2        8               -273.2358277112               -273.2358261765
           2        9                -10.7624923123                -10.7625144012
           2       10                 17.4634079027                 17.4634252127
           2       11                 53.0363661832                 53.0366180446
           2       12                 15.0981351967                 15.0981317714
           2       13                  3.8522181899                  3.8522770949
           2       14                 12.1181835661                 12.1206868578
           2       15                 29.4320778347                 29.4320780959
           2       16                 54.8753777694                 54.8752901936
           2       17                 59.3533975461                 59.3533974833
           2       18                 93.4537491195                 93.4537492066
           3       19               -384.4698526889               -384.4698499465
           3       20                 12.5691022037                 12.5690910168
           3       21                -15.7489097511                -15.7489165588
           3       22                 27.0978334940                 27.0985589490
           3       23                 18.5949116966                 18.5949125562
           3       24                  1.2212828291                  1.2212855301
           3       25                 13.4428926797                 13.4434051125
           3       26                 35.9380614500                 35.9380613666
           3       27                 39.9231532098                 39.9231654735
           3       28                 72.9957335806                 72.9957336833
           3       29                116.4231321147                116.4231321431
           4       30               -514.2564144315               -514.2564099626
           4       31                 15.1726678541                 15.1726530877
           4       32                -21.5447785304                -21.5447874973
           4       33                 14.4944558459                 14.4944698284
           4       34                 20.8882174564                 20.8882178906
           4       35                 -2.4850315908                 -2.4850322289
           4       36                 13.8600193195                 13.8599826966
           4       37                 45.8243383616                 45.8243383675
           4       38                 52.1840606465                 52.1840622440
           4       39                 85.4074185510                 85.4074185819
           4       40                142.0983717302                142.0983717339
 * Note: Onsite integrals marked "***" above are less accurate than
 * onsite_accuracy_threshold =    0.03000 eV. Usually, this is harmless.
 * When in doubt, tighten the "radial" and/or "radial_multiplier" flags to check.

  Preparing densities etc. for the partition functions (integrals / Hartree potential).

  Preparations completed.
  max(cpu_time)          :      0.236 s.
  Wall clock time (cpu1) :      0.235 s.
------------------------------------------------------------

------------------------------------------------------------
          Begin self-consistency loop: Initialization.

          Date     :  20170309, Time     :  162411.492
------------------------------------------------------------

  Initializing index lists of integration centers etc. from given atomic structure:
  | Number of centers in hartree potential         :        32
  | Number of centers in hartree multipole         :        32
  | Number of centers in electron density summation:        32
  | Number of centers in basis integrals           :        32
  | Number of centers in integrals                 :        32
  | Number of centers in hamiltonian               :        32
  Using modified Scalapack Eigenvalue solver (ELPA)
  * Using 32 tasks for Scalapack Eigenvalue solver.
  Detailed listing of tasks and assigned k-points:
  (for non-periodic systems, the "k-point" denotes an internal label only)
   Task     0 k-point     1 on eos100
   Task     1 k-point     1 on eos100
   Task     2 k-point     1 on eos100
   Task     3 k-point     1 on eos100
   Task     4 k-point     1 on eos100
   Task     5 k-point     1 on eos100
   Task     6 k-point     1 on eos100
   Task     7 k-point     1 on eos100
   Task     8 k-point     1 on eos100
   Task     9 k-point     1 on eos100
   Task    10 k-point     1 on eos100
   Task    11 k-point     1 on eos100
   Task    12 k-point     1 on eos100
   Task    13 k-point     1 on eos100
   Task    14 k-point     1 on eos100
   Task    15 k-point     1 on eos100
   Task    16 k-point     1 on eos100
   Task    17 k-point     1 on eos100
   Task    18 k-point     1 on eos100
   Task    19 k-point     1 on eos100
   Task    20 k-point     1 on eos100
   Task    21 k-point     1 on eos100
   Task    22 k-point     1 on eos100
   Task    23 k-point     1 on eos100
   Task    24 k-point     1 on eos100
   Task    25 k-point     1 on eos100
   Task    26 k-point     1 on eos100
   Task    27 k-point     1 on eos100
   Task    28 k-point     1 on eos100
   Task    29 k-point     1 on eos100
   Task    30 k-point     1 on eos100
   Task    31 k-point     1 on eos100
  Tasks:    32 split into      8 X      4 BLACS grid
  Calculating blocksize based on n_basis =          840 max_nprow =            8 max_npcol =            4
  Scalapack blocksize set to:           16
  Required Scalapack workspace - INTEGER:            1 REAL:             1
  Partitioning the integration grid into batches with parallel hashing+maxmin method.
  | Number of batches:     4912
  | Maximal batch size:     200
  | Minimal batch size:      41
  | Average batch size:     107.436
  | Standard deviation of batch sizes:      28.830

  Integration load balanced across    32 MPI tasks.
  Work distribution over tasks is as follows:
  Task     0 has      16495 integration points.
  Task     1 has      16418 integration points.
  Task     2 has      16516 integration points.
  Task     3 has      16504 integration points.
  Task     4 has      16518 integration points.
  Task     5 has      16536 integration points.
  Task     6 has      16418 integration points.
  Task     7 has      16504 integration points.
  Task     8 has      16507 integration points.
  Task     9 has      16494 integration points.
  Task    10 has      16413 integration points.
  Task    11 has      16427 integration points.
  Task    12 has      16523 integration points.
  Task    13 has      16501 integration points.
  Task    14 has      16508 integration points.
  Task    15 has      16427 integration points.
  Task    16 has      16516 integration points.
  Task    17 has      16512 integration points.
  Task    18 has      16539 integration points.
  Task    19 has      16527 integration points.
  Task    20 has      16504 integration points.
  Task    21 has      16429 integration points.
  Task    22 has      16511 integration points.
  Task    23 has      16508 integration points.
  Task    24 has      16478 integration points.
  Task    25 has      16509 integration points.
  Task    26 has      16512 integration points.
  Task    27 has      16497 integration points.
  Task    28 has      16503 integration points.
  Task    29 has      16488 integration points.
  Task    30 has      16500 integration points.
  Task    31 has      16486 integration points.
  Initializing partition tables, free-atom densities, potentials, etc. across the integration grid (initialize_grid_storage).
  | initialize_grid_storage: Actual outermost partition radius vs. multipole_radius_free
  | (-- VB: in principle, multipole_radius_free should be larger, hence this output)
  | Species        1: Confinement radius =              6.000000000000000 AA, multipole_radius_free =              6.071692442739658 AA.
  | Species        1: outer_partition_radius set to              6.071692442739658 AA .
  | Species        2: Confinement radius =              6.000000000000000 AA, multipole_radius_free =              6.029870734432609 AA.
  | Species        2: outer_partition_radius set to              6.029870734432609 AA .
  | Species        3: Confinement radius =              6.000000000000000 AA, multipole_radius_free =              6.058726835495003 AA.
  | Species        3: outer_partition_radius set to              6.058726835495003 AA .
  | Species        4: Confinement radius =              6.000000000000000 AA, multipole_radius_free =              6.064445521808699 AA.
  | Species        4: outer_partition_radius set to              6.064445521808699 AA .
  | Original list of interatomic distances with          32 x         32 entries is created.
  | Net number of integration points:   527728
  | of which are non-zero points    :   416745
  Obtaining max. number of non-zero basis functions in each batch (get_n_compute_maxes).
  | Maximal number of non-zero basis functions:      753 in task     0
  | Maximal number of non-zero basis functions:      756 in task     1
  | Maximal number of non-zero basis functions:      765 in task     2
  | Maximal number of non-zero basis functions:      738 in task     3
  | Maximal number of non-zero basis functions:      765 in task     4
  | Maximal number of non-zero basis functions:      764 in task     5
  | Maximal number of non-zero basis functions:      754 in task     6
  | Maximal number of non-zero basis functions:      751 in task     7
  | Maximal number of non-zero basis functions:      762 in task     8
  | Maximal number of non-zero basis functions:      755 in task     9
  | Maximal number of non-zero basis functions:      755 in task    10
  | Maximal number of non-zero basis functions:      762 in task    11
  | Maximal number of non-zero basis functions:      752 in task    12
  | Maximal number of non-zero basis functions:      758 in task    13
  | Maximal number of non-zero basis functions:      755 in task    14
  | Maximal number of non-zero basis functions:      757 in task    15
  | Maximal number of non-zero basis functions:      761 in task    16
  | Maximal number of non-zero basis functions:      747 in task    17
  | Maximal number of non-zero basis functions:      746 in task    18
  | Maximal number of non-zero basis functions:      764 in task    19
  | Maximal number of non-zero basis functions:      764 in task    20
  | Maximal number of non-zero basis functions:      764 in task    21
  | Maximal number of non-zero basis functions:      751 in task    22
  | Maximal number of non-zero basis functions:      765 in task    23
  | Maximal number of non-zero basis functions:      757 in task    24
  | Maximal number of non-zero basis functions:      763 in task    25
  | Maximal number of non-zero basis functions:      752 in task    26
  | Maximal number of non-zero basis functions:      751 in task    27
  | Maximal number of non-zero basis functions:      746 in task    28
  | Maximal number of non-zero basis functions:      748 in task    29
  | Maximal number of non-zero basis functions:      764 in task    30
  | Maximal number of non-zero basis functions:      758 in task    31
  Selecting the method for density update.
  Loop over occupied states selected for charge density update.
  Integrating Hamiltonian matrix: batch-based integration.
  Time summed over all CPUs for integration: real work       20.367 s, elapsed       21.452 s
  Integrating overlap matrix.
  Time summed over all CPUs for integration: real work       12.126 s, elapsed       12.680 s
  Deallocating overlap matrix.

  Updating Kohn-Sham eigenvalues, eigenvectors, occupation numbers, and Fermi level.
  Solving generalized eigenproblem
  Solving real symmetric generalised eigenvalue problem by standard ScaLAPACK.
  Transforming overlap matrix with ScaLAPACK and checking for singularities.
  : Overlap matrix is nonsingular, using Cholesky decomposition
  | Lowest eigenvalue:  0.874620E-04
  Factoring overlap matrix with Cholesky decomposition
  Using Cholesky factor for transformation
  Using 1-stage real ELPA solver
  Determining occupation numbers for Kohn-Sham eigenstates.
  | Chemical potential (Fermi level) in eV                 : -.95321574E+01
  | Error in electron count due to remaining E_F inaccuracy: 0.00000000E+00
  | Maximum occupation number of highest empty state:  0.00E+00

  Writing Kohn-Sham eigenvalues.

  State    Occupation    Eigenvalue [Ha]    Eigenvalue [eV]
      1       2.00000         -18.973620         -516.29847
      2       2.00000         -18.973597         -516.29783
      3       2.00000         -18.973495         -516.29506
      4       2.00000         -14.255005         -387.89842
      5       2.00000         -14.254600         -387.88739
      6       2.00000         -14.254558         -387.88627
      7       2.00000         -10.171935         -276.79244
      8       2.00000         -10.171375         -276.77720
      9       2.00000         -10.170969         -276.76614
     10       2.00000         -10.166149         -276.63498
     11       2.00000         -10.149127         -276.17180
     12       2.00000         -10.148515         -276.15516
     13       2.00000         -10.135993         -275.81440
     14       2.00000         -10.133964         -275.75919
     15       2.00000         -10.133806         -275.75489
     16       2.00000          -1.132428          -30.81493
     17       2.00000          -1.129849          -30.74475
     18       2.00000          -1.126078          -30.64213
     19       2.00000          -1.020909          -27.78034
     20       2.00000          -1.012286          -27.54571
     21       2.00000          -1.007475          -27.41479
     22       2.00000          -0.892179          -24.27742
     23       2.00000          -0.876756          -23.85774
     24       2.00000          -0.841698          -22.90377
     25       2.00000          -0.816810          -22.22653
     26       2.00000          -0.782522          -21.29350
     27       2.00000          -0.750504          -20.42225
     28       2.00000          -0.704216          -19.16269
     29       2.00000          -0.686268          -18.67430
     30       2.00000          -0.676281          -18.40255
     31       2.00000          -0.641824          -17.46491
     32       2.00000          -0.621653          -16.91604
     33       2.00000          -0.610778          -16.62011
     34       2.00000          -0.605160          -16.46724
     35       2.00000          -0.599798          -16.32134
     36       2.00000          -0.595217          -16.19668
     37       2.00000          -0.563579          -15.33577
     38       2.00000          -0.555624          -15.11930
     39       2.00000          -0.554574          -15.09072
     40       2.00000          -0.551916          -15.01840
     41       2.00000          -0.545413          -14.84144
     42       2.00000          -0.544039          -14.80406
     43       2.00000          -0.536928          -14.61055
     44       2.00000          -0.525404          -14.29696
     45       2.00000          -0.518852          -14.11869
     46       2.00000          -0.515985          -14.04066
     47       2.00000          -0.508495          -13.83686
     48       2.00000          -0.503500          -13.70094
     49       2.00000          -0.494902          -13.46697
     50       2.00000          -0.486830          -13.24733
     51       2.00000          -0.482619          -13.13274
     52       2.00000          -0.478336          -13.01618
     53       2.00000          -0.417306          -11.35549
     54       2.00000          -0.412754          -11.23160
     55       2.00000          -0.403738          -10.98628
     56       2.00000          -0.384109          -10.45213
     57       2.00000          -0.378831          -10.30851
     58       2.00000          -0.376919          -10.25650
     59       0.00000          -0.173249           -4.71434
     60       0.00000          -0.160701           -4.37288
     61       0.00000          -0.148668           -4.04545
     62       0.00000          -0.075148           -2.04487
     63       0.00000          -0.063318           -1.72297
     64       0.00000          -0.052782           -1.43626
     65       0.00000          -0.050714           -1.38001
     66       0.00000          -0.047188           -1.28404
     67       0.00000          -0.037442           -1.01885
     68       0.00000          -0.031528           -0.85792
     69       0.00000          -0.028666           -0.78003
     70       0.00000          -0.023802           -0.64769
     71       0.00000          -0.019620           -0.53390
     72       0.00000          -0.016824           -0.45781
     73       0.00000          -0.009873           -0.26867
     74       0.00000          -0.005885           -0.16015
     75       0.00000          -0.004000           -0.10885
     76       0.00000           0.000047            0.00129
     77       0.00000           0.002387            0.06495
     78       0.00000           0.007713            0.20987
     79       0.00000           0.011800            0.32111
     80       0.00000           0.012214            0.33237
     81       0.00000           0.017162            0.46702
     82       0.00000           0.026086            0.70984
     83       0.00000           0.028849            0.78502
     84       0.00000           0.039280            1.06888
     85       0.00000           0.045651            1.24222
     86       0.00000           0.046788            1.27317
     87       0.00000           0.051011            1.38809
     88       0.00000           0.054657            1.48730
     89       0.00000           0.060661            1.65066
     90       0.00000           0.066479            1.80899
     91       0.00000           0.073508            2.00024
     92       0.00000           0.083967            2.28486
     93       0.00000           0.088337            2.40378
     94       0.00000           0.089835            2.44453
     95       0.00000           0.098383            2.67713
     96       0.00000           0.105447            2.86936
     97       0.00000           0.108553            2.95387
     98       0.00000           0.112290            3.05558
     99       0.00000           0.115292            3.13725
    100       0.00000           0.122345            3.32918
    101       0.00000           0.125526            3.41575
    102       0.00000           0.130329            3.54643
    103       0.00000           0.139162            3.78679
    104       0.00000           0.139977            3.80896
    105       0.00000           0.144017            3.91890
    106       0.00000           0.147990            4.02700
    107       0.00000           0.149382            4.06489
    108       0.00000           0.158715            4.31885
    109       0.00000           0.163389            4.44603
    110       0.00000           0.167832            4.56693
    111       0.00000           0.172566            4.69576
    112       0.00000           0.175525            4.77629
    113       0.00000           0.184188            5.01200
    114       0.00000           0.190489            5.18347
    115       0.00000           0.195476            5.31917
    116       0.00000           0.199449            5.42730
    117       0.00000           0.202818            5.51895
    118       0.00000           0.208705            5.67915
    119       0.00000           0.211571            5.75714
    120       0.00000           0.214686            5.84190
    121       0.00000           0.216966            5.90395
    122       0.00000           0.224175            6.10012
    123       0.00000           0.229322            6.24017
    124       0.00000           0.240472            6.54358
    125       0.00000           0.242664            6.60323
    126       0.00000           0.243680            6.63087
    127       0.00000           0.249934            6.80106
    128       0.00000           0.258399            7.03139
    129       0.00000           0.263126            7.16001

  Highest occupied state (VBM) at    -10.25649905 eV
  | Occupation number:      2.00000000

  Lowest unoccupied state (CBM) at    -4.71434133 eV
  | Occupation number:      0.00000000

  Overall HOMO-LUMO gap:      5.54215772 eV.
  Calculating total energy contributions from superposition of free atom densities.

  Total energy components:
  | Sum of eigenvalues            :        -437.87610058 Ha      -11915.21493637 eV
  | XC energy correction          :         -98.81465787 Ha       -2688.88364945 eV
  | XC potential correction       :         127.01319721 Ha        3456.20494582 eV
  | Free-atom electrostatic energy:        -333.62083723 Ha       -9078.28487917 eV
  | Hartree energy correction     :           0.00000000 Ha           0.00000000 eV
  | MBD@rsSCS energy              :           0.00000000 Ha           0.00000000 eV
  | Entropy correction            :          -0.00000000 Ha          -0.00000000 eV
  | ---------------------------
  | Total energy                  :        -743.29839848 Ha      -20226.17851917 eV
  | Total energy, T -> 0          :        -743.29839848 Ha      -20226.17851917 eV  <-- do not rely on this value for anything but (periodic) metals
  | Electronic free energy        :        -743.29839848 Ha      -20226.17851917 eV

  Derived energy quantities:
  | Kinetic energy                :         735.14185921 Ha       20004.22779293 eV
  | Electrostatic energy          :       -1379.62559982 Ha      -37541.52266265 eV
  | Energy correction for multipole
  | error in Hartree potential    :           0.00000000 Ha           0.00000000 eV
  | Sum of eigenvalues per atom                           :        -372.35046676 eV
  | Total energy (T->0) per atom                          :        -632.06807872 eV  <-- do not rely on this value for anything but (periodic) metals
  | Electronic free energy per atom                       :        -632.06807872 eV
  Initialize hartree_potential_storage
  Max. number of atoms included in rho_multipole:           32

  End scf initialization - timings             :  max(cpu_time)    wall_clock(cpu1)
  | Time for scf. initialization               :        1.808 s           1.806 s
  | Boundary condition initialization          :        0.000 s           0.000 s
  | Integration                                :        1.092 s           1.088 s
  | Solution of K.-S. eqns.                    :        0.076 s           0.075 s
  | Grid partitioning                          :        0.312 s           0.309 s
  | Preloading free-atom quantities on grid    :        0.028 s           0.028 s
  | Free-atom superposition energy             :        0.040 s           0.038 s
  | Total energy evaluation                    :        0.004 s           0.000 s
------------------------------------------------------------

------------------------------------------------------------
          Begin self-consistency iteration #    1

  Date     :  20170309, Time     :  162413.299
------------------------------------------------------------
  Evaluating new KS density.
  Integration grid: deviation in total charge (<rho> - N_e) =   5.684342E-14
  Pulay mixing of updated and previous charge densities.

  Evaluating partitioned Hartree potential by multipole expansion.
  | Analytical far-field extrapolation by fixed multipoles:
  | Hartree multipole sum: apparent total charge =  -0.744929E-04
  Summing up the Hartree potential.
  Time summed over all CPUs for potential: real work        9.547 s, elapsed        9.743 s
  | RMS charge density error from multipole expansion :   0.105430E-01

  Integrating Hamiltonian matrix: batch-based integration.
  Time summed over all CPUs for integration: real work       20.300 s, elapsed       21.515 s

  Updating Kohn-Sham eigenvalues, eigenvectors, occupation numbers, and Fermi level.
  Solving generalized eigenproblem
  Solving real symmetric generalised eigenvalue problem by standard ScaLAPACK.
  Using Cholesky factor for transformation
  Using 2-stage real ELPA solver
  K-Point:    1, Trafo times: 1-stage=     0.021 s, 2-stage=     0.020 s ==> Using 2-stage solver
  Determining occupation numbers for Kohn-Sham eigenstates.
  | Chemical potential (Fermi level) in eV                 : -.38891193E+01
  | Error in electron count due to remaining E_F inaccuracy: 0.00000000E+00
  | Maximum occupation number of highest empty state:  0.00E+00

  Writing Kohn-Sham eigenvalues.

  State    Occupation    Eigenvalue [Ha]    Eigenvalue [eV]
      1       2.00000         -18.626654         -506.85705
      2       2.00000         -18.625676         -506.83043
      3       2.00000         -18.600638         -506.14912
      4       2.00000         -13.997053         -380.87920
      5       2.00000         -13.981366         -380.45234
      6       2.00000         -13.977750         -380.35393
      7       2.00000         -10.057943         -273.69055
      8       2.00000         -10.050643         -273.49192
      9       2.00000         -10.038711         -273.16721
     10       2.00000          -9.959947         -271.02394
     11       2.00000          -9.945828         -270.63975
     12       2.00000          -9.884358         -268.96707
     13       2.00000          -9.853575         -268.12942
     14       2.00000          -9.834301         -267.60495
     15       2.00000          -9.821270         -267.25035
     16       2.00000          -0.968343          -26.34994
     17       2.00000          -0.957379          -26.05160
     18       2.00000          -0.946010          -25.74224
     19       2.00000          -0.870640          -23.69132
     20       2.00000          -0.858618          -23.36419
     21       2.00000          -0.846884          -23.04490
     22       2.00000          -0.744909          -20.27000
     23       2.00000          -0.714791          -19.45044
     24       2.00000          -0.689443          -18.76071
     25       2.00000          -0.663852          -18.06434
     26       2.00000          -0.628418          -17.10012
     27       2.00000          -0.608034          -16.54545
     28       2.00000          -0.571954          -15.56366
     29       2.00000          -0.554528          -15.08948
     30       2.00000          -0.537354          -14.62213
     31       2.00000          -0.506622          -13.78589
     32       2.00000          -0.474202          -12.90369
     33       2.00000          -0.469607          -12.77867
     34       2.00000          -0.458255          -12.46975
     35       2.00000          -0.452471          -12.31235
     36       2.00000          -0.445100          -12.11178
     37       2.00000          -0.431685          -11.74674
     38       2.00000          -0.422095          -11.48578
     39       2.00000          -0.401310          -10.92020
     40       2.00000          -0.394820          -10.74361
     41       2.00000          -0.384720          -10.46876
     42       2.00000          -0.380083          -10.34259
     43       2.00000          -0.374203          -10.18259
     44       2.00000          -0.370685          -10.08685
     45       2.00000          -0.369583          -10.05686
     46       2.00000          -0.364072           -9.90690
     47       2.00000          -0.358030           -9.74248
     48       2.00000          -0.352329           -9.58735
     49       2.00000          -0.345228           -9.39412
     50       2.00000          -0.342493           -9.31971
     51       2.00000          -0.335385           -9.12629
     52       2.00000          -0.329501           -8.96617
     53       2.00000          -0.250983           -6.82961
     54       2.00000          -0.235130           -6.39822
     55       2.00000          -0.219224           -5.96538
     56       2.00000          -0.218915           -5.95698
     57       2.00000          -0.211179           -5.74648
     58       2.00000          -0.197594           -5.37681
     59       0.00000          -0.054148           -1.47344
     60       0.00000          -0.045404           -1.23551
     61       0.00000          -0.035037           -0.95340
     62       0.00000          -0.027529           -0.74910
     63       0.00000          -0.020717           -0.56373
     64       0.00000          -0.008096           -0.22031
     65       0.00000          -0.003323           -0.09042
     66       0.00000           0.000341            0.00928
     67       0.00000           0.012080            0.32872
     68       0.00000           0.017981            0.48928
     69       0.00000           0.026032            0.70836
     70       0.00000           0.032131            0.87433
     71       0.00000           0.034508            0.93901
     72       0.00000           0.040461            1.10099
     73       0.00000           0.043214            1.17590
     74       0.00000           0.046347            1.26118
     75       0.00000           0.057804            1.57293
     76       0.00000           0.061660            1.67785
     77       0.00000           0.074470            2.02643
     78       0.00000           0.077448            2.10747
     79       0.00000           0.082690            2.25012
     80       0.00000           0.088763            2.41537
     81       0.00000           0.101644            2.76588
     82       0.00000           0.102274            2.78302
     83       0.00000           0.106231            2.89070
     84       0.00000           0.109780            2.98728
     85       0.00000           0.115281            3.13696
     86       0.00000           0.119118            3.24135
     87       0.00000           0.123211            3.35273
     88       0.00000           0.126396            3.43940
     89       0.00000           0.132540            3.60660
     90       0.00000           0.137772            3.74898
     91       0.00000           0.140887            3.83373
     92       0.00000           0.146607            3.98937
     93       0.00000           0.158555            4.31450
     94       0.00000           0.162259            4.41529
     95       0.00000           0.166364            4.52701
     96       0.00000           0.174951            4.76066
     97       0.00000           0.178815            4.86579
     98       0.00000           0.181613            4.94193
     99       0.00000           0.185095            5.03670
    100       0.00000           0.191163            5.20182
    101       0.00000           0.193021            5.25238
    102       0.00000           0.198068            5.38972
    103       0.00000           0.204439            5.56308
    104       0.00000           0.206652            5.62330
    105       0.00000           0.209494            5.70063
    106       0.00000           0.211804            5.76347
    107       0.00000           0.217812            5.92697
    108       0.00000           0.221045            6.01494
    109       0.00000           0.225876            6.14641
    110       0.00000           0.233575            6.35590
    111       0.00000           0.237797            6.47079
    112       0.00000           0.243574            6.62799
    113       0.00000           0.249776            6.79676
    114       0.00000           0.251078            6.83218
    115       0.00000           0.256309            6.97453
    116       0.00000           0.265222            7.21705
    117       0.00000           0.273180            7.43361
    118       0.00000           0.275640            7.50056
    119       0.00000           0.276708            7.52962
    120       0.00000           0.284457            7.74048
    121       0.00000           0.285632            7.77244
    122       0.00000           0.292305            7.95403
    123       0.00000           0.299375            8.14642
    124       0.00000           0.307095            8.35647
    125       0.00000           0.313968            8.54351
    126       0.00000           0.319323            8.68922
    127       0.00000           0.325861            8.86712
    128       0.00000           0.333095            9.06398
    129       0.00000           0.342217            9.31220

  Highest occupied state (VBM) at     -5.37680883 eV
  | Occupation number:      2.00000000

  Lowest unoccupied state (CBM) at    -1.47344354 eV
  | Occupation number:      0.00000000

  Overall HOMO-LUMO gap:      3.90336529 eV.

  Total energy components:
  | Sum of eigenvalues            :        -417.02474923 Ha      -11347.82079740 eV
  | XC energy correction          :        -100.75328421 Ha       -2741.63635628 eV
  | XC potential correction       :         129.52811615 Ha        3524.63937209 eV
  | Free-atom electrostatic energy:        -333.62083723 Ha       -9078.28487917 eV
  | Hartree energy correction     :         -20.85382185 Ha        -567.46136456 eV
  | MBD@rsSCS energy              :           0.00000000 Ha           0.00000000 eV
  | Entropy correction            :           0.00000000 Ha           0.00000000 eV
  | ---------------------------
  | Total energy                  :        -742.72457637 Ha      -20210.56402531 eV
  | Total energy, T -> 0          :        -742.72457637 Ha      -20210.56402531 eV  <-- do not rely on this value for anything but (periodic) metals
  | Electronic free energy        :        -742.72457637 Ha      -20210.56402531 eV

  Derived energy quantities:
  | Kinetic energy                :         744.03358195 Ha       20246.18387932 eV
  | Electrostatic energy          :       -1386.00487411 Ha      -37715.11154835 eV
  | Energy correction for multipole
  | error in Hartree potential    :          -0.04085238 Ha          -1.11164992 eV
  | Sum of eigenvalues per atom                           :        -354.61939992 eV
  | Total energy (T->0) per atom                          :        -631.58012579 eV  <-- do not rely on this value for anything but (periodic) metals
  | Electronic free energy per atom                       :        -631.58012579 eV

  Self-consistency convergence accuracy:
  | Change of charge density      :  0.9013E+00
  | Change of sum of eigenvalues  :  0.5674E+03 eV
  | Change of total energy        :  0.1561E+02 eV

  End self-consistency iteration #     1       :  max(cpu_time)    wall_clock(cpu1)
  | Time for this iteration                    :        1.504 s           1.503 s
[...]
   Multipole                     : -0.547053E+00  0.232401E-01  0.999723E-01
   Pulay + GGA                   : -0.124559E+02  0.157137E+01  0.396751E+01
   MBD@rsSCS                     : -0.205306E-01 -0.301252E-02 -0.557066E-02
   ----------------------------------------------------------------
   Total forces(  20)            : -0.201339E-01 -0.107663E-01 -0.132680E-01
  atom #   21
   Hellmann-Feynman              : -0.326546E-01  0.104397E-01  0.167588E-01
   Ionic forces                  :  0.000000E+00  0.000000E+00  0.000000E+00
   Multipole                     :  0.153288E-01 -0.197282E-01  0.344796E-01
   Pulay + GGA                   :  0.185299E-01  0.501605E-02 -0.520008E-01
   MBD@rsSCS                     : -0.422265E-02 -0.366947E-02  0.577718E-02
   ----------------------------------------------------------------
   Total forces(  21)            : -0.301849E-02 -0.794191E-02  0.501479E-02
  atom #   22
   Hellmann-Feynman              :  0.202627E-01  0.114736E-01 -0.486405E-01
   Ionic forces                  :  0.000000E+00  0.000000E+00  0.000000E+00
   Multipole                     :  0.154326E-01 -0.159422E-01  0.125866E-01
   Pulay + GGA                   : -0.352574E-01  0.296218E-02  0.421013E-01
   MBD@rsSCS                     : -0.716776E-03  0.668432E-02  0.285016E-02
   ----------------------------------------------------------------
   Total forces(  22)            : -0.278862E-03  0.517788E-02  0.889756E-02
  atom #   23
   Hellmann-Feynman              :  0.472133E+00 -0.842783E+00 -0.507938E+00
   Ionic forces                  :  0.000000E+00  0.000000E+00  0.000000E+00
   Multipole                     : -0.166784E+00  0.216641E+00  0.158589E+00
   Pulay + GGA                   : -0.292258E+00  0.614608E+00  0.350069E+00
   MBD@rsSCS                     : -0.274680E-02  0.150923E-01 -0.405307E-02
   ----------------------------------------------------------------
   Total forces(  23)            :  0.103443E-01  0.355792E-02 -0.333266E-02
  atom #   24
   Hellmann-Feynman              : -0.278325E-02  0.560148E-01 -0.169001E-01
   Ionic forces                  :  0.000000E+00  0.000000E+00  0.000000E+00
   Multipole                     :  0.217561E-02 -0.157187E-01 -0.322391E-01
   Pulay + GGA                   : -0.107273E-02 -0.401815E-01  0.516737E-01
   MBD@rsSCS                     : -0.416163E-03  0.100896E-01  0.285062E-02
   ----------------------------------------------------------------
   Total forces(  24)            : -0.209653E-02  0.102042E-01  0.538515E-02
  atom #   25
   Hellmann-Feynman              : -0.122733E-01  0.422591E-01  0.493932E-01
   Ionic forces                  :  0.000000E+00  0.000000E+00  0.000000E+00
   Multipole                     : -0.211211E-01 -0.207580E-01  0.443320E-02
   Pulay + GGA                   :  0.349873E-01 -0.104324E-01 -0.475336E-01
   MBD@rsSCS                     : -0.301526E-02  0.126303E-01 -0.108471E-03
   ----------------------------------------------------------------
   Total forces(  25)            : -0.142228E-02  0.236991E-01  0.618428E-02
  atom #   26
   Hellmann-Feynman              :  0.115768E-01  0.475722E-01  0.333538E-01
   Ionic forces                  :  0.000000E+00  0.000000E+00  0.000000E+00
   Multipole                     :  0.325968E-01 -0.215621E-01  0.185555E-02
   Pulay + GGA                   : -0.455523E-01 -0.289534E-01 -0.317552E-01
   MBD@rsSCS                     : -0.410436E-02  0.123935E-01 -0.258618E-02
   ----------------------------------------------------------------
   Total forces(  26)            : -0.548306E-02  0.945026E-02  0.867967E-03
  atom #   27
   Hellmann-Feynman              :  0.128564E+01  0.112781E+00 -0.988296E+00
   Ionic forces                  :  0.000000E+00  0.000000E+00  0.000000E+00
   Multipole                     :  0.581322E-01 -0.586400E-01 -0.102530E+00
   Pulay + GGA                   : -0.133831E+01 -0.469760E-01  0.110438E+01
   MBD@rsSCS                     : -0.836669E-02 -0.985185E-02 -0.202985E-01
   ----------------------------------------------------------------
   Total forces(  27)            : -0.291074E-02 -0.268651E-02 -0.673949E-02
  atom #   28
   Hellmann-Feynman              : -0.214753E+01  0.485461E+00  0.715423E+00
   Ionic forces                  :  0.000000E+00  0.000000E+00  0.000000E+00
   Multipole                     :  0.114680E+00  0.123745E-02 -0.615886E-01
   Pulay + GGA                   :  0.202943E+01 -0.490178E+00 -0.641318E+00
   MBD@rsSCS                     : -0.549708E-02 -0.329331E-02 -0.238203E-01
   ----------------------------------------------------------------
   Total forces(  28)            : -0.891503E-02 -0.677334E-02 -0.113047E-01
  atom #   29
   Hellmann-Feynman              : -0.218123E-02 -0.379001E-01 -0.605954E-01
   Ionic forces                  :  0.000000E+00  0.000000E+00  0.000000E+00
   Multipole                     : -0.389458E-01  0.114121E-01  0.245313E-01
   Pulay + GGA                   :  0.448926E-01  0.317775E-01  0.423963E-01
   MBD@rsSCS                     : -0.685235E-02 -0.209018E-02 -0.288341E-02
   ----------------------------------------------------------------
   Total forces(  29)            : -0.308677E-02  0.319935E-02  0.344877E-02
  atom #   30
   Hellmann-Feynman              :  0.298759E-01 -0.290332E-01 -0.336103E-01
   Ionic forces                  :  0.000000E+00  0.000000E+00  0.000000E+00
   Multipole                     : -0.324710E-01 -0.223973E-01  0.203542E-02
   Pulay + GGA                   :  0.492649E-02  0.547811E-01  0.392572E-01
   MBD@rsSCS                     :  0.348043E-02 -0.234096E-02 -0.443557E-02
   ----------------------------------------------------------------
   Total forces(  30)            :  0.581179E-02  0.100969E-02  0.324676E-02
  atom #   31
   Hellmann-Feynman              :  0.357489E-01  0.156957E-01 -0.264011E-01
   Ionic forces                  :  0.000000E+00  0.000000E+00  0.000000E+00
   Multipole                     : -0.281810E-02  0.257332E-01 -0.157273E-01
   Pulay + GGA                   : -0.319116E-01 -0.403895E-01  0.473781E-01
   MBD@rsSCS                     :  0.390221E-02 -0.336950E-02 -0.800990E-02
   ----------------------------------------------------------------
   Total forces(  31)            :  0.492140E-02 -0.233007E-02 -0.276034E-02
  atom #   32
   Hellmann-Feynman              :  0.307693E-01  0.115032E-01 -0.151067E-01
   Ionic forces                  :  0.000000E+00  0.000000E+00  0.000000E+00
   Multipole                     :  0.351385E-02 -0.139478E-01  0.368773E-01
   Pulay + GGA                   : -0.309406E-01 -0.223197E-02 -0.305075E-01
   MBD@rsSCS                     :  0.760708E-02 -0.677416E-02 -0.122763E-01
   ----------------------------------------------------------------
   Total forces(  32)            :  0.109496E-01 -0.114508E-01 -0.210132E-01

  Removing unitary transformations (pure translations, rotations) from forces on atoms.
  Atomic forces before filtering:
  | Net force on center of mass :  -0.344551E-03 -0.145756E-03 -0.397913E-03 eV/A
  | Net torque on center of mass:  -0.105700E-02 -0.287420E-03 -0.217678E-02 eV
  Atomic forces after filtering:
  | Net force on center of mass :  -0.139380E-17  0.557519E-17  0.306636E-16 eV/A
  | Net torque on center of mass:  -0.236021E-16  0.000000E+00 -0.427788E-16 eV

  Energy and forces in a compact form:
  | Total energy uncorrected      :         -0.202092435683431E+05 eV
  | Total energy corrected        :         -0.202092435683431E+05 eV  <-- do not rely on this value for anything but (periodic) metals
  | Electronic free energy        :         -0.202092435683431E+05 eV
  Total atomic forces (unitary forces cleaned) [eV/Ang]:
  |   1         -0.527418668479074E-02         -0.208354093114252E-02         -0.310654026522384E-02
  |   2          0.130535579421951E-01          0.128450098139105E-01          0.338861202418702E-01
  |   3         -0.166349082638293E-01          0.823885944932509E-02          0.114643089000579E-01
  |   4         -0.264567758534381E-02          0.154724992996960E-01          0.690671796388581E-02
  |   5          0.213596000799114E-02          0.204471813660989E-02          0.310687583499056E-02
  |   6          0.785421120974168E-04          0.510827152226545E-02          0.110886612052381E-01
  |   7          0.506249035961274E-02         -0.109837101186132E-01          0.602480257650262E-02
  |   8          0.659098021200955E-02         -0.604618997365867E-03          0.354123784069558E-03
  |   9         -0.353391845121160E-02         -0.373193010475119E-02         -0.394197676471709E-02
  |  10          0.387631581379520E-02          0.120276245215637E-01         -0.130207762583420E-01
  |  11          0.116149972120354E-02          0.530441326462685E-02         -0.198186483744852E-03
  |  12         -0.136184299797061E-03         -0.596318130417623E-02         -0.134961077659697E-02
  |  13         -0.794063200019700E-02         -0.403624084335919E-02          0.136667608363947E-02
  |  14          0.166276177347464E-01         -0.217505321844480E-01          0.166989461485644E-02
  |  15          0.750720583141254E-02         -0.119367499769619E-01         -0.233271724930665E-02
  |  16          0.915022106499548E-02         -0.150795628403795E-01          0.469409939643504E-02
  |  17          0.174764096509361E-02         -0.623707189642592E-02         -0.369858891965500E-01
  |  18         -0.774343683057957E-02          0.129821314469191E-01          0.181793701464432E-01
  |  19         -0.807523618325547E-02         -0.605974553816484E-02         -0.125282058781425E-01
  |  20         -0.201135348171729E-01         -0.107184552933168E-01         -0.132610942096796E-01
  |  21         -0.300560056104549E-02         -0.791362128478884E-02          0.502540958097558E-02
  |  22         -0.248223144394673E-03          0.516654111587998E-02          0.890313424547274E-02
  |  23          0.103984024309120E-01          0.357772430181760E-02         -0.333730861136578E-02
  |  24         -0.202997748849111E-02          0.102214792440064E-01          0.537588423826446E-02
  |  25         -0.136944044554247E-02          0.237395205194866E-01          0.617923031732641E-02
  |  26         -0.542153274675097E-02          0.945971867862440E-02          0.860940989832832E-03
  |  27         -0.290458905047009E-02         -0.267591153863679E-02         -0.672555815072904E-02
  |  28         -0.891257028864010E-02         -0.679044283322578E-02         -0.112881849478502E-01
  |  29         -0.308703397183205E-02          0.322116184262994E-02          0.346465162413536E-02
  |  30          0.579768100701699E-02          0.989225892160262E-03          0.326969434734069E-02
  |  31          0.493884731272224E-02         -0.235723673112730E-02         -0.274908593162123E-02
  |  32          0.109497202975404E-01         -0.114763466326380E-01         -0.209954613674672E-01

  ------------------------------------ 
  Start decomposition of the XC Energy 
  ------------------------------------ 
  Hartree-Fock part   :          0.000000000 Ha              0.000000000 eV
  ------------------------------------ 
  X Energy            :        -96.991449540 Ha          -2639.271626651 eV
  C Energy GGA        :         -3.869139361 Ha           -105.284638847 eV
  Total XC Energy     :       -100.860588902 Ha          -2744.556265498 eV
  LDA X and C from self-consistent density 
  X Energy LDA        :        -88.008415187 Ha          -2394.830824883 eV
  C Energy LDA        :         -7.532319692 Ha           -204.964847329 eV
  ------------------------------------ 
  End decomposition of the XC Energy 
  ------------------------------------ 
   
  ESP charge fitting starts.
  | Calculation :  00000001  of  00000001
  | Full density
  Computing multipole expansion for total density.
  Generating points for esp charges.
  Partitioning the integration grid into batches with parallel hashing+maxmin method.
  | Number of batches:     3863
  | Maximal batch size:     200
  | Minimal batch size:      54
  | Average batch size:     126.265
  | Standard deviation of batch sizes:      19.057

  Integration load balanced across    32 MPI tasks.
  Work distribution over tasks is as follows:
  Initializing partition tables, free-atom densities, potentials, etc. across the integration grid (initialize_grid_storage).
  | Original list of interatomic distances with          32 x         32 entries is created.
  | Net number of integration points:   487761
  | of which are non-zero points    :   487761
  Summing up potential from multipole expanded  density.
  Summing up the Hartree potential.
  Time summed over all CPUs for potential: real work        6.310 s, elapsed        6.512 s
  Fitting esp charges to potential.
  |
  | ESP charges fitted to the electrostatic potential :
  |
  | Atom         1: C, ESP charge:      0.42373984
  |
  | Atom         2: C, ESP charge:     -0.75601442
  |
  | Atom         3: O, ESP charge:      0.62232305
  |
  | Atom         4: H, ESP charge:     -0.10724032
  |
  | Atom         5: H, ESP charge:     -0.13368712
  |
  | Atom         6: H, ESP charge:     -0.10675408
  |
  | Atom         7: N, ESP charge:      0.57088673
  |
  | Atom         8: C, ESP charge:     -0.11515361
  |
  | Atom         9: C, ESP charge:     -0.66322597
  |
  | Atom        10: O, ESP charge:      0.53881543
  |
  | Atom        11: H, ESP charge:     -0.31661863
  |
  | Atom        12: H, ESP charge:     -0.11947822
  |
  | Atom        13: C, ESP charge:      0.58124004
  |
  | Atom        14: H, ESP charge:     -0.16983733
  |
  | Atom        15: H, ESP charge:     -0.16289826
  |
  | Atom        16: H, ESP charge:     -0.16990772
  |
  | Atom        17: N, ESP charge:      0.89241735
  |
  | Atom        18: C, ESP charge:     -0.71376576
  |
  | Atom        19: C, ESP charge:     -0.12396339
  |
  | Atom        20: O, ESP charge:      0.47317481
  |
  | Atom        21: H, ESP charge:     -0.46732365
  |
  | Atom        22: H, ESP charge:      0.03746684
  |
  | Atom        23: C, ESP charge:      0.48144824
  |
  | Atom        24: H, ESP charge:     -0.12341574
  |
  | Atom        25: H, ESP charge:     -0.14197088
  |
  | Atom        26: H, ESP charge:     -0.08935733
  |
  | Atom        27: N, ESP charge:      0.20609460
  |
  | Atom        28: C, ESP charge:      0.28175096
  |
  | Atom        29: H, ESP charge:     -0.27736486
  |
  | Atom        30: H, ESP charge:     -0.12341999
  |
  | Atom        31: H, ESP charge:     -0.09333979
  |
  | Atom        32: H, ESP charge:     -0.13462081

  RRMS:       0.00481656

  Done.

------------------------------------------------------------------------------
  Final output of selected total energy values:

  The following output summarizes some interesting total energy values
  at the end of a run (AFTER all relaxation, molecular dynamics, etc.).

  | Total energy of the DFT / Hartree-Fock s.c.f. calculation      :         -20209.243568343 eV
  | Final zero-broadening corrected energy (caution - metals only) :         -20209.243568343 eV
  | For reference only, the value of 1 Hartree used in FHI-aims is :             27.211384500 eV

  Before relying on these values, please be sure to understand exactly which
  total energy value is referred to by a given number. Different objects may
  all carry the same name 'total energy'. Definitions:

  Total energy of the DFT / Hartree-Fock s.c.f. calculation:
  | Note that this energy does not include ANY quantities calculated after the
  | s.c.f. cycle, in particular not ANY RPA, MP2, etc. many-body perturbation terms.

  Final zero-broadening corrected energy:
  | For metallic systems only, a broadening of the occupation numbers at the Fermi
  | level can be extrapolated back to zero broadening by an electron-gas inspired
  | formula. For all systems that are not real metals, this value can be
  | meaningless and should be avoided.

------------------------------------------------------------------------------
  Methods described in the following list of references were used in this FHI-aims run.
  If you publish the results, please make sure to cite these reference if they apply.
  FHI-aims is an academic code, and for our developers (often, Ph.D. students
  and postdocs), scientific credit in the community is essential.
  Thank you for helping us!

  For any use of FHI-aims, please cite:

    Volker Blum, Ralf Gehrke, Felix Hanke, Paula Havu, Ville Havu,
    Xinguo Ren, Karsten Reuter, and Matthias Scheffler
    'Ab initio molecular simulations with numeric atom-centered orbitals'
    Computer Physics Communications 180, 2175-2196 (2009)
    http://dx.doi.org/10.1016/j.cpc.2009.06.022


  The scalable eigensolver library ELPA was used in your run.
  ELPA is essential especially for large systems on hundreds or thousands of CPUs.
  For ELPA, please cite:

    Andreas Marek, Volker Blum, Rainer Johanni, Ville Havu, Bruno Lang,
    Thomas Auckenthaler, Alexander Heinecke, Hans-Joachim Bungartz, and Hermann Lederer,
    'The ELPA Library - Scalable Parallel Eigenvalue Solutions
    for Electronic Structure Theory and Computational Science'
    The Journal of Physics: Condensed Matter 26, 213201 (2014).
    http://dx.doi.org/10.1088/0953-8984/26/21/213201


  For ELPA's efficient two-stage tridiagonalization used in your run, please cite:

    T. Auckenthaler, V. Blum, H.-J. Bungartz, T. Huckle, R. Johanni, L. Kraemer,
    B. Lang, H. Lederer, and P. R. Willems,
    'Parallel solution of partial symmetric eigenvalue problems'
    'from  electronic structure calculations'
    Parallel Computing 37, 783-794 (2011).
    http://dx.doi.org/10.1016/j.parco.2011.05.002


  For the real-space grid partitioning and parallelization used in this calculation, please cite:

    Ville Havu, Volker Blum, Paula Havu, and Matthias Scheffler,
    'Efficient O(N) integration for all-electron electronic structure calculation'
    'using numerically tabulated basis functions'
    Journal of Computational Physics 228, 8367-8379 (2009).
    http://dx.doi.org/10.1016/j.jcp.2009.08.008

  Of course, there are many other important community references, e.g., those cited in the
  above references. Our list is limited to references that describe implementations in the
  FHI-aims code. The reason is purely practical (length of this list) - please credit others as well.

------------------------------------------------------------
          Leaving FHI-aims.
          Date     :  20170309, Time     :  162443.618

          Computational steps:
          | Number of self-consistency cycles          :           14

          Detailed time accounting                     :  max(cpu_time)    wall_clock(cpu1)
          | Total time                                 :       33.002 s          33.170 s
          | Preparation time                           :        0.236 s           0.235 s
          | Grid partitioning                          :        0.312 s           0.309 s
          | Preloading free-atom quantities on grid    :        0.028 s           0.028 s
          | Free-atom superposition energy             :        0.040 s           0.038 s
          | Total time for integrations                :       10.705 s          10.681 s
          | Total time for solution of K.-S. equations :        0.532 s           0.500 s
          | Total time for density & force components  :        9.689 s           9.658 s
          | Total time for mixing                      :        0.120 s           0.108 s
          | Total time for Hartree multipole update    :        0.076 s           0.058 s
          | Total time for Hartree multipole sum       :        6.412 s           6.392 s
          | Total time for total energy evaluation     :        0.024 s           0.021 s

          Have a nice day.
------------------------------------------------------------
