  MPI-parallelism will be employed.
------------------------------------------------------------
          Invoking FHI-aims ...
          Version 150427
          Git rev.: 9dd23e0 BL: Update Version stamp
          Compiled on 2015/11/03 at 22:05:20 on host eos03.

          When using FHI-aims, please cite the following reference:

          Volker Blum, Ralf Gehrke, Felix Hanke, Paula Havu,
          Ville Havu, Xinguo Ren, Karsten Reuter, and Matthias Scheffler,
          'Ab Initio Molecular Simulations with Numeric Atom-Centered Orbitals: FHI-aims',
          Computer Physics Communications 180, 2175-2196 (2009)

          For any questions about FHI-aims, please visit the aimsclub website
          with its forums and wiki. Contributions to both the forums and the
          wiki are warmly encouraged - they are for you, and everyone is welcome there.

------------------------------------------------------------

  Date     :  20170309, Time     :  180610.277
  Time zero on CPU 1             :   0.304018000000000E+00  s.
  Internal wall clock time zero  :           258314770.277  s.

  Using       32 parallel tasks.
  Task        0 on host eos399 reporting.
  Task        1 on host eos399 reporting.
  Task        2 on host eos399 reporting.
  Task        3 on host eos399 reporting.
  Task        4 on host eos399 reporting.
  Task        5 on host eos399 reporting.
  Task        6 on host eos399 reporting.
  Task        7 on host eos399 reporting.
  Task        8 on host eos399 reporting.
  Task        9 on host eos399 reporting.
  Task       10 on host eos399 reporting.
  Task       11 on host eos399 reporting.
  Task       12 on host eos399 reporting.
  Task       13 on host eos399 reporting.
  Task       14 on host eos399 reporting.
  Task       15 on host eos399 reporting.
  Task       16 on host eos399 reporting.
  Task       17 on host eos399 reporting.
  Task       18 on host eos399 reporting.
  Task       19 on host eos399 reporting.
  Task       20 on host eos399 reporting.
  Task       21 on host eos399 reporting.
  Task       22 on host eos399 reporting.
  Task       23 on host eos399 reporting.
  Task       24 on host eos399 reporting.
  Task       25 on host eos399 reporting.
  Task       26 on host eos399 reporting.
  Task       27 on host eos399 reporting.
  Task       28 on host eos399 reporting.
  Task       29 on host eos399 reporting.
  Task       30 on host eos399 reporting.
  Task       31 on host eos399 reporting.

  Performing system and environment tests:
  | Environment variable OMP_NUM_THREADS correctly set to 1.
  | Stacksize not measured: no C compiler
  | Checking for scalapack...
  | Testing pdtran()...
  | All pdtran() tests passed.

  Obtaining array dimensions for all initial allocations:
  
  -----------------------------------------------------------------------
  Parsing control.in (first pass over file, find array dimensions only).
  The contents of control.in will be repeated verbatim below
  unless switched off by setting 'verbatim_writeout .false.' .
  in the first line of control.in .
  -----------------------------------------------------------------------
  
  #########################################################################################
  #
  # Input for System
  #
  #########################################################################################
  #
  #
  #  Physical model
  #
    xc                 pbe
    many_body_dispersion
    spin               none
    charge             0.
  #
  #  SCF convergence
  #
    occupation_type    gaussian 0.05
    mixer              pulay
      n_max_pulay        10
      charge_mix_param   0.5
    sc_accuracy_rho    1E-4
    sc_accuracy_eev    1E-2
    sc_accuracy_etot   1E-5
    sc_accuracy_forces 1E-4
    sc_iter_limit      1000
  #
  #  ESP charge
  #
    output esp
    esp equal_grid_n 80 80 80
  #
  #
  ################################################################################
  #
  #  FHI-aims code project
  # Volker Blum, Fritz Haber Institute Berlin, 2009
  #
  #  Suggested "tight" defaults for H atom (to be pasted into control.in file)
  #
  ################################################################################
    species        H
  #     global species definitions
      nucleus             1
      mass                1.00794
  #
      l_hartree           6
  #
      cut_pot             4.0  2.0  1.0
      basis_dep_cutoff    1e-4
  #
      radial_base         24 7.0
      radial_multiplier   2
      angular_grids       specified
        division   0.1930   50
        division   0.3175  110
        division   0.4293  194
        division   0.5066  302
        division   0.5626  434
  #      division   0.5922  590
  #      division   0.6227  974
  #      division   0.6868 1202
  #      outer_grid  770
        outer_grid  434
  ################################################################################
  #
  #  Definition of "minimal" basis
  #
  ################################################################################
  #     valence basis states
      valence      1  s   1.
  #     ion occupancy
      ion_occ      1  s   0.5
  ################################################################################
  #
  #  Suggested additional basis functions. For production calculations,
  #  uncomment them one after another (the most important basis functions are
  #  listed first).
  #
  #  Basis constructed for dimers: 0.5 A, 0.7 A, 1.0 A, 1.5 A, 2.5 A
  #
  ################################################################################
  #  "First tier" - improvements: -1014.90 meV to -62.69 meV
       hydro 2 s 2.1
       hydro 2 p 3.5
  #  "Second tier" - improvements: -12.89 meV to -1.83 meV
       hydro 1 s 0.85
       hydro 2 p 3.7
       hydro 2 s 1.2
       hydro 3 d 7
  #  "Third tier" - improvements: -0.25 meV to -0.12 meV
  #     hydro 4 f 11.2
  #     hydro 3 p 4.8
  #     hydro 4 d 9
  #     hydro 3 s 3.2
  ################################################################################
  #
  # For methods that use the localized form of the "resolution of identity" for
  # the two-electron Coulomb operator (RI_method LVL), particularly Hartree-Fock and
  # hybrid density functional calculations, the highest accuracy can be obtained by
  # uncommenting the line beginning with "for_aux"  below, thus adding an extra g radial
  # function to the construction of the product basis set for the expansion.
  # See Ref. New J. Phys. 17, 093020 (2015) for more information, particularly Figs. 1 and 6.
  #
  ################################################################################
  #
  # for_aux hydro 5 g 6.0
  ################################################################################
  #
  #  FHI-aims code project
  # Volker Blum, Fritz Haber Institute Berlin, 2009
  #
  #  Suggested "tight" defaults for C atom (to be pasted into control.in file)
  #
  ################################################################################
    species        C
  #     global species definitions
      nucleus             6
      mass                12.0107
  #
      l_hartree           6
  #
      cut_pot             4.0  2.0  1.0
      basis_dep_cutoff    1e-4
  #
      radial_base         34 7.0
      radial_multiplier   2
      angular_grids specified
        division   0.2187   50
        division   0.4416  110
        division   0.6335  194
        division   0.7727  302
        division   0.8772  434
  #      division   0.9334  590
  #      division   0.9924  770
  #      division   1.0230  974
  #      division   1.5020 1202
  #     outer_grid  974
        outer_grid  434
  ################################################################################
  #
  #  Definition of "minimal" basis
  #
  ################################################################################
  #     valence basis states
      valence      2  s   2.
      valence      2  p   2.
  #     ion occupancy
      ion_occ      2  s   1.
      ion_occ      2  p   1.
  ################################################################################
  #
  #  Suggested additional basis functions. For production calculations,
  #  uncomment them one after another (the most important basis functions are
  #  listed first).
  #
  #  Constructed for dimers: 1.0 A, 1.25 A, 1.5 A, 2.0 A, 3.0 A
  #
  ################################################################################
  #  "First tier" - improvements: -1214.57 meV to -155.61 meV
       hydro 2 p 1.7
       hydro 3 d 6
       hydro 2 s 4.9
  #  "Second tier" - improvements: -67.75 meV to -5.23 meV
       hydro 4 f 9.8
       hydro 3 p 5.2
       hydro 3 s 4.3
       hydro 5 g 14.4
       hydro 3 d 6.2
  #  "Third tier" - improvements: -2.43 meV to -0.60 meV
  #     hydro 2 p 5.6
  #     hydro 2 s 1.4
  #     hydro 3 d 4.9
  #     hydro 4 f 11.2
  #  "Fourth tier" - improvements: -0.39 meV to -0.18 meV
  #     hydro 2 p 2.1
  #     hydro 5 g 16.4
  #     hydro 4 d 13.2
  #     hydro 3 s 13.6
  #     hydro 4 f 17.6
  #  Further basis functions - improvements: -0.08 meV and below
  #     hydro 3 s 2
  #     hydro 3 p 6
  #     hydro 4 d 20
  ################################################################################
  #
  # For methods that use the localized form of the "resolution of identity" for
  # the two-electron Coulomb operator (RI_method LVL), particularly Hartree-Fock and
  # hybrid density functional calculations, the highest accuracy can be obtained by
  # uncommenting the line beginning with "for_aux"  below, thus adding an extra g radial
  # function to the construction of the product basis set for the expansion.
  # See Ref. New J. Phys. 17, 093020 (2015) for more information, particularly Figs. 1 and 6.
  #
  ################################################################################
  #
  # for_aux hydro 5 g 6.0
  ################################################################################
  #
  #  FHI-aims code project
  # Volker Blum, Fritz Haber Institute Berlin, 2009
  #
  #  Suggested "tight" defaults for N atom (to be pasted into control.in file)
  #
  ################################################################################
    species        N
  #     global species definitions
      nucleus             7
      mass                14.0067
  #
      l_hartree           6
  #
      cut_pot             4.0  2.0  1.0
      basis_dep_cutoff    1e-4
  #
      radial_base         35 7.0
      radial_multiplier   2
      angular_grids       specified
        division   0.1841   50
        division   0.3514  110
        division   0.5126  194
        division   0.6292  302
        division   0.6939  434
  #      division   0.7396  590
  #      division   0.7632  770
  #      division   0.8122  974
  #      division   1.1604 1202
  #      outer_grid  974
        outer_grid  434
  ################################################################################
  #
  #  Definition of "minimal" basis
  #
  ################################################################################
  #     valence basis states
      valence      2  s   2.
      valence      2  p   3.
  #     ion occupancy
      ion_occ      2  s   1.
      ion_occ      2  p   2.
  ################################################################################
  #
  #  Suggested additional basis functions. For production calculations,
  #  uncomment them one after another (the most important basis functions are
  #  listed first).
  #
  #  Constructed for dimers: 1.0 A, 1.1 A, 1.5 A, 2.0 A, 3.0 A
  #
  ################################################################################
  #  "First tier" - improvements: -1193.42 meV to -220.60 meV
       hydro 2 p 1.8
       hydro 3 d 6.8
       hydro 3 s 5.8
  #  "Second tier" - improvements: -80.21 meV to -6.86 meV
       hydro 4 f 10.8
       hydro 3 p 5.8
       hydro 1 s 0.8
       hydro 5 g 16
       hydro 3 d 4.9
  #  "Third tier" - improvements: -4.29 meV to -0.53 meV
  #     hydro 3 s 16
  #     ionic 2 p auto
  #     hydro 3 d 6.6
  #     hydro 4 f 11.6
  #  "Fourth tier" - improvements: -0.75 meV to -0.25 meV
  #     hydro 2 p 4.5
  #     hydro 2 s 2.4
  #     hydro 5 g 14.4
  #     hydro 4 d 14.4
  #     hydro 4 f 16.8
  # Further basis functions - -0.21 meV and below
  #     hydro 3 p 14.8
  #     hydro 3 s 4.4
  #     hydro 3 d 19.6
  #     hydro 5 g 12.8
  ################################################################################
  #
  # For methods that use the localized form of the "resolution of identity" for
  # the two-electron Coulomb operator (RI_method LVL), particularly Hartree-Fock and
  # hybrid density functional calculations, the highest accuracy can be obtained by
  # uncommenting the line beginning with "for_aux"  below, thus adding an extra g radial
  # function to the construction of the product basis set for the expansion.
  # See Ref. New J. Phys. 17, 093020 (2015) for more information, particularly Figs. 1 and 6.
  #
  ################################################################################
  #
  # for_aux hydro 5 g 6.0
  ################################################################################
  #
  #  FHI-aims code project
  # Volker Blum, Fritz Haber Institute Berlin, 2009
  #
  #  Suggested "tight" defaults for O atom (to be pasted into control.in file)
  #
  ################################################################################
    species        O
  #     global species definitions
      nucleus             8
      mass                15.9994
  #
      l_hartree           6
  #
      cut_pot             4.0  2.0  1.0
      basis_dep_cutoff    1e-4
  #
      radial_base         36 7.0
      radial_multiplier   2
       angular_grids specified
        division   0.1817   50
        division   0.3417  110
        division   0.4949  194
        division   0.6251  302
        division   0.8014  434
  #      division   0.8507  590
  #      division   0.8762  770
  #      division   0.9023  974
  #      division   1.2339 1202
  #      outer_grid 974
        outer_grid  434
  ################################################################################
  #
  #  Definition of "minimal" basis
  #
  ################################################################################
  #     valence basis states
      valence      2  s   2.
      valence      2  p   4.
  #     ion occupancy
      ion_occ      2  s   1.
      ion_occ      2  p   3.
  ################################################################################
  #
  #  Suggested additional basis functions. For production calculations,
  #  uncomment them one after another (the most important basis functions are
  #  listed first).
  #
  #  Constructed for dimers: 1.0 A, 1.208 A, 1.5 A, 2.0 A, 3.0 A
  #
  ################################################################################
  #  "First tier" - improvements: -699.05 meV to -159.38 meV
       hydro 2 p 1.8
       hydro 3 d 7.6
       hydro 3 s 6.4
  #  "Second tier" - improvements: -49.91 meV to -5.39 meV
       hydro 4 f 11.6
       hydro 3 p 6.2
       hydro 3 d 5.6
       hydro 5 g 17.6
       hydro 1 s 0.75
  #  "Third tier" - improvements: -2.83 meV to -0.50 meV
  #     ionic 2 p auto
  #     hydro 4 f 10.8
  #     hydro 4 d 4.7
  #     hydro 2 s 6.8
  #  "Fourth tier" - improvements: -0.40 meV to -0.12 meV
  #     hydro 3 p 5
  #     hydro 3 s 3.3
  #     hydro 5 g 15.6
  #     hydro 4 f 17.6
  #     hydro 4 d 14
  # Further basis functions - -0.08 meV and below
  #     hydro 3 s 2.1
  #     hydro 4 d 11.6
  #     hydro 3 p 16
  #     hydro 2 s 17.2
  ################################################################################
  #
  # For methods that use the localized form of the "resolution of identity" for
  # the two-electron Coulomb operator (RI_method LVL), particularly Hartree-Fock and
  # hybrid density functional calculations, the highest accuracy can be obtained by
  # uncommenting the line beginning with "for_aux"  below, thus adding an extra g radial
  # function to the construction of the product basis set for the expansion.
  # See Ref. New J. Phys. 17, 093020 (2015) for more information, particularly Figs. 1 and 6.
  #
  ################################################################################
  #
  # for_aux hydro 5 g 6.0
  
  -----------------------------------------------------------------------
  Completed first pass over input file control.in .
  -----------------------------------------------------------------------
  
  
  -----------------------------------------------------------------------
  Parsing geometry.in (first pass over file, find array dimensions only).
  The contents of geometry.in will be repeated verbatim below
  unless switched off by setting 'verbatim_writeout .false.' .
  in the first line of geometry.in .
  -----------------------------------------------------------------------
  
  #
  # This is the geometry file that corresponds to the current relaxation step.
  # If you do not want this file to be written, set the "write_restart_geometry" flag to .false.
  #
  atom       0.10750772      0.01538640      0.17373896 C
  atom       0.04533656      0.00446642      1.69062570 C
  atom       1.03722943      0.17722378      2.39021803 O
  atom       1.08540286     -0.35728248     -0.14687708 H
  atom       0.00962310      1.05667248     -0.16491745 H
  atom      -0.68615164     -0.57810840     -0.29836253 H
  atom      -1.21244656     -0.23015048      2.20784907 N
  atom      -1.56003550      0.07516778      3.58933812 C
  atom      -1.60841183      1.62108030      3.77269383 C
  atom      -1.42379460      2.37242387      2.82224699 O
  atom      -1.97400305     -0.12413087      1.54628219 H
  atom      -2.60109017     -0.26357917      3.71120182 H
  atom      -0.68396109     -0.69762572      4.59154755 C
  atom       0.26821452     -0.19248387      4.77721885 H
  atom      -0.46174734     -1.68827082      4.17783546 H
  atom      -1.21204303     -0.85434687      5.53919620 H
  atom      -1.89544184      2.15092663      5.00998265 N
  atom      -2.37571259      1.53076654      6.23247416 C
  atom      -3.66978635      0.71048507      6.01177854 C
  atom      -4.46864616      0.98244039      5.12058756 O
  atom      -2.03186768      3.15631501      4.94224052 H
  atom      -1.59332247      0.87701482      6.64398472 H
  atom      -2.66327819      2.63813873      7.25583102 C
  atom      -2.99378800      2.21986706      8.21397113 H
  atom      -3.45774653      3.29949550      6.88372894 H
  atom      -1.75809681      3.23211822      7.43709826 H
  atom      -3.88948939     -0.32879741      6.87489518 N
  atom      -3.07358808     -0.77584047      7.99290224 C
  atom      -4.77958314     -0.79201737      6.72001270 H
  atom      -3.51408620     -1.69445883      8.39453432 H
  atom      -3.03042007     -0.04010281      8.81025458 H
  atom      -2.04568484     -1.01311942      7.68357176 H
  
  -----------------------------------------------------------------------
  Completed first pass over input file geometry.in .
  -----------------------------------------------------------------------
  

  Basic array size parameters:
  | Number of species                 :        4
  | Number of atoms                   :       32
  | Max. basis fn. angular momentum   :        4
  | Max. atomic/ionic basis occupied n:        2
  | Max. number of basis fn. types    :        2
  | Max. radial fns per species/type  :        8
  | Max. logarithmic grid size        :     1301
  | Max. radial integration grid size :       73
  | Max. angular integration grid size:      434
  | Max. angular grid division number :        8
  | Radial grid for Hartree potential :     1301
  | Number of spin channels           :        1

------------------------------------------------------------
          Reading file control.in.
------------------------------------------------------------
  XC: Using PBE gradient-corrected functionals.
  Self-consistent screening and van der Waals energy (TS, TS+SCS,MBD) module
  Spin treatment: No spin polarisation.
  Charge =   0.000000E+00: Neutral system requested explicitly.
  Occupation type: Gaussian broadening, width =   0.500000E-01 eV.
  Using pulay charge density mixing.
  Pulay mixing - number of memorized iterations:   10
  Charge density mixing - mixing parameter:     0.5000
  Convergence accuracy of self-consistent charge density:  0.1000E-03
  Convergence accuracy of sum of eigenvalues:  0.1000E-01
  Convergence accuracy of total energy:  0.1000E-04
  Convergence accuracy of forces:  0.1000E-03
  Maximum number of s.-c. iterations  :  1000
  Fitting ESP-charges to Potential. 
  | Esp charge output options: 
  | ESP Grid method: 3, cubic grid
  | Number of points in x, ,y, z:  0080 0080 0080
  |
 
  Reading configuration options for species H                   .
  | Found nuclear charge :   1.0000
  | Found atomic mass :    1.00794000000000      amu
  | Found l_max for Hartree potential  :   6
  | Found cutoff potl. onset [A], width [A], scale factor :    4.00000    2.00000    1.00000
  | Threshold for basis-dependent cutoff potential is   0.100000E-03
  | Found data for basic radial integration grid :    24 points, outermost radius =    7.000 A
  | Found multiplier for basic radial grid :   2
  | Found angular grid specification: user-specified.
  | Specified grid contains     6 separate shells.
  | Check grid settings after all constraints further below.
  | Found free-atom valence shell :  1 s   1.000
  | No ionic wave fns used. Skipping ion_occ.
  | Found hydrogenic basis function :  2 s   2.100
  | Found hydrogenic basis function :  2 p   3.500
  | Found hydrogenic basis function :  1 s   0.850
  | Found hydrogenic basis function :  2 p   3.700
  | Found hydrogenic basis function :  2 s   1.200
  | Found hydrogenic basis function :  3 d   7.000
  Species H                   : Missing cutoff potential type.
  Defaulting to exp(1/x)/(1-x)^2 type cutoff potential.
  Species H : No 'logarithmic' tag. Using default grid for free atom:
  | Default logarithmic grid data [bohr] : 0.1000E-03 0.1000E+03 0.1012E+01
  Species H : On-site basis accuracy parameter (for Gram-Schmidt orthonormalisation) not specified.
  Using default value basis_acc =  0.1000000E-03.
  Species H                   : Using default innermost maximum threshold i_radial=  2 for radial functions.
  Species H                   : Default cutoff onset for free atom density etc. : 0.40000000E+01 AA.
  Species H                   : Basic radial grid will be enhanced according to radial_multiplier =   2, to contain    49 grid points.
 
  Reading configuration options for species C                   .
  | Found nuclear charge :   6.0000
  | Found atomic mass :    12.0107000000000      amu
  | Found l_max for Hartree potential  :   6
  | Found cutoff potl. onset [A], width [A], scale factor :    4.00000    2.00000    1.00000
  | Threshold for basis-dependent cutoff potential is   0.100000E-03
  | Found data for basic radial integration grid :    34 points, outermost radius =    7.000 A
  | Found multiplier for basic radial grid :   2
  | Found angular grid specification: user-specified.
  | Specified grid contains     6 separate shells.
  | Check grid settings after all constraints further below.
  | Found free-atom valence shell :  2 s   2.000
  | Found free-atom valence shell :  2 p   2.000
  | No ionic wave fns used. Skipping ion_occ.
  | No ionic wave fns used. Skipping ion_occ.
  | Found hydrogenic basis function :  2 p   1.700
  | Found hydrogenic basis function :  3 d   6.000
  | Found hydrogenic basis function :  2 s   4.900
  | Found hydrogenic basis function :  4 f   9.800
  | Found hydrogenic basis function :  3 p   5.200
  | Found hydrogenic basis function :  3 s   4.300
  | Found hydrogenic basis function :  5 g  14.400
  | Found hydrogenic basis function :  3 d   6.200
  Species C                   : Missing cutoff potential type.
  Defaulting to exp(1/x)/(1-x)^2 type cutoff potential.
  Species C : No 'logarithmic' tag. Using default grid for free atom:
  | Default logarithmic grid data [bohr] : 0.1000E-03 0.1000E+03 0.1012E+01
  Species C : On-site basis accuracy parameter (for Gram-Schmidt orthonormalisation) not specified.
  Using default value basis_acc =  0.1000000E-03.
  Species C                   : Using default innermost maximum threshold i_radial=  2 for radial functions.
  Species C                   : Default cutoff onset for free atom density etc. : 0.40000000E+01 AA.
  Species C                   : Basic radial grid will be enhanced according to radial_multiplier =   2, to contain    69 grid points.
 
  Reading configuration options for species N                   .
  | Found nuclear charge :   7.0000
  | Found atomic mass :    14.0067000000000      amu
  | Found l_max for Hartree potential  :   6
  | Found cutoff potl. onset [A], width [A], scale factor :    4.00000    2.00000    1.00000
  | Threshold for basis-dependent cutoff potential is   0.100000E-03
  | Found data for basic radial integration grid :    35 points, outermost radius =    7.000 A
  | Found multiplier for basic radial grid :   2
  | Found angular grid specification: user-specified.
  | Specified grid contains     6 separate shells.
  | Check grid settings after all constraints further below.
  | Found free-atom valence shell :  2 s   2.000
  | Found free-atom valence shell :  2 p   3.000
  | No ionic wave fns used. Skipping ion_occ.
  | No ionic wave fns used. Skipping ion_occ.
  | Found hydrogenic basis function :  2 p   1.800
  | Found hydrogenic basis function :  3 d   6.800
  | Found hydrogenic basis function :  3 s   5.800
  | Found hydrogenic basis function :  4 f  10.800
  | Found hydrogenic basis function :  3 p   5.800
  | Found hydrogenic basis function :  1 s   0.800
  | Found hydrogenic basis function :  5 g  16.000
  | Found hydrogenic basis function :  3 d   4.900
  Species N                   : Missing cutoff potential type.
  Defaulting to exp(1/x)/(1-x)^2 type cutoff potential.
  Species N : No 'logarithmic' tag. Using default grid for free atom:
  | Default logarithmic grid data [bohr] : 0.1000E-03 0.1000E+03 0.1012E+01
  Species N : On-site basis accuracy parameter (for Gram-Schmidt orthonormalisation) not specified.
  Using default value basis_acc =  0.1000000E-03.
  Species N                   : Using default innermost maximum threshold i_radial=  2 for radial functions.
  Species N                   : Default cutoff onset for free atom density etc. : 0.40000000E+01 AA.
  Species N                   : Basic radial grid will be enhanced according to radial_multiplier =   2, to contain    71 grid points.
 
  Reading configuration options for species O                   .
  | Found nuclear charge :   8.0000
  | Found atomic mass :    15.9994000000000      amu
  | Found l_max for Hartree potential  :   6
  | Found cutoff potl. onset [A], width [A], scale factor :    4.00000    2.00000    1.00000
  | Threshold for basis-dependent cutoff potential is   0.100000E-03
  | Found data for basic radial integration grid :    36 points, outermost radius =    7.000 A
  | Found multiplier for basic radial grid :   2
  | Found angular grid specification: user-specified.
  | Specified grid contains     6 separate shells.
  | Check grid settings after all constraints further below.
  | Found free-atom valence shell :  2 s   2.000
  | Found free-atom valence shell :  2 p   4.000
  | No ionic wave fns used. Skipping ion_occ.
  | No ionic wave fns used. Skipping ion_occ.
  | Found hydrogenic basis function :  2 p   1.800
  | Found hydrogenic basis function :  3 d   7.600
  | Found hydrogenic basis function :  3 s   6.400
  | Found hydrogenic basis function :  4 f  11.600
  | Found hydrogenic basis function :  3 p   6.200
  | Found hydrogenic basis function :  3 d   5.600
  | Found hydrogenic basis function :  5 g  17.600
  | Found hydrogenic basis function :  1 s   0.750
  Species O                   : Missing cutoff potential type.
  Defaulting to exp(1/x)/(1-x)^2 type cutoff potential.
  Species O : No 'logarithmic' tag. Using default grid for free atom:
  | Default logarithmic grid data [bohr] : 0.1000E-03 0.1000E+03 0.1012E+01
  Species O : On-site basis accuracy parameter (for Gram-Schmidt orthonormalisation) not specified.
  Using default value basis_acc =  0.1000000E-03.
  Species O                   : Using default innermost maximum threshold i_radial=  2 for radial functions.
  Species O                   : Default cutoff onset for free atom density etc. : 0.40000000E+01 AA.
  Species O                   : Basic radial grid will be enhanced according to radial_multiplier =   2, to contain    73 grid points.
 
  Finished reading input file 'control.in'. Consistency checks are next.
 
  Target number of points in a grid batch is not set. Defaulting to  100
  Method for grid partitioning is not set. Defaulting to parallel hash+maxmin partitioning.
  Batch size limit is not set. Defaulting to    200
  By default, will store active basis functions for each batch.
  If in need of memory, prune_basis_once .false. can be used to disable this option.
  communication_type for Hartree potential was not specified.
  Defaulting to calc_hartree .
  Pulay mixer: Number of initial linear mixing iterations not set.
  Defaulting to    0 iterations.
  Work space size for distributed Hartree potential not set.
  Defaulting to   0.200000E+03 MB.
  Algorithm-dependent basis array size parameters:
  | n_max_pulay                         :       10
  Geometry relaxation not requested: no relaxation will be performed.
  Handling of forces: Unphysical translation and rotation will be removed from forces.
  No accuracy limit for integral partition fn. given. Defaulting to  0.1000E-14.
  No threshold value for u(r) in integrations given. Defaulting to  0.1000E-05.
  No accuracy for occupation numbers given. Defaulting to  0.1000E-07.
  No threshold value for occupation numbers given. Defaulting to  0.0000E+00.
  No accuracy for fermi level given. Defaulting to  0.1000E-19.
  Maximum # of iterations to find E_F not set. Defaulting to  200.
  Preferred method for the eigenvalue solver ('KS_method') not specified in 'control.in'.
  Calling blacs routine to test compilation state
  Since scalapack support is enabled, defaulting to 'elpa'.
  Preferred method for the MBD eigenvalue solver ('mbd_eigensolver') not specified in 'control.in'.
  Calling blacs routine to test compilation state
  Since scalapack support is enabled, defaulting to 'scaLAPACK'.
  Will not use alltoall communication since running on < 1024 CPUs.
  Threshold for basis singularities not set.
  Default threshold for basis singularities:  0.1000E-04
  partition_type (choice of integration weights) for integrals was not specified.
  | Using a version of the partition function of Stratmann and coworkers ('stratmann_smoother').
  | At each grid point, the set of atoms used to build the partition table is smoothly restricted to
  | only those atoms whose free-atom density would be non-zero at that grid point.
  Partitioning for Hartree potential was not defined. Using partition_type for integrals.
  | Adjusted default value of keyword multip_moments_threshold to:       0.10000000E-11
  | This value may affect high angular momentum components of the Hartree potential in periodic systems.
  No q(lm)/r^(l+1) cutoff set for long-range Hartree potential.
  | Using default value of  0.100000E-09 .
  | Verify using the multipole_threshold keyword.
  Defaulting to new monopole extrapolation.
  Density update method: automatic selection selected.
------------------------------------------------------------


------------------------------------------------------------
          Reading geometry description geometry.in.
------------------------------------------------------------
 * Warning! You did not set the 'relativistic' flag in input file 'control.in'.
 * Since you are not attempting to treat any elements beyond Ca(Z=20), FHI-aims
 * will default to 'relativistic none'.
 * You must ensure that this is really what you want!!
 * For example, DO NOT compute total-energy differences between results from
 * different settings of the 'relativistic' flag.
  Input structure read successfully.
  The structure contains       32 atoms,  and a total of        116.000 electrons.

  Input geometry:
  | No unit cell requested.
  | Atomic structure:
  |       Atom                x [A]            y [A]            z [A]
  |    1: Species C              0.107508         0.015386         0.173739
  |    2: Species C              0.045337         0.004466         1.690626
  |    3: Species O              1.037229         0.177224         2.390218
  |    4: Species H              1.085403        -0.357282        -0.146877
  |    5: Species H              0.009623         1.056672        -0.164917
  |    6: Species H             -0.686152        -0.578108        -0.298363
  |    7: Species N             -1.212447        -0.230150         2.207849
  |    8: Species C             -1.560035         0.075168         3.589338
  |    9: Species C             -1.608412         1.621080         3.772694
  |   10: Species O             -1.423795         2.372424         2.822247
  |   11: Species H             -1.974003        -0.124131         1.546282
  |   12: Species H             -2.601090        -0.263579         3.711202
  |   13: Species C             -0.683961        -0.697626         4.591548
  |   14: Species H              0.268215        -0.192484         4.777219
  |   15: Species H             -0.461747        -1.688271         4.177835
  |   16: Species H             -1.212043        -0.854347         5.539196
  |   17: Species N             -1.895442         2.150927         5.009983
  |   18: Species C             -2.375713         1.530767         6.232474
  |   19: Species C             -3.669786         0.710485         6.011779
  |   20: Species O             -4.468646         0.982440         5.120588
  |   21: Species H             -2.031868         3.156315         4.942241
  |   22: Species H             -1.593322         0.877015         6.643985
  |   23: Species C             -2.663278         2.638139         7.255831
  |   24: Species H             -2.993788         2.219867         8.213971
  |   25: Species H             -3.457747         3.299495         6.883729
  |   26: Species H             -1.758097         3.232118         7.437098
  |   27: Species N             -3.889489        -0.328797         6.874895
  |   28: Species C             -3.073588        -0.775840         7.992902
  |   29: Species H             -4.779583        -0.792017         6.720013
  |   30: Species H             -3.514086        -1.694459         8.394534
  |   31: Species H             -3.030420        -0.040103         8.810255
  |   32: Species H             -2.045685        -1.013119         7.683572
  |

  | The smallest distance between any two atoms is         1.01433682 AA.
  |
  | The first atom of this pair is atom number                      7 .
  | The second atom of this pair is atom number                    11 .

  Number of empty states per atom not set in control.in - providing a guess from actual geometry.
  | Total number of empty states used during s.c.f. cycle:       71
  If you use a very high smearing, use empty_states (per atom!) in control.in to increase this value.

  Structure-dependent array size parameters: 
  | Maximum number of distinct radial functions  :       40
  | Maximum number of basis functions            :      840
  | Number of Kohn-Sham states (occupied + empty):      129
------------------------------------------------------------

------------------------------------------------------------
          Preparing all fixed parts of the calculation.
------------------------------------------------------------
  Determining machine precision:
    2.225073858507201E-308
  Setting up grids for atomic and cluster calculations.

  Creating wave function, potential, and density for free atoms.

  Species: H

  List of occupied orbitals and eigenvalues:
    n    l              occ      energy [Ha]    energy [eV]
    1    0           1.0000        -0.238382        -6.4867


  Species: C

  List of occupied orbitals and eigenvalues:
    n    l              occ      energy [Ha]    energy [eV]
    1    0           2.0000       -10.041232      -273.2358
    2    0           2.0000        -0.504327       -13.7234
    2    1           2.0000        -0.193750        -5.2722


  Species: N

  List of occupied orbitals and eigenvalues:
    n    l              occ      energy [Ha]    energy [eV]
    1    0           2.0000       -14.129007      -384.4699
    2    0           2.0000        -0.681802       -18.5528
    2    1           3.0000        -0.260543        -7.0897


  Species: O

  List of occupied orbitals and eigenvalues:
    n    l              occ      energy [Ha]    energy [eV]
    1    0           2.0000       -18.898576      -514.2564
    2    0           2.0000        -0.878795       -23.9132
    2    1           4.0000        -0.332075        -9.0362

  Creating fixed part of basis set: Ionic, confined, hydrogenic.
 
  H                    hydrogenic:
 
  List of hydrogenic basis orbitals: 
    n    l      effective z      eigenvalue [eV]  inner max. [A]     outer max. [A]     outer radius [A]   
    2    0         2.100000       -14.9965           0.193243           1.317208           5.373006
    2    1         3.500000       -41.6672           0.602369           0.602369           4.056063
    1    0         0.850000        -9.8292           0.624871           0.624871           5.373006
    2    1         3.700000       -46.5653           0.573622           0.573622           3.910002
    2    0         1.200000        -4.5995           0.334980           2.228188           5.505995
    3    2         7.000000       -74.0753           0.680699           0.680699           3.769201
 
 
  C                    hydrogenic:
 
  List of hydrogenic basis orbitals: 
    n    l      effective z      eigenvalue [eV]  inner max. [A]     outer max. [A]     outer radius [A]   
    2    1         1.700000        -9.8152           1.245706           1.245706           5.401630
    3    2         6.000000       -54.4226           0.792453           0.792453           4.178599
    2    0         4.900000       -81.6681           0.082559           0.562749           3.353238
    4    3         9.800000       -81.6681           0.863254           0.863254           4.028125
    3    1         5.200000       -40.8774           0.305389           1.215618           4.898362
    3    0         4.300000       -27.9508           0.091041           1.610311           5.401630
    5    4        14.400000      -112.8510           0.917666           0.917666           3.883070
    3    2         6.200000       -58.1113           0.763917           0.763917           4.077671
 
 
  N                    hydrogenic:
 
  List of hydrogenic basis orbitals: 
    n    l      effective z      eigenvalue [eV]  inner max. [A]     outer max. [A]     outer radius [A]   
    2    1         1.800000       -11.0118           1.177451           1.177451           5.427479
    3    2         6.800000       -69.9029           0.704619           0.704619           3.854246
    3    0         5.800000       -50.8549           0.067388           1.191934           4.629968
    4    3        10.800000       -99.1854           0.786571           0.786571           3.761152
    3    1         5.800000       -50.8549           0.274880           1.094176           4.518138
    1    0         0.800000        -8.7059           0.662839           0.662839           5.361532
    5    4        16.000000      -139.3222           0.825990           0.825990           3.625711
    3    2         4.900000       -36.2967           0.968267           0.968267           4.862000
 
 
  O                    hydrogenic:
 
  List of hydrogenic basis orbitals: 
    n    l      effective z      eigenvalue [eV]  inner max. [A]     outer max. [A]     outer radius [A]   
    2    1         1.800000       -11.0118           1.178562           1.178562           5.432602
    3    2         7.600000       -87.3182           0.624125           0.624125           3.541477
    3    0         6.400000       -61.9209           0.061167           1.081902           4.306578
    4    3        11.600000      -114.4238           0.731631           0.731631           3.585037
    3    1         6.200000       -58.1113           0.255680           1.030270           4.306578
    3    2         5.600000       -47.4081           0.847233           0.847233           4.413171
    5    4        17.600000      -168.5799           0.749740           0.749740           3.372465
    1    0         0.750000        -7.6499           0.705284           0.705284           5.366593
 

  Adding cutoff potential to free-atom effective potential.
  Creating atomic-like basis functions for current effective potential.

  Species H                   :

  List of atomic basis orbitals and eigenvalues:
    n    l      energy [Ha]    energy [eV]    outer radius [A]
    1    0        -0.238382        -6.4867       5.373006


  Species C                   :

  List of atomic basis orbitals and eigenvalues:
    n    l      energy [Ha]    energy [eV]    outer radius [A]
    1    0       -10.041232      -273.2358       1.934409
    2    0        -0.504327       -13.7234       5.271162
    2    1        -0.193750        -5.2722       5.401630


  Species N                   :

  List of atomic basis orbitals and eigenvalues:
    n    l      energy [Ha]    energy [eV]    outer radius [A]
    1    0       -14.129007      -384.4699       1.637919
    2    0        -0.681802       -18.5528       5.168461
    2    1        -0.260543        -7.0897       5.361532


  Species O                   :

  List of atomic basis orbitals and eigenvalues:
    n    l      energy [Ha]    energy [eV]    outer radius [A]
    1    0       -18.898576      -514.2564       1.415765
    2    0        -0.878795       -23.9132       5.048385
    2    1        -0.332075        -9.0362       5.301386

  Assembling full basis from fixed parts.
  | Species H :   atomic orbital   1 s accepted.
  | Species H :    hydro orbital   2 s accepted.
  | Species H :    hydro orbital   1 s accepted.
  | Species H :    hydro orbital   2 s accepted.
  | Species H :    hydro orbital   2 p accepted.
  | Species H :    hydro orbital   2 p accepted.
  | Species H :    hydro orbital   3 d accepted.
  | Species C :   atomic orbital   1 s accepted.
  | Species C :    hydro orbital   2 s accepted.
  | Species C :   atomic orbital   2 s accepted.
  | Species C :    hydro orbital   3 s accepted.
  | Species C :    hydro orbital   3 p accepted.
  | Species C :   atomic orbital   2 p accepted.
  | Species C :    hydro orbital   2 p accepted.
  | Species C :    hydro orbital   3 d accepted.
  | Species C :    hydro orbital   3 d accepted.
  | Species C :    hydro orbital   4 f accepted.
  | Species C :    hydro orbital   5 g accepted.
  | Species N :   atomic orbital   1 s accepted.
  | Species N :    hydro orbital   3 s accepted.
  | Species N :   atomic orbital   2 s accepted.
  | Species N :    hydro orbital   1 s accepted.
  | Species N :    hydro orbital   3 p accepted.
  | Species N :   atomic orbital   2 p accepted.
  | Species N :    hydro orbital   2 p accepted.
  | Species N :    hydro orbital   3 d accepted.
  | Species N :    hydro orbital   3 d accepted.
  | Species N :    hydro orbital   4 f accepted.
  | Species N :    hydro orbital   5 g accepted.
  | Species O :   atomic orbital   1 s accepted.
  | Species O :    hydro orbital   3 s accepted.
  | Species O :   atomic orbital   2 s accepted.
  | Species O :    hydro orbital   1 s accepted.
  | Species O :    hydro orbital   3 p accepted.
  | Species O :   atomic orbital   2 p accepted.
  | Species O :    hydro orbital   2 p accepted.
  | Species O :    hydro orbital   3 d accepted.
  | Species O :    hydro orbital   3 d accepted.
  | Species O :    hydro orbital   4 f accepted.
  | Species O :    hydro orbital   5 g accepted.
 
  Basis size parameters after reduction:
  | Total number of radial functions:       40
  | Total number of basis functions :      840
 
  Testing on-site integration grid accuracy.
  |  Species  Function  <phi|h_atom|phi> (log., in eV)  <phi|h_atom|phi> (rad., in eV)
           1        1                 -6.4869821809                 -6.4870742227
           1        2                 13.5044133542                 13.5041049177
           1        3                 32.7854418792                 32.7779770519
           1        4                 33.7995553101                 33.7152624900 ***
           1        5                 28.8558651799                 28.8558652046
           1        6                 59.6361831893                 59.6362535845
           1        7                 60.2733718049                 60.2733715484
           2        8               -273.2358277112               -273.2358261765
           2        9                -10.7624923123                -10.7625144012
           2       10                 17.4634079027                 17.4634252127
           2       11                 53.0363661832                 53.0366180446
           2       12                 15.0981351967                 15.0981317714
           2       13                  3.8522181899                  3.8522770949
           2       14                 12.1181835661                 12.1206868578
           2       15                 29.4320778347                 29.4320780959
           2       16                 54.8753777694                 54.8752901936
           2       17                 59.3533975461                 59.3533974833
           2       18                 93.4537491195                 93.4537492066
           3       19               -384.4698526889               -384.4698499465
           3       20                 12.5691022037                 12.5690910168
           3       21                -15.7489097511                -15.7489165588
           3       22                 27.0978334940                 27.0985589490
           3       23                 18.5949116966                 18.5949125562
           3       24                  1.2212828291                  1.2212855301
           3       25                 13.4428926797                 13.4434051125
           3       26                 35.9380614500                 35.9380613666
           3       27                 39.9231532098                 39.9231654735
           3       28                 72.9957335806                 72.9957336833
           3       29                116.4231321147                116.4231321431
           4       30               -514.2564144315               -514.2564099626
           4       31                 15.1726678541                 15.1726530877
           4       32                -21.5447785304                -21.5447874973
           4       33                 14.4944558459                 14.4944698284
           4       34                 20.8882174564                 20.8882178906
           4       35                 -2.4850315908                 -2.4850322289
           4       36                 13.8600193195                 13.8599826966
           4       37                 45.8243383616                 45.8243383675
           4       38                 52.1840606465                 52.1840622440
           4       39                 85.4074185510                 85.4074185819
           4       40                142.0983717302                142.0983717339
 * Note: Onsite integrals marked "***" above are less accurate than
 * onsite_accuracy_threshold =    0.03000 eV. Usually, this is harmless.
 * When in doubt, tighten the "radial" and/or "radial_multiplier" flags to check.

  Preparing densities etc. for the partition functions (integrals / Hartree potential).

  Preparations completed.
  max(cpu_time)          :      0.232 s.
  Wall clock time (cpu1) :      0.234 s.
------------------------------------------------------------

------------------------------------------------------------
          Begin self-consistency loop: Initialization.

          Date     :  20170309, Time     :  180611.302
------------------------------------------------------------

  Initializing index lists of integration centers etc. from given atomic structure:
  | Number of centers in hartree potential         :        32
  | Number of centers in hartree multipole         :        32
  | Number of centers in electron density summation:        32
  | Number of centers in basis integrals           :        32
  | Number of centers in integrals                 :        32
  | Number of centers in hamiltonian               :        32
  Using modified Scalapack Eigenvalue solver (ELPA)
  * Using 32 tasks for Scalapack Eigenvalue solver.
  Detailed listing of tasks and assigned k-points:
  (for non-periodic systems, the "k-point" denotes an internal label only)
   Task     0 k-point     1 on eos399
   Task     1 k-point     1 on eos399
   Task     2 k-point     1 on eos399
   Task     3 k-point     1 on eos399
   Task     4 k-point     1 on eos399
   Task     5 k-point     1 on eos399
   Task     6 k-point     1 on eos399
   Task     7 k-point     1 on eos399
   Task     8 k-point     1 on eos399
   Task     9 k-point     1 on eos399
   Task    10 k-point     1 on eos399
   Task    11 k-point     1 on eos399
   Task    12 k-point     1 on eos399
   Task    13 k-point     1 on eos399
   Task    14 k-point     1 on eos399
   Task    15 k-point     1 on eos399
   Task    16 k-point     1 on eos399
   Task    17 k-point     1 on eos399
   Task    18 k-point     1 on eos399
   Task    19 k-point     1 on eos399
   Task    20 k-point     1 on eos399
   Task    21 k-point     1 on eos399
   Task    22 k-point     1 on eos399
   Task    23 k-point     1 on eos399
   Task    24 k-point     1 on eos399
   Task    25 k-point     1 on eos399
   Task    26 k-point     1 on eos399
   Task    27 k-point     1 on eos399
   Task    28 k-point     1 on eos399
   Task    29 k-point     1 on eos399
   Task    30 k-point     1 on eos399
   Task    31 k-point     1 on eos399
  Tasks:    32 split into      8 X      4 BLACS grid
  Calculating blocksize based on n_basis =          840 max_nprow =            8 max_npcol =            4
  Scalapack blocksize set to:           16
  Required Scalapack workspace - INTEGER:            1 REAL:             1
  Partitioning the integration grid into batches with parallel hashing+maxmin method.
  | Number of batches:     4968
  | Maximal batch size:     199
  | Minimal batch size:      13
  | Average batch size:     106.225
  | Standard deviation of batch sizes:      30.587

  Integration load balanced across    32 MPI tasks.
  Work distribution over tasks is as follows:
  Task     0 has      16522 integration points.
  Task     1 has      16575 integration points.
  Task     2 has      16457 integration points.
  Task     3 has      16572 integration points.
  Task     4 has      16478 integration points.
  Task     5 has      16566 integration points.
  Task     6 has      16433 integration points.
  Task     7 has      16469 integration points.
  Task     8 has      16576 integration points.
  Task     9 has      16440 integration points.
  Task    10 has      16455 integration points.
  Task    11 has      16423 integration points.
  Task    12 has      16431 integration points.
  Task    13 has      16568 integration points.
  Task    14 has      16434 integration points.
  Task    15 has      16429 integration points.
  Task    16 has      16518 integration points.
  Task    17 has      16459 integration points.
  Task    18 has      16579 integration points.
  Task    19 has      16437 integration points.
  Task    20 has      16498 integration points.
  Task    21 has      16573 integration points.
  Task    22 has      16453 integration points.
  Task    23 has      16442 integration points.
  Task    24 has      16434 integration points.
  Task    25 has      16495 integration points.
  Task    26 has      16518 integration points.
  Task    27 has      16524 integration points.
  Task    28 has      16439 integration points.
  Task    29 has      16526 integration points.
  Task    30 has      16561 integration points.
  Task    31 has      16444 integration points.
  Initializing partition tables, free-atom densities, potentials, etc. across the integration grid (initialize_grid_storage).
  | initialize_grid_storage: Actual outermost partition radius vs. multipole_radius_free
  | (-- VB: in principle, multipole_radius_free should be larger, hence this output)
  | Species        1: Confinement radius =              6.000000000000000 AA, multipole_radius_free =              6.071692442739658 AA.
  | Species        1: outer_partition_radius set to              6.071692442739658 AA .
  | Species        2: Confinement radius =              6.000000000000000 AA, multipole_radius_free =              6.029870734432609 AA.
  | Species        2: outer_partition_radius set to              6.029870734432609 AA .
  | Species        3: Confinement radius =              6.000000000000000 AA, multipole_radius_free =              6.058726835495003 AA.
  | Species        3: outer_partition_radius set to              6.058726835495003 AA .
  | Species        4: Confinement radius =              6.000000000000000 AA, multipole_radius_free =              6.064445521808699 AA.
  | Species        4: outer_partition_radius set to              6.064445521808699 AA .
  | Original list of interatomic distances with          32 x         32 entries is created.
  | Net number of integration points:   527728
  | of which are non-zero points    :   414116
  Obtaining max. number of non-zero basis functions in each batch (get_n_compute_maxes).
  | Maximal number of non-zero basis functions:      736 in task     0
  | Maximal number of non-zero basis functions:      751 in task     1
  | Maximal number of non-zero basis functions:      745 in task     2
  | Maximal number of non-zero basis functions:      731 in task     3
  | Maximal number of non-zero basis functions:      756 in task     4
  | Maximal number of non-zero basis functions:      748 in task     5
  | Maximal number of non-zero basis functions:      745 in task     6
  | Maximal number of non-zero basis functions:      760 in task     7
  | Maximal number of non-zero basis functions:      756 in task     8
  | Maximal number of non-zero basis functions:      749 in task     9
  | Maximal number of non-zero basis functions:      760 in task    10
  | Maximal number of non-zero basis functions:      732 in task    11
  | Maximal number of non-zero basis functions:      727 in task    12
  | Maximal number of non-zero basis functions:      749 in task    13
  | Maximal number of non-zero basis functions:      741 in task    14
  | Maximal number of non-zero basis functions:      742 in task    15
  | Maximal number of non-zero basis functions:      751 in task    16
  | Maximal number of non-zero basis functions:      739 in task    17
  | Maximal number of non-zero basis functions:      755 in task    18
  | Maximal number of non-zero basis functions:      722 in task    19
  | Maximal number of non-zero basis functions:      728 in task    20
  | Maximal number of non-zero basis functions:      742 in task    21
  | Maximal number of non-zero basis functions:      737 in task    22
  | Maximal number of non-zero basis functions:      739 in task    23
  | Maximal number of non-zero basis functions:      745 in task    24
  | Maximal number of non-zero basis functions:      730 in task    25
  | Maximal number of non-zero basis functions:      748 in task    26
  | Maximal number of non-zero basis functions:      739 in task    27
  | Maximal number of non-zero basis functions:      757 in task    28
  | Maximal number of non-zero basis functions:      752 in task    29
  | Maximal number of non-zero basis functions:      732 in task    30
  | Maximal number of non-zero basis functions:      764 in task    31
  Selecting the method for density update.
  Loop over occupied states selected for charge density update.
  Integrating Hamiltonian matrix: batch-based integration.
  Time summed over all CPUs for integration: real work       21.143 s, elapsed       21.990 s
  Integrating overlap matrix.
  Time summed over all CPUs for integration: real work       12.687 s, elapsed       13.164 s
  Deallocating overlap matrix.

  Updating Kohn-Sham eigenvalues, eigenvectors, occupation numbers, and Fermi level.
  Solving generalized eigenproblem
  Solving real symmetric generalised eigenvalue problem by standard ScaLAPACK.
  Transforming overlap matrix with ScaLAPACK and checking for singularities.
  : Overlap matrix is nonsingular, using Cholesky decomposition
  | Lowest eigenvalue:  0.107210E-03
  Factoring overlap matrix with Cholesky decomposition
  Using Cholesky factor for transformation
  Using 1-stage real ELPA solver
  Determining occupation numbers for Kohn-Sham eigenstates.
  | Chemical potential (Fermi level) in eV                 : -.96215275E+01
  | Error in electron count due to remaining E_F inaccuracy: 0.00000000E+00
  | Maximum occupation number of highest empty state:  0.00E+00

  Writing Kohn-Sham eigenvalues.

  State    Occupation    Eigenvalue [Ha]    Eigenvalue [eV]
      1       2.00000         -18.975069         -516.33789
      2       2.00000         -18.974982         -516.33553
      3       2.00000         -18.974404         -516.31980
      4       2.00000         -14.254390         -387.88169
      5       2.00000         -14.253294         -387.85185
      6       2.00000         -14.252989         -387.84357
      7       2.00000         -10.170969         -276.76615
      8       2.00000         -10.170921         -276.76485
      9       2.00000         -10.170847         -276.76282
     10       2.00000         -10.166502         -276.64458
     11       2.00000         -10.148691         -276.15993
     12       2.00000         -10.146756         -276.10727
     13       2.00000         -10.135631         -275.80456
     14       2.00000         -10.133952         -275.75886
     15       2.00000         -10.132271         -275.71313
     16       2.00000          -1.137404          -30.95033
     17       2.00000          -1.132212          -30.80907
     18       2.00000          -1.129125          -30.72505
     19       2.00000          -1.014173          -27.59705
     20       2.00000          -1.013705          -27.58432
     21       2.00000          -1.009145          -27.46024
     22       2.00000          -0.886084          -24.11158
     23       2.00000          -0.875705          -23.82914
     24       2.00000          -0.840427          -22.86920
     25       2.00000          -0.816241          -22.21106
     26       2.00000          -0.770950          -20.97862
     27       2.00000          -0.765999          -20.84390
     28       2.00000          -0.712226          -19.38065
     29       2.00000          -0.684925          -18.63776
     30       2.00000          -0.660916          -17.98443
     31       2.00000          -0.629066          -17.11776
     32       2.00000          -0.623114          -16.95581
     33       2.00000          -0.613886          -16.70468
     34       2.00000          -0.605971          -16.48930
     35       2.00000          -0.597328          -16.25411
     36       2.00000          -0.586955          -15.97186
     37       2.00000          -0.567201          -15.43432
     38       2.00000          -0.561333          -15.27464
     39       2.00000          -0.557321          -15.16549
     40       2.00000          -0.552091          -15.02315
     41       2.00000          -0.549165          -14.94355
     42       2.00000          -0.536903          -14.60988
     43       2.00000          -0.532257          -14.48346
     44       2.00000          -0.528374          -14.37778
     45       2.00000          -0.524409          -14.26988
     46       2.00000          -0.516157          -14.04535
     47       2.00000          -0.513823          -13.98184
     48       2.00000          -0.503206          -13.69293
     49       2.00000          -0.498696          -13.57022
     50       2.00000          -0.483899          -13.16755
     51       2.00000          -0.479719          -13.05381
     52       2.00000          -0.475531          -12.93985
     53       2.00000          -0.407506          -11.08879
     54       2.00000          -0.405854          -11.04384
     55       2.00000          -0.402862          -10.96242
     56       2.00000          -0.387678          -10.54924
     57       2.00000          -0.383366          -10.43191
     58       2.00000          -0.379941          -10.33872
     59       0.00000          -0.166409           -4.52822
     60       0.00000          -0.159766           -4.34745
     61       0.00000          -0.156835           -4.26769
     62       0.00000          -0.085032           -2.31383
     63       0.00000          -0.068751           -1.87080
     64       0.00000          -0.060567           -1.64811
     65       0.00000          -0.057045           -1.55226
     66       0.00000          -0.047765           -1.29974
     67       0.00000          -0.041489           -1.12897
     68       0.00000          -0.037358           -1.01655
     69       0.00000          -0.031999           -0.87073
     70       0.00000          -0.027849           -0.75781
     71       0.00000          -0.023391           -0.63651
     72       0.00000          -0.017513           -0.47655
     73       0.00000          -0.011218           -0.30525
     74       0.00000          -0.010077           -0.27422
     75       0.00000          -0.004715           -0.12831
     76       0.00000          -0.001895           -0.05157
     77       0.00000          -0.000689           -0.01876
     78       0.00000           0.002332            0.06345
     79       0.00000           0.011426            0.31092
     80       0.00000           0.022081            0.60085
     81       0.00000           0.025082            0.68251
     82       0.00000           0.033456            0.91038
     83       0.00000           0.036579            0.99536
     84       0.00000           0.037385            1.01730
     85       0.00000           0.049609            1.34994
     86       0.00000           0.051185            1.39282
     87       0.00000           0.054910            1.49419
     88       0.00000           0.061939            1.68545
     89       0.00000           0.070825            1.92724
     90       0.00000           0.073206            1.99203
     91       0.00000           0.084640            2.30318
     92       0.00000           0.086099            2.34287
     93       0.00000           0.096002            2.61234
     94       0.00000           0.098792            2.68826
     95       0.00000           0.101405            2.75938
     96       0.00000           0.107091            2.91410
     97       0.00000           0.111014            3.02085
     98       0.00000           0.118677            3.22938
     99       0.00000           0.121212            3.29835
    100       0.00000           0.123651            3.36471
    101       0.00000           0.131983            3.59144
    102       0.00000           0.135081            3.67574
    103       0.00000           0.137240            3.73449
    104       0.00000           0.144741            3.93860
    105       0.00000           0.146863            3.99635
    106       0.00000           0.152458            4.14860
    107       0.00000           0.154328            4.19949
    108       0.00000           0.157778            4.29336
    109       0.00000           0.160589            4.36985
    110       0.00000           0.169049            4.60006
    111       0.00000           0.176354            4.79884
    112       0.00000           0.182123            4.95583
    113       0.00000           0.188088            5.11814
    114       0.00000           0.190570            5.18568
    115       0.00000           0.191872            5.22111
    116       0.00000           0.196238            5.33990
    117       0.00000           0.205597            5.59457
    118       0.00000           0.210739            5.73449
    119       0.00000           0.212950            5.79465
    120       0.00000           0.215690            5.86921
    121       0.00000           0.220688            6.00523
    122       0.00000           0.231457            6.29827
    123       0.00000           0.237247            6.45583
    124       0.00000           0.239478            6.51653
    125       0.00000           0.242623            6.60210
    126       0.00000           0.247240            6.72774
    127       0.00000           0.251671            6.84831
    128       0.00000           0.258288            7.02837
    129       0.00000           0.268580            7.30842

  Highest occupied state (VBM) at    -10.33872158 eV
  | Occupation number:      2.00000000

  Lowest unoccupied state (CBM) at    -4.52822461 eV
  | Occupation number:      0.00000000

  Overall HOMO-LUMO gap:      5.81049697 eV.
  Calculating total energy contributions from superposition of free atom densities.

  Total energy components:
  | Sum of eigenvalues            :        -437.82902838 Ha      -11913.93403641 eV
  | XC energy correction          :         -98.81708546 Ha       -2688.94970764 eV
  | XC potential correction       :         127.01770494 Ha        3456.32760737 eV
  | Free-atom electrostatic energy:        -333.64655781 Ha       -9078.98477167 eV
  | Hartree energy correction     :           0.00000000 Ha           0.00000000 eV
  | MBD@rsSCS energy              :           0.00000000 Ha           0.00000000 eV
  | Entropy correction            :          -0.00000000 Ha          -0.00000000 eV
  | ---------------------------
  | Total energy                  :        -743.27496671 Ha      -20225.54090836 eV
  | Total energy, T -> 0          :        -743.27496671 Ha      -20225.54090836 eV  <-- do not rely on this value for anything but (periodic) metals
  | Electronic free energy        :        -743.27496671 Ha      -20225.54090836 eV

  Derived energy quantities:
  | Kinetic energy                :         735.15691677 Ha       20004.63752997 eV
  | Electrostatic energy          :       -1379.61479802 Ha      -37541.22873069 eV
  | Energy correction for multipole
  | error in Hartree potential    :           0.00000000 Ha           0.00000000 eV
  | Sum of eigenvalues per atom                           :        -372.31043864 eV
  | Total energy (T->0) per atom                          :        -632.04815339 eV  <-- do not rely on this value for anything but (periodic) metals
  | Electronic free energy per atom                       :        -632.04815339 eV
  Initialize hartree_potential_storage
  Max. number of atoms included in rho_multipole:           32

  End scf initialization - timings             :  max(cpu_time)    wall_clock(cpu1)
  | Time for scf. initialization               :        1.844 s           1.841 s
  | Boundary condition initialization          :        0.000 s           0.000 s
  | Integration                                :        1.120 s           1.120 s
  | Solution of K.-S. eqns.                    :        0.076 s           0.075 s
  | Grid partitioning                          :        0.312 s           0.308 s
  | Preloading free-atom quantities on grid    :        0.028 s           0.027 s
  | Free-atom superposition energy             :        0.040 s           0.038 s
  | Total energy evaluation                    :        0.004 s           0.001 s
------------------------------------------------------------

------------------------------------------------------------
          Begin self-consistency iteration #    1

  Date     :  20170309, Time     :  180613.144
------------------------------------------------------------
  Evaluating new KS density.
  Integration grid: deviation in total charge (<rho> - N_e) =   7.105427E-14
  Pulay mixing of updated and previous charge densities.

  Evaluating partitioned Hartree potential by multipole expansion.
  | Analytical far-field extrapolation by fixed multipoles:
  | Hartree multipole sum: apparent total charge =  -0.452067E-04
  Summing up the Hartree potential.
  Time summed over all CPUs for potential: real work        9.486 s, elapsed        9.807 s
  | RMS charge density error from multipole expansion :   0.108362E-01

  Integrating Hamiltonian matrix: batch-based integration.
  Time summed over all CPUs for integration: real work       20.905 s, elapsed       21.782 s

  Updating Kohn-Sham eigenvalues, eigenvectors, occupation numbers, and Fermi level.
  Solving generalized eigenproblem
  Solving real symmetric generalised eigenvalue problem by standard ScaLAPACK.
  Using Cholesky factor for transformation
  Using 2-stage real ELPA solver
  K-Point:    1, Trafo times: 1-stage=     0.021 s, 2-stage=     0.019 s ==> Using 2-stage solver
  Determining occupation numbers for Kohn-Sham eigenstates.
  | Chemical potential (Fermi level) in eV                 : -.32658776E+01
  | Error in electron count due to remaining E_F inaccuracy: 0.00000000E+00
  | Maximum occupation number of highest empty state:  0.00E+00

  Writing Kohn-Sham eigenvalues.

  State    Occupation    Eigenvalue [Ha]    Eigenvalue [eV]
      1       2.00000         -18.621151         -506.70730
      2       2.00000         -18.606386         -506.30552
      3       2.00000         -18.596549         -506.03786
      4       2.00000         -13.997243         -380.88435
      5       2.00000         -13.977213         -380.33932
      6       2.00000         -13.966277         -380.04174
      7       2.00000         -10.059112         -273.72235
      8       2.00000         -10.046855         -273.38885
      9       2.00000         -10.030248         -272.93692
     10       2.00000          -9.969657         -271.28816
     11       2.00000          -9.953194         -270.84019
     12       2.00000          -9.910233         -269.67117
     13       2.00000          -9.850956         -268.05815
     14       2.00000          -9.833384         -267.57999
     15       2.00000          -9.829785         -267.48206
     16       2.00000          -0.969194          -26.37311
     17       2.00000          -0.954491          -25.97303
     18       2.00000          -0.934928          -25.44067
     19       2.00000          -0.867790          -23.61378
     20       2.00000          -0.858125          -23.35076
     21       2.00000          -0.847086          -23.05039
     22       2.00000          -0.735379          -20.01067
     23       2.00000          -0.721907          -19.64409
     24       2.00000          -0.686240          -18.67355
     25       2.00000          -0.672184          -18.29105
     26       2.00000          -0.634972          -17.27846
     27       2.00000          -0.619572          -16.85940
     28       2.00000          -0.576925          -15.69892
     29       2.00000          -0.554816          -15.09731
     30       2.00000          -0.520740          -14.17005
     31       2.00000          -0.497849          -13.54715
     32       2.00000          -0.484264          -13.17749
     33       2.00000          -0.476659          -12.97056
     34       2.00000          -0.468676          -12.75331
     35       2.00000          -0.452391          -12.31018
     36       2.00000          -0.442820          -12.04975
     37       2.00000          -0.423918          -11.53541
     38       2.00000          -0.411247          -11.19059
     39       2.00000          -0.410193          -11.16192
     40       2.00000          -0.401324          -10.92057
     41       2.00000          -0.395970          -10.77489
     42       2.00000          -0.388297          -10.56609
     43       2.00000          -0.386642          -10.52106
     44       2.00000          -0.377635          -10.27597
     45       2.00000          -0.371399          -10.10629
     46       2.00000          -0.361542           -9.83806
     47       2.00000          -0.357426           -9.72605
     48       2.00000          -0.347785           -9.46372
     49       2.00000          -0.345656           -9.40577
     50       2.00000          -0.338683           -9.21604
     51       2.00000          -0.331018           -9.00746
     52       2.00000          -0.316017           -8.59926
     53       2.00000          -0.239024           -6.50418
     54       2.00000          -0.229615           -6.24814
     55       2.00000          -0.223997           -6.09528
     56       2.00000          -0.217056           -5.90639
     57       2.00000          -0.203658           -5.54181
     58       2.00000          -0.188696           -5.13468
     59       0.00000          -0.055367           -1.50661
     60       0.00000          -0.045413           -1.23574
     61       0.00000          -0.034674           -0.94352
     62       0.00000          -0.026109           -0.71047
     63       0.00000          -0.020716           -0.56372
     64       0.00000          -0.016104           -0.43820
     65       0.00000          -0.011027           -0.30005
     66       0.00000           0.002125            0.05783
     67       0.00000           0.010333            0.28116
     68       0.00000           0.015316            0.41676
     69       0.00000           0.018764            0.51060
     70       0.00000           0.029927            0.81434
     71       0.00000           0.033980            0.92464
     72       0.00000           0.042859            1.16625
     73       0.00000           0.045834            1.24720
     74       0.00000           0.049174            1.33808
     75       0.00000           0.054158            1.47373
     76       0.00000           0.060650            1.65038
     77       0.00000           0.061877            1.68376
     78       0.00000           0.068084            1.85265
     79       0.00000           0.079626            2.16672
     80       0.00000           0.082984            2.25812
     81       0.00000           0.092701            2.52253
     82       0.00000           0.096774            2.63334
     83       0.00000           0.110076            2.99533
     84       0.00000           0.112461            3.06023
     85       0.00000           0.117539            3.19841
     86       0.00000           0.121653            3.31034
     87       0.00000           0.124424            3.38574
     88       0.00000           0.126296            3.43669
     89       0.00000           0.134066            3.64811
     90       0.00000           0.137204            3.73352
     91       0.00000           0.150977            4.10830
     92       0.00000           0.154068            4.19240
     93       0.00000           0.158793            4.32099
     94       0.00000           0.167382            4.55469
     95       0.00000           0.169052            4.60015
     96       0.00000           0.172885            4.70443
     97       0.00000           0.180204            4.90361
     98       0.00000           0.185546            5.04896
     99       0.00000           0.190774            5.19123
    100       0.00000           0.195133            5.30984
    101       0.00000           0.197917            5.38560
    102       0.00000           0.200881            5.46626
    103       0.00000           0.203763            5.54468
    104       0.00000           0.208962            5.68615
    105       0.00000           0.210815            5.73657
    106       0.00000           0.214811            5.84530
    107       0.00000           0.219569            5.97477
    108       0.00000           0.224406            6.10639
    109       0.00000           0.228537            6.21881
    110       0.00000           0.237149            6.45315
    111       0.00000           0.242944            6.61085
    112       0.00000           0.244058            6.64115
    113       0.00000           0.252318            6.86591
    114       0.00000           0.254815            6.93388
    115       0.00000           0.259336            7.05689
    116       0.00000           0.264031            7.18466
    117       0.00000           0.265699            7.23004
    118       0.00000           0.270810            7.36912
    119       0.00000           0.276266            7.51758
    120       0.00000           0.282391            7.68424
    121       0.00000           0.288008            7.83710
    122       0.00000           0.296686            8.07324
    123       0.00000           0.305377            8.30972
    124       0.00000           0.308788            8.40254
    125       0.00000           0.313076            8.51924
    126       0.00000           0.319554            8.69551
    127       0.00000           0.326716            8.89041
    128       0.00000           0.334501            9.10225
    129       0.00000           0.342006            9.30645

  Highest occupied state (VBM) at     -5.13468500 eV
  | Occupation number:      2.00000000

  Lowest unoccupied state (CBM) at    -1.50660698 eV
  | Occupation number:      0.00000000

  Overall HOMO-LUMO gap:      3.62807802 eV.

  Total energy components:
  | Sum of eigenvalues            :        -416.98409299 Ha      -11346.71448486 eV
  | XC energy correction          :        -100.74987314 Ha       -2741.54353626 eV
  | XC potential correction       :         129.52412902 Ha        3524.53087679 eV
  | Free-atom electrostatic energy:        -333.64655781 Ha       -9078.98477167 eV
  | Hartree energy correction     :         -20.84934294 Ha        -567.33948742 eV
  | MBD@rsSCS energy              :           0.00000000 Ha           0.00000000 eV
  | Entropy correction            :           0.00000000 Ha           0.00000000 eV
  | ---------------------------
  | Total energy                  :        -742.70573787 Ha      -20210.05140341 eV
  | Total energy, T -> 0          :        -742.70573787 Ha      -20210.05140341 eV  <-- do not rely on this value for anything but (periodic) metals
  | Electronic free energy        :        -742.70573787 Ha      -20210.05140341 eV

  Derived energy quantities:
  | Kinetic energy                :         744.04095890 Ha       20246.38461643 eV
  | Electrostatic energy          :       -1385.99682363 Ha      -37714.89248359 eV
  | Energy correction for multipole
  | error in Hartree potential    :          -0.04180938 Ha          -1.13769113 eV
  | Sum of eigenvalues per atom                           :        -354.58482765 eV
  | Total energy (T->0) per atom                          :        -631.56410636 eV  <-- do not rely on this value for anything but (periodic) metals
  | Electronic free energy per atom                       :        -631.56410636 eV

  Self-consistency convergence accuracy:
  | Change of charge density      :  0.9040E+00
  | Change of sum of eigenvalues  :  0.5672E+03 eV
  | Change of total energy        :  0.1549E+02 eV

  End self-consistency iteration #     1       :  max(cpu_time)    wall_clock(cpu1)
  | Time for this iteration                    :        1.524 s           1.523 s
[...]
   Multipole                     :  0.422962E+00 -0.817199E-01  0.407978E+00
   Pulay + GGA                   :  0.814357E+01 -0.333294E+01  0.964289E+01
   MBD@rsSCS                     :  0.262675E-01  0.112422E-02  0.168246E-02
   ----------------------------------------------------------------
   Total forces(  20)            :  0.298483E-01  0.379253E-02 -0.272566E-02
  atom #   21
   Hellmann-Feynman              :  0.487556E-02 -0.550448E-01 -0.412925E-01
   Ionic forces                  :  0.000000E+00  0.000000E+00  0.000000E+00
   Multipole                     :  0.236879E-02 -0.135633E-02  0.367312E-01
   Pulay + GGA                   : -0.879238E-02  0.649609E-01  0.169967E-01
   MBD@rsSCS                     : -0.325943E-02 -0.608268E-02  0.717497E-02
   ----------------------------------------------------------------
   Total forces(  21)            : -0.480746E-02  0.247708E-02  0.196104E-01
  atom #   22
   Hellmann-Feynman              : -0.206341E-01  0.672649E-01 -0.340574E-01
   Ionic forces                  :  0.000000E+00  0.000000E+00  0.000000E+00
   Multipole                     : -0.683875E-02 -0.844474E-02 -0.709977E-03
   Pulay + GGA                   :  0.232213E-01 -0.605427E-01  0.359189E-01
   MBD@rsSCS                     :  0.721343E-03 -0.125766E-01 -0.294913E-02
   ----------------------------------------------------------------
   Total forces(  22)            : -0.353018E-02 -0.142992E-01 -0.179756E-02
  atom #   23
   Hellmann-Feynman              : -0.198218E+00  0.990418E+00  0.604897E+00
   Ionic forces                  :  0.000000E+00  0.000000E+00  0.000000E+00
   Multipole                     :  0.998229E-01 -0.269351E+00 -0.132142E+00
   Pulay + GGA                   :  0.902929E-01 -0.713162E+00 -0.470765E+00
   MBD@rsSCS                     : -0.140980E-02 -0.143114E-01 -0.616512E-02
   ----------------------------------------------------------------
   Total forces(  23)            : -0.951163E-02 -0.640590E-02 -0.417498E-02
  atom #   24
   Hellmann-Feynman              :  0.113970E-01 -0.861095E-02 -0.443641E-01
   Ionic forces                  :  0.000000E+00  0.000000E+00  0.000000E+00
   Multipole                     :  0.290184E-02  0.344484E-01 -0.118714E-01
   Pulay + GGA                   : -0.145776E-01 -0.341408E-01  0.566560E-01
   MBD@rsSCS                     : -0.946186E-03 -0.155131E-01 -0.547187E-02
   ----------------------------------------------------------------
   Total forces(  24)            : -0.122490E-02 -0.238164E-01 -0.505138E-02
  atom #   25
   Hellmann-Feynman              :  0.122287E-01 -0.449769E-01 -0.101940E-01
   Ionic forces                  :  0.000000E+00  0.000000E+00  0.000000E+00
   Multipole                     :  0.226463E-01 -0.274889E-03  0.203054E-01
   Pulay + GGA                   : -0.304132E-01  0.456449E-01 -0.168086E-01
   MBD@rsSCS                     :  0.101570E-02 -0.828786E-02 -0.909078E-02
   ----------------------------------------------------------------
   Total forces(  25)            :  0.547739E-02 -0.789475E-02 -0.157879E-01
  atom #   26
   Hellmann-Feynman              : -0.938478E-02 -0.420531E-01 -0.300003E-01
   Ionic forces                  :  0.000000E+00  0.000000E+00  0.000000E+00
   Multipole                     : -0.329115E-01  0.584699E-02  0.116172E-01
   Pulay + GGA                   :  0.445298E-01  0.364533E-01  0.105038E-01
   MBD@rsSCS                     :  0.954544E-03 -0.689720E-02 -0.909772E-02
   ----------------------------------------------------------------
   Total forces(  26)            :  0.318807E-02 -0.664997E-02 -0.169770E-01
  atom #   27
   Hellmann-Feynman              : -0.528138E+00  0.124028E+00 -0.152221E+01
   Ionic forces                  :  0.000000E+00  0.000000E+00  0.000000E+00
   Multipole                     : -0.509597E-01  0.724711E-01 -0.165341E+00
   Pulay + GGA                   :  0.571219E+00 -0.196766E+00  0.170480E+01
   MBD@rsSCS                     :  0.202232E-01  0.166134E-01 -0.121843E-01
   ----------------------------------------------------------------
   Total forces(  27)            :  0.123451E-01  0.163466E-01  0.506474E-02
  atom #   28
   Hellmann-Feynman              :  0.108736E+01 -0.789406E+00  0.172549E+01
   Ionic forces                  :  0.000000E+00  0.000000E+00  0.000000E+00
   Multipole                     : -0.858062E-01  0.143543E-01 -0.144663E+00
   Pulay + GGA                   : -0.999178E+00  0.776922E+00 -0.157279E+01
   MBD@rsSCS                     :  0.706518E-02  0.130336E-01 -0.153188E-01
   ----------------------------------------------------------------
   Total forces(  28)            :  0.944409E-02  0.149038E-01 -0.727548E-02
  atom #   29
   Hellmann-Feynman              :  0.239860E-01  0.478621E-01 -0.280855E-01
   Ionic forces                  :  0.000000E+00  0.000000E+00  0.000000E+00
   Multipole                     :  0.206830E-01 -0.143846E-01  0.308830E-01
   Pulay + GGA                   : -0.538028E-01 -0.394989E-01  0.401604E-04
   MBD@rsSCS                     :  0.664143E-02  0.262797E-02  0.101986E-02
   ----------------------------------------------------------------
   Total forces(  29)            : -0.249231E-02 -0.339343E-02  0.385751E-02
  atom #   30
   Hellmann-Feynman              : -0.736402E-02  0.359206E-01 -0.393818E-01
   Ionic forces                  :  0.000000E+00  0.000000E+00  0.000000E+00
   Multipole                     :  0.342752E-01  0.138467E-01  0.191493E-01
   Pulay + GGA                   : -0.306496E-01 -0.545841E-01  0.235684E-01
   MBD@rsSCS                     : -0.848814E-03  0.413829E-02 -0.508950E-02
   ----------------------------------------------------------------
   Total forces(  30)            : -0.458728E-02 -0.678572E-03 -0.175354E-02
  atom #   31
   Hellmann-Feynman              : -0.245239E-01 -0.190554E-01 -0.434394E-01
   Ionic forces                  :  0.000000E+00  0.000000E+00  0.000000E+00
   Multipole                     :  0.116935E-01 -0.187580E-01 -0.163945E-01
   Pulay + GGA                   :  0.124818E-01  0.405094E-01  0.554690E-01
   MBD@rsSCS                     :  0.102333E-02  0.115239E-01 -0.101883E-01
   ----------------------------------------------------------------
   Total forces(  31)            :  0.674734E-03  0.142199E-01 -0.145532E-01
  atom #   32
   Hellmann-Feynman              : -0.521113E-01 -0.435631E-02 -0.474391E-02
   Ionic forces                  :  0.000000E+00  0.000000E+00  0.000000E+00
   Multipole                     : -0.183315E-01  0.180925E-01  0.197775E-01
   Pulay + GGA                   :  0.660466E-01 -0.962204E-02 -0.158938E-01
   MBD@rsSCS                     :  0.267272E-02  0.103414E-01 -0.143869E-01
   ----------------------------------------------------------------
   Total forces(  32)            : -0.172341E-02  0.144555E-01 -0.152471E-01

  Removing unitary transformations (pure translations, rotations) from forces on atoms.
  Atomic forces before filtering:
  | Net force on center of mass :   0.376293E-03 -0.441378E-03  0.914522E-03 eV/A
  | Net torque on center of mass:  -0.467817E-03 -0.299428E-03 -0.131311E-02 eV
  Atomic forces after filtering:
  | Net force on center of mass :  -0.243915E-17  0.111504E-16  0.278760E-17 eV/A
  | Net torque on center of mass:  -0.354032E-16 -0.405661E-16 -0.921958E-17 eV

  Energy and forces in a compact form:
  | Total energy uncorrected      :         -0.202086837540761E+05 eV
  | Total energy corrected        :         -0.202086837540761E+05 eV  <-- do not rely on this value for anything but (periodic) metals
  | Electronic free energy        :         -0.202086837540761E+05 eV
  Total atomic forces (unitary forces cleaned) [eV/Ang]:
  |   1         -0.196916934142234E-02         -0.506431955361618E-02         -0.710137834460903E-02
  |   2         -0.942618853954056E-02          0.796200984433692E-02          0.482692098864055E-01
  |   3         -0.324030513441320E-01         -0.261031094484565E-02          0.480743453571915E-02
  |   4          0.188317214698056E-02          0.136531027234395E-02          0.559780399573596E-02
  |   5          0.126463457520859E-02         -0.214989077924641E-02          0.789373556690053E-02
  |   6         -0.524329249300122E-02          0.205177460437610E-02          0.102248291466511E-01
  |   7          0.168631756429198E-01          0.487992850950949E-02         -0.118773992943495E-01
  |   8         -0.320902012757319E-02          0.116206849685170E-01          0.318255822846015E-01
  |   9         -0.927728046468708E-03         -0.259779924142883E-01          0.899977735691547E-02
  |  10          0.351187702677096E-02         -0.244383737645216E-01         -0.988501439966776E-02
  |  11          0.406709397838331E-02          0.114745525376788E-01          0.321127985456189E-02
  |  12         -0.591979435613947E-02          0.138105270454200E-01          0.184516134833451E-01
  |  13         -0.543207691905458E-02          0.327878741555526E-01         -0.664858148186558E-02
  |  14          0.764669259777728E-03          0.763123569576678E-02         -0.190490418430494E-01
  |  15         -0.707847790822952E-03          0.688841645645616E-02         -0.178931823814478E-01
  |  16         -0.245655091798656E-01          0.209008983256710E-01          0.122024388209815E-01
  |  17         -0.100979471840748E-01         -0.200568269333481E-01          0.236174076222372E-03
  |  18          0.653076311680955E-02         -0.444066249542007E-01         -0.814140292135071E-02
  |  19          0.320712311496194E-01          0.208332206131594E-03         -0.139579542581306E-01
  |  20          0.298319439721012E-01          0.377730133159725E-02         -0.275063151296412E-02
  |  21         -0.484853214293992E-02          0.248891456715986E-02          0.195769424771862E-01
  |  22         -0.354269275308208E-02         -0.142791041680240E-01         -0.182723906214977E-02
  |  23         -0.954291624193137E-02         -0.639660014674282E-02         -0.420630823392188E-02
  |  24         -0.124983673878393E-02         -0.238089653927311E-01         -0.508131733483566E-02
  |  25          0.543802668235352E-02         -0.789512059242503E-02         -0.158192271972906E-01
  |  26          0.315041062221179E-02         -0.663011964550510E-02         -0.170110904505860E-01
  |  27          0.123465560838096E-01          0.163413607083101E-01          0.504137837894184E-02
  |  28          0.945247317445997E-02          0.149099526276437E-01         -0.729935678851643E-02
  |  29         -0.248591595896678E-02         -0.340899315060165E-02          0.383658233457339E-02
  |  30         -0.456786948610801E-02         -0.676586617075155E-03         -0.177484444942507E-02
  |  31          0.676240435153229E-03          0.142281233481139E-01         -0.145785815654343E-01
  |  32         -0.171287922265194E-02          0.144726318525867E-01         -0.152722306791472E-01

  ------------------------------------ 
  Start decomposition of the XC Energy 
  ------------------------------------ 
  Hartree-Fock part   :          0.000000000 Ha              0.000000000 eV
  ------------------------------------ 
  X Energy            :        -96.977915198 Ha          -2638.903338462 eV
  C Energy GGA        :         -3.868191236 Ha           -105.258839039 eV
  Total XC Energy     :       -100.846106434 Ha          -2744.162177501 eV
  LDA X and C from self-consistent density 
  X Energy LDA        :        -87.994020110 Ha          -2394.439114905 eV
  C Energy LDA        :         -7.531617171 Ha           -204.945730736 eV
  ------------------------------------ 
  End decomposition of the XC Energy 
  ------------------------------------ 
   
  ESP charge fitting starts.
  | Calculation :  00000001  of  00000001
  | Full density
  Computing multipole expansion for total density.
  Generating points for esp charges.
  Partitioning the integration grid into batches with parallel hashing+maxmin method.
  | Number of batches:     3869
  | Maximal batch size:     200
  | Minimal batch size:      51
  | Average batch size:     125.978
  | Standard deviation of batch sizes:      17.731

  Integration load balanced across    32 MPI tasks.
  Work distribution over tasks is as follows:
  Initializing partition tables, free-atom densities, potentials, etc. across the integration grid (initialize_grid_storage).
  | Original list of interatomic distances with          32 x         32 entries is created.
  | Net number of integration points:   487408
  | of which are non-zero points    :   487408
  Summing up potential from multipole expanded  density.
  Summing up the Hartree potential.
  Time summed over all CPUs for potential: real work        6.366 s, elapsed        6.586 s
  Fitting esp charges to potential.
  |
  | ESP charges fitted to the electrostatic potential :
  |
  | Atom         1: C, ESP charge:      0.67342123
  |
  | Atom         2: C, ESP charge:     -0.87388635
  |
  | Atom         3: O, ESP charge:      0.59556325
  |
  | Atom         4: H, ESP charge:     -0.17832105
  |
  | Atom         5: H, ESP charge:     -0.18911526
  |
  | Atom         6: H, ESP charge:     -0.16045511
  |
  | Atom         7: N, ESP charge:      0.80675710
  |
  | Atom         8: C, ESP charge:     -0.38901356
  |
  | Atom         9: C, ESP charge:     -0.54422507
  |
  | Atom        10: O, ESP charge:      0.53419316
  |
  | Atom        11: H, ESP charge:     -0.35690508
  |
  | Atom        12: H, ESP charge:     -0.02597243
  |
  | Atom        13: C, ESP charge:      0.28808995
  |
  | Atom        14: H, ESP charge:     -0.13460717
  |
  | Atom        15: H, ESP charge:     -0.11339210
  |
  | Atom        16: H, ESP charge:      0.03603583
  |
  | Atom        17: N, ESP charge:      0.62024289
  |
  | Atom        18: C, ESP charge:     -0.54847253
  |
  | Atom        19: C, ESP charge:     -0.12583084
  |
  | Atom        20: O, ESP charge:      0.46504324
  |
  | Atom        21: H, ESP charge:     -0.31266245
  |
  | Atom        22: H, ESP charge:      0.03607582
  |
  | Atom        23: C, ESP charge:      0.54137118
  |
  | Atom        24: H, ESP charge:     -0.14313274
  |
  | Atom        25: H, ESP charge:     -0.17253401
  |
  | Atom        26: H, ESP charge:     -0.13831416
  |
  | Atom        27: N, ESP charge:      0.09128862
  |
  | Atom        28: C, ESP charge:      0.47132593
  |
  | Atom        29: H, ESP charge:     -0.25322928
  |
  | Atom        30: H, ESP charge:     -0.17483926
  |
  | Atom        31: H, ESP charge:     -0.14258535
  |
  | Atom        32: H, ESP charge:     -0.18191441

  RRMS:       0.00300474

  Done.

------------------------------------------------------------------------------
  Final output of selected total energy values:

  The following output summarizes some interesting total energy values
  at the end of a run (AFTER all relaxation, molecular dynamics, etc.).

  | Total energy of the DFT / Hartree-Fock s.c.f. calculation      :         -20208.683754076 eV
  | Final zero-broadening corrected energy (caution - metals only) :         -20208.683754076 eV
  | For reference only, the value of 1 Hartree used in FHI-aims is :             27.211384500 eV

  Before relying on these values, please be sure to understand exactly which
  total energy value is referred to by a given number. Different objects may
  all carry the same name 'total energy'. Definitions:

  Total energy of the DFT / Hartree-Fock s.c.f. calculation:
  | Note that this energy does not include ANY quantities calculated after the
  | s.c.f. cycle, in particular not ANY RPA, MP2, etc. many-body perturbation terms.

  Final zero-broadening corrected energy:
  | For metallic systems only, a broadening of the occupation numbers at the Fermi
  | level can be extrapolated back to zero broadening by an electron-gas inspired
  | formula. For all systems that are not real metals, this value can be
  | meaningless and should be avoided.

------------------------------------------------------------------------------
  Methods described in the following list of references were used in this FHI-aims run.
  If you publish the results, please make sure to cite these reference if they apply.
  FHI-aims is an academic code, and for our developers (often, Ph.D. students
  and postdocs), scientific credit in the community is essential.
  Thank you for helping us!

  For any use of FHI-aims, please cite:

    Volker Blum, Ralf Gehrke, Felix Hanke, Paula Havu, Ville Havu,
    Xinguo Ren, Karsten Reuter, and Matthias Scheffler
    'Ab initio molecular simulations with numeric atom-centered orbitals'
    Computer Physics Communications 180, 2175-2196 (2009)
    http://dx.doi.org/10.1016/j.cpc.2009.06.022


  The scalable eigensolver library ELPA was used in your run.
  ELPA is essential especially for large systems on hundreds or thousands of CPUs.
  For ELPA, please cite:

    Andreas Marek, Volker Blum, Rainer Johanni, Ville Havu, Bruno Lang,
    Thomas Auckenthaler, Alexander Heinecke, Hans-Joachim Bungartz, and Hermann Lederer,
    'The ELPA Library - Scalable Parallel Eigenvalue Solutions
    for Electronic Structure Theory and Computational Science'
    The Journal of Physics: Condensed Matter 26, 213201 (2014).
    http://dx.doi.org/10.1088/0953-8984/26/21/213201


  For ELPA's efficient two-stage tridiagonalization used in your run, please cite:

    T. Auckenthaler, V. Blum, H.-J. Bungartz, T. Huckle, R. Johanni, L. Kraemer,
    B. Lang, H. Lederer, and P. R. Willems,
    'Parallel solution of partial symmetric eigenvalue problems'
    'from  electronic structure calculations'
    Parallel Computing 37, 783-794 (2011).
    http://dx.doi.org/10.1016/j.parco.2011.05.002


  For the real-space grid partitioning and parallelization used in this calculation, please cite:

    Ville Havu, Volker Blum, Paula Havu, and Matthias Scheffler,
    'Efficient O(N) integration for all-electron electronic structure calculation'
    'using numerically tabulated basis functions'
    Journal of Computational Physics 228, 8367-8379 (2009).
    http://dx.doi.org/10.1016/j.jcp.2009.08.008

  Of course, there are many other important community references, e.g., those cited in the
  above references. Our list is limited to references that describe implementations in the
  FHI-aims code. The reason is purely practical (length of this list) - please credit others as well.

------------------------------------------------------------
          Leaving FHI-aims.
          Date     :  20170309, Time     :  180643.383

          Computational steps:
          | Number of self-consistency cycles          :           14

          Detailed time accounting                     :  max(cpu_time)    wall_clock(cpu1)
          | Total time                                 :       32.946 s          33.106 s
          | Preparation time                           :        0.232 s           0.234 s
          | Grid partitioning                          :        0.312 s           0.308 s
          | Preloading free-atom quantities on grid    :        0.028 s           0.027 s
          | Free-atom superposition energy             :        0.040 s           0.038 s
          | Total time for integrations                :       10.841 s          10.818 s
          | Total time for solution of K.-S. equations :        0.532 s           0.495 s
          | Total time for density & force components  :        9.501 s           9.484 s
          | Total time for mixing                      :        0.128 s           0.108 s
          | Total time for Hartree multipole update    :        0.068 s           0.058 s
          | Total time for Hartree multipole sum       :        6.396 s           6.388 s
          | Total time for total energy evaluation     :        0.024 s           0.016 s

          Have a nice day.
------------------------------------------------------------
