  MPI-parallelism will be employed.
------------------------------------------------------------
          Invoking FHI-aims ...
          Version 150427
          Git rev.: 9dd23e0 BL: Update Version stamp
          Compiled on 2015/11/03 at 22:05:20 on host eos03.

          When using FHI-aims, please cite the following reference:

          Volker Blum, Ralf Gehrke, Felix Hanke, Paula Havu,
          Ville Havu, Xinguo Ren, Karsten Reuter, and Matthias Scheffler,
          'Ab Initio Molecular Simulations with Numeric Atom-Centered Orbitals: FHI-aims',
          Computer Physics Communications 180, 2175-2196 (2009)

          For any questions about FHI-aims, please visit the aimsclub website
          with its forums and wiki. Contributions to both the forums and the
          wiki are warmly encouraged - they are for you, and everyone is welcome there.

------------------------------------------------------------

  Date     :  20170309, Time     :  180910.250
  Time zero on CPU 1             :   0.312018000000000E+00  s.
  Internal wall clock time zero  :           258314950.250  s.

  Using       32 parallel tasks.
  Task        0 on host eos399 reporting.
  Task        1 on host eos399 reporting.
  Task        2 on host eos399 reporting.
  Task        3 on host eos399 reporting.
  Task        4 on host eos399 reporting.
  Task        5 on host eos399 reporting.
  Task        6 on host eos399 reporting.
  Task        7 on host eos399 reporting.
  Task        8 on host eos399 reporting.
  Task        9 on host eos399 reporting.
  Task       10 on host eos399 reporting.
  Task       11 on host eos399 reporting.
  Task       12 on host eos399 reporting.
  Task       13 on host eos399 reporting.
  Task       14 on host eos399 reporting.
  Task       15 on host eos399 reporting.
  Task       16 on host eos399 reporting.
  Task       17 on host eos399 reporting.
  Task       18 on host eos399 reporting.
  Task       19 on host eos399 reporting.
  Task       20 on host eos399 reporting.
  Task       21 on host eos399 reporting.
  Task       22 on host eos399 reporting.
  Task       23 on host eos399 reporting.
  Task       24 on host eos399 reporting.
  Task       25 on host eos399 reporting.
  Task       26 on host eos399 reporting.
  Task       27 on host eos399 reporting.
  Task       28 on host eos399 reporting.
  Task       29 on host eos399 reporting.
  Task       30 on host eos399 reporting.
  Task       31 on host eos399 reporting.

  Performing system and environment tests:
  | Environment variable OMP_NUM_THREADS correctly set to 1.
  | Stacksize not measured: no C compiler
  | Checking for scalapack...
  | Testing pdtran()...
  | All pdtran() tests passed.

  Obtaining array dimensions for all initial allocations:
  
  -----------------------------------------------------------------------
  Parsing control.in (first pass over file, find array dimensions only).
  The contents of control.in will be repeated verbatim below
  unless switched off by setting 'verbatim_writeout .false.' .
  in the first line of control.in .
  -----------------------------------------------------------------------
  
  #########################################################################################
  #
  # Input for System
  #
  #########################################################################################
  #
  #
  #  Physical model
  #
    xc                 pbe
    many_body_dispersion
    spin               none
    charge             0.
  #
  #  SCF convergence
  #
    occupation_type    gaussian 0.05
    mixer              pulay
      n_max_pulay        10
      charge_mix_param   0.5
    sc_accuracy_rho    1E-4
    sc_accuracy_eev    1E-2
    sc_accuracy_etot   1E-5
    sc_accuracy_forces 1E-4
    sc_iter_limit      1000
  #
  #  ESP charge
  #
    output esp
    esp equal_grid_n 80 80 80
  #
  #
  ################################################################################
  #
  #  FHI-aims code project
  # Volker Blum, Fritz Haber Institute Berlin, 2009
  #
  #  Suggested "tight" defaults for H atom (to be pasted into control.in file)
  #
  ################################################################################
    species        H
  #     global species definitions
      nucleus             1
      mass                1.00794
  #
      l_hartree           6
  #
      cut_pot             4.0  2.0  1.0
      basis_dep_cutoff    1e-4
  #
      radial_base         24 7.0
      radial_multiplier   2
      angular_grids       specified
        division   0.1930   50
        division   0.3175  110
        division   0.4293  194
        division   0.5066  302
        division   0.5626  434
  #      division   0.5922  590
  #      division   0.6227  974
  #      division   0.6868 1202
  #      outer_grid  770
        outer_grid  434
  ################################################################################
  #
  #  Definition of "minimal" basis
  #
  ################################################################################
  #     valence basis states
      valence      1  s   1.
  #     ion occupancy
      ion_occ      1  s   0.5
  ################################################################################
  #
  #  Suggested additional basis functions. For production calculations,
  #  uncomment them one after another (the most important basis functions are
  #  listed first).
  #
  #  Basis constructed for dimers: 0.5 A, 0.7 A, 1.0 A, 1.5 A, 2.5 A
  #
  ################################################################################
  #  "First tier" - improvements: -1014.90 meV to -62.69 meV
       hydro 2 s 2.1
       hydro 2 p 3.5
  #  "Second tier" - improvements: -12.89 meV to -1.83 meV
       hydro 1 s 0.85
       hydro 2 p 3.7
       hydro 2 s 1.2
       hydro 3 d 7
  #  "Third tier" - improvements: -0.25 meV to -0.12 meV
  #     hydro 4 f 11.2
  #     hydro 3 p 4.8
  #     hydro 4 d 9
  #     hydro 3 s 3.2
  ################################################################################
  #
  # For methods that use the localized form of the "resolution of identity" for
  # the two-electron Coulomb operator (RI_method LVL), particularly Hartree-Fock and
  # hybrid density functional calculations, the highest accuracy can be obtained by
  # uncommenting the line beginning with "for_aux"  below, thus adding an extra g radial
  # function to the construction of the product basis set for the expansion.
  # See Ref. New J. Phys. 17, 093020 (2015) for more information, particularly Figs. 1 and 6.
  #
  ################################################################################
  #
  # for_aux hydro 5 g 6.0
  ################################################################################
  #
  #  FHI-aims code project
  # Volker Blum, Fritz Haber Institute Berlin, 2009
  #
  #  Suggested "tight" defaults for C atom (to be pasted into control.in file)
  #
  ################################################################################
    species        C
  #     global species definitions
      nucleus             6
      mass                12.0107
  #
      l_hartree           6
  #
      cut_pot             4.0  2.0  1.0
      basis_dep_cutoff    1e-4
  #
      radial_base         34 7.0
      radial_multiplier   2
      angular_grids specified
        division   0.2187   50
        division   0.4416  110
        division   0.6335  194
        division   0.7727  302
        division   0.8772  434
  #      division   0.9334  590
  #      division   0.9924  770
  #      division   1.0230  974
  #      division   1.5020 1202
  #     outer_grid  974
        outer_grid  434
  ################################################################################
  #
  #  Definition of "minimal" basis
  #
  ################################################################################
  #     valence basis states
      valence      2  s   2.
      valence      2  p   2.
  #     ion occupancy
      ion_occ      2  s   1.
      ion_occ      2  p   1.
  ################################################################################
  #
  #  Suggested additional basis functions. For production calculations,
  #  uncomment them one after another (the most important basis functions are
  #  listed first).
  #
  #  Constructed for dimers: 1.0 A, 1.25 A, 1.5 A, 2.0 A, 3.0 A
  #
  ################################################################################
  #  "First tier" - improvements: -1214.57 meV to -155.61 meV
       hydro 2 p 1.7
       hydro 3 d 6
       hydro 2 s 4.9
  #  "Second tier" - improvements: -67.75 meV to -5.23 meV
       hydro 4 f 9.8
       hydro 3 p 5.2
       hydro 3 s 4.3
       hydro 5 g 14.4
       hydro 3 d 6.2
  #  "Third tier" - improvements: -2.43 meV to -0.60 meV
  #     hydro 2 p 5.6
  #     hydro 2 s 1.4
  #     hydro 3 d 4.9
  #     hydro 4 f 11.2
  #  "Fourth tier" - improvements: -0.39 meV to -0.18 meV
  #     hydro 2 p 2.1
  #     hydro 5 g 16.4
  #     hydro 4 d 13.2
  #     hydro 3 s 13.6
  #     hydro 4 f 17.6
  #  Further basis functions - improvements: -0.08 meV and below
  #     hydro 3 s 2
  #     hydro 3 p 6
  #     hydro 4 d 20
  ################################################################################
  #
  # For methods that use the localized form of the "resolution of identity" for
  # the two-electron Coulomb operator (RI_method LVL), particularly Hartree-Fock and
  # hybrid density functional calculations, the highest accuracy can be obtained by
  # uncommenting the line beginning with "for_aux"  below, thus adding an extra g radial
  # function to the construction of the product basis set for the expansion.
  # See Ref. New J. Phys. 17, 093020 (2015) for more information, particularly Figs. 1 and 6.
  #
  ################################################################################
  #
  # for_aux hydro 5 g 6.0
  ################################################################################
  #
  #  FHI-aims code project
  # Volker Blum, Fritz Haber Institute Berlin, 2009
  #
  #  Suggested "tight" defaults for N atom (to be pasted into control.in file)
  #
  ################################################################################
    species        N
  #     global species definitions
      nucleus             7
      mass                14.0067
  #
      l_hartree           6
  #
      cut_pot             4.0  2.0  1.0
      basis_dep_cutoff    1e-4
  #
      radial_base         35 7.0
      radial_multiplier   2
      angular_grids       specified
        division   0.1841   50
        division   0.3514  110
        division   0.5126  194
        division   0.6292  302
        division   0.6939  434
  #      division   0.7396  590
  #      division   0.7632  770
  #      division   0.8122  974
  #      division   1.1604 1202
  #      outer_grid  974
        outer_grid  434
  ################################################################################
  #
  #  Definition of "minimal" basis
  #
  ################################################################################
  #     valence basis states
      valence      2  s   2.
      valence      2  p   3.
  #     ion occupancy
      ion_occ      2  s   1.
      ion_occ      2  p   2.
  ################################################################################
  #
  #  Suggested additional basis functions. For production calculations,
  #  uncomment them one after another (the most important basis functions are
  #  listed first).
  #
  #  Constructed for dimers: 1.0 A, 1.1 A, 1.5 A, 2.0 A, 3.0 A
  #
  ################################################################################
  #  "First tier" - improvements: -1193.42 meV to -220.60 meV
       hydro 2 p 1.8
       hydro 3 d 6.8
       hydro 3 s 5.8
  #  "Second tier" - improvements: -80.21 meV to -6.86 meV
       hydro 4 f 10.8
       hydro 3 p 5.8
       hydro 1 s 0.8
       hydro 5 g 16
       hydro 3 d 4.9
  #  "Third tier" - improvements: -4.29 meV to -0.53 meV
  #     hydro 3 s 16
  #     ionic 2 p auto
  #     hydro 3 d 6.6
  #     hydro 4 f 11.6
  #  "Fourth tier" - improvements: -0.75 meV to -0.25 meV
  #     hydro 2 p 4.5
  #     hydro 2 s 2.4
  #     hydro 5 g 14.4
  #     hydro 4 d 14.4
  #     hydro 4 f 16.8
  # Further basis functions - -0.21 meV and below
  #     hydro 3 p 14.8
  #     hydro 3 s 4.4
  #     hydro 3 d 19.6
  #     hydro 5 g 12.8
  ################################################################################
  #
  # For methods that use the localized form of the "resolution of identity" for
  # the two-electron Coulomb operator (RI_method LVL), particularly Hartree-Fock and
  # hybrid density functional calculations, the highest accuracy can be obtained by
  # uncommenting the line beginning with "for_aux"  below, thus adding an extra g radial
  # function to the construction of the product basis set for the expansion.
  # See Ref. New J. Phys. 17, 093020 (2015) for more information, particularly Figs. 1 and 6.
  #
  ################################################################################
  #
  # for_aux hydro 5 g 6.0
  ################################################################################
  #
  #  FHI-aims code project
  # Volker Blum, Fritz Haber Institute Berlin, 2009
  #
  #  Suggested "tight" defaults for O atom (to be pasted into control.in file)
  #
  ################################################################################
    species        O
  #     global species definitions
      nucleus             8
      mass                15.9994
  #
      l_hartree           6
  #
      cut_pot             4.0  2.0  1.0
      basis_dep_cutoff    1e-4
  #
      radial_base         36 7.0
      radial_multiplier   2
       angular_grids specified
        division   0.1817   50
        division   0.3417  110
        division   0.4949  194
        division   0.6251  302
        division   0.8014  434
  #      division   0.8507  590
  #      division   0.8762  770
  #      division   0.9023  974
  #      division   1.2339 1202
  #      outer_grid 974
        outer_grid  434
  ################################################################################
  #
  #  Definition of "minimal" basis
  #
  ################################################################################
  #     valence basis states
      valence      2  s   2.
      valence      2  p   4.
  #     ion occupancy
      ion_occ      2  s   1.
      ion_occ      2  p   3.
  ################################################################################
  #
  #  Suggested additional basis functions. For production calculations,
  #  uncomment them one after another (the most important basis functions are
  #  listed first).
  #
  #  Constructed for dimers: 1.0 A, 1.208 A, 1.5 A, 2.0 A, 3.0 A
  #
  ################################################################################
  #  "First tier" - improvements: -699.05 meV to -159.38 meV
       hydro 2 p 1.8
       hydro 3 d 7.6
       hydro 3 s 6.4
  #  "Second tier" - improvements: -49.91 meV to -5.39 meV
       hydro 4 f 11.6
       hydro 3 p 6.2
       hydro 3 d 5.6
       hydro 5 g 17.6
       hydro 1 s 0.75
  #  "Third tier" - improvements: -2.83 meV to -0.50 meV
  #     ionic 2 p auto
  #     hydro 4 f 10.8
  #     hydro 4 d 4.7
  #     hydro 2 s 6.8
  #  "Fourth tier" - improvements: -0.40 meV to -0.12 meV
  #     hydro 3 p 5
  #     hydro 3 s 3.3
  #     hydro 5 g 15.6
  #     hydro 4 f 17.6
  #     hydro 4 d 14
  # Further basis functions - -0.08 meV and below
  #     hydro 3 s 2.1
  #     hydro 4 d 11.6
  #     hydro 3 p 16
  #     hydro 2 s 17.2
  ################################################################################
  #
  # For methods that use the localized form of the "resolution of identity" for
  # the two-electron Coulomb operator (RI_method LVL), particularly Hartree-Fock and
  # hybrid density functional calculations, the highest accuracy can be obtained by
  # uncommenting the line beginning with "for_aux"  below, thus adding an extra g radial
  # function to the construction of the product basis set for the expansion.
  # See Ref. New J. Phys. 17, 093020 (2015) for more information, particularly Figs. 1 and 6.
  #
  ################################################################################
  #
  # for_aux hydro 5 g 6.0
  
  -----------------------------------------------------------------------
  Completed first pass over input file control.in .
  -----------------------------------------------------------------------
  
  
  -----------------------------------------------------------------------
  Parsing geometry.in (first pass over file, find array dimensions only).
  The contents of geometry.in will be repeated verbatim below
  unless switched off by setting 'verbatim_writeout .false.' .
  in the first line of geometry.in .
  -----------------------------------------------------------------------
  
  #
  # This is the geometry file that corresponds to the current relaxation step.
  # If you do not want this file to be written, set the "write_restart_geometry" flag to .false.
  #
  atom      -0.11375368      1.02582805     -0.19760642 C
  atom       0.14992552      0.68486111      1.26016175 C
  atom       1.27968750      0.73983193      1.74572281 O
  atom      -0.69773920      1.95357299     -0.29547597 H
  atom      -0.66661426      0.23219060     -0.71743428 H
  atom       0.85384087      1.17238526     -0.68451081 H
  atom      -0.92923953      0.32872792      2.02676558 N
  atom      -2.34310901      0.29368986      1.64699383 C
  atom      -3.17950604      0.90449678      2.80501921 C
  atom      -3.88232697      0.19526684      3.51981236 O
  atom      -0.69216039      0.07039445      2.98224931 H
  atom      -2.45884698      0.93807915      0.76444836 H
  atom      -2.82538592     -1.11407868      1.30741008 C
  atom      -3.87499449     -1.09927369      0.98825194 H
  atom      -2.75502038     -1.76784851      2.18429105 H
  atom      -2.21337486     -1.53348977      0.49851359 H
  atom      -3.08014802      2.25051061      3.00031530 N
  atom      -2.24574665      3.21451108      2.30310470 C
  atom      -1.79543314      4.25120723      3.34921015 C
  atom      -2.54397737      4.57581133      4.27060360 O
  atom      -3.57416230      2.62503497      3.81179486 H
  atom      -1.36584321      2.69672177      1.91004270 H
  atom      -2.98646252      3.92883013      1.15869519 C
  atom      -2.33178366      4.64787282      0.64715655 H
  atom      -3.85492086      4.47178727      1.55254579 H
  atom      -3.34211477      3.19903838      0.41951749 H
  atom      -0.56703077      4.80865181      3.17426542 N
  atom       0.46405146      4.42299461      2.21782603 C
  atom      -0.32855930      5.49420328      3.88440513 H
  atom       0.11522776      4.51614867      1.17962359 H
  atom       0.83194349      3.39942516      2.38037723 H
  atom       1.31140367      5.10603361      2.33741487 H
  
  -----------------------------------------------------------------------
  Completed first pass over input file geometry.in .
  -----------------------------------------------------------------------
  

  Basic array size parameters:
  | Number of species                 :        4
  | Number of atoms                   :       32
  | Max. basis fn. angular momentum   :        4
  | Max. atomic/ionic basis occupied n:        2
  | Max. number of basis fn. types    :        2
  | Max. radial fns per species/type  :        8
  | Max. logarithmic grid size        :     1301
  | Max. radial integration grid size :       73
  | Max. angular integration grid size:      434
  | Max. angular grid division number :        8
  | Radial grid for Hartree potential :     1301
  | Number of spin channels           :        1

------------------------------------------------------------
          Reading file control.in.
------------------------------------------------------------
  XC: Using PBE gradient-corrected functionals.
  Self-consistent screening and van der Waals energy (TS, TS+SCS,MBD) module
  Spin treatment: No spin polarisation.
  Charge =   0.000000E+00: Neutral system requested explicitly.
  Occupation type: Gaussian broadening, width =   0.500000E-01 eV.
  Using pulay charge density mixing.
  Pulay mixing - number of memorized iterations:   10
  Charge density mixing - mixing parameter:     0.5000
  Convergence accuracy of self-consistent charge density:  0.1000E-03
  Convergence accuracy of sum of eigenvalues:  0.1000E-01
  Convergence accuracy of total energy:  0.1000E-04
  Convergence accuracy of forces:  0.1000E-03
  Maximum number of s.-c. iterations  :  1000
  Fitting ESP-charges to Potential. 
  | Esp charge output options: 
  | ESP Grid method: 3, cubic grid
  | Number of points in x, ,y, z:  0080 0080 0080
  |
 
  Reading configuration options for species H                   .
  | Found nuclear charge :   1.0000
  | Found atomic mass :    1.00794000000000      amu
  | Found l_max for Hartree potential  :   6
  | Found cutoff potl. onset [A], width [A], scale factor :    4.00000    2.00000    1.00000
  | Threshold for basis-dependent cutoff potential is   0.100000E-03
  | Found data for basic radial integration grid :    24 points, outermost radius =    7.000 A
  | Found multiplier for basic radial grid :   2
  | Found angular grid specification: user-specified.
  | Specified grid contains     6 separate shells.
  | Check grid settings after all constraints further below.
  | Found free-atom valence shell :  1 s   1.000
  | No ionic wave fns used. Skipping ion_occ.
  | Found hydrogenic basis function :  2 s   2.100
  | Found hydrogenic basis function :  2 p   3.500
  | Found hydrogenic basis function :  1 s   0.850
  | Found hydrogenic basis function :  2 p   3.700
  | Found hydrogenic basis function :  2 s   1.200
  | Found hydrogenic basis function :  3 d   7.000
  Species H                   : Missing cutoff potential type.
  Defaulting to exp(1/x)/(1-x)^2 type cutoff potential.
  Species H : No 'logarithmic' tag. Using default grid for free atom:
  | Default logarithmic grid data [bohr] : 0.1000E-03 0.1000E+03 0.1012E+01
  Species H : On-site basis accuracy parameter (for Gram-Schmidt orthonormalisation) not specified.
  Using default value basis_acc =  0.1000000E-03.
  Species H                   : Using default innermost maximum threshold i_radial=  2 for radial functions.
  Species H                   : Default cutoff onset for free atom density etc. : 0.40000000E+01 AA.
  Species H                   : Basic radial grid will be enhanced according to radial_multiplier =   2, to contain    49 grid points.
 
  Reading configuration options for species C                   .
  | Found nuclear charge :   6.0000
  | Found atomic mass :    12.0107000000000      amu
  | Found l_max for Hartree potential  :   6
  | Found cutoff potl. onset [A], width [A], scale factor :    4.00000    2.00000    1.00000
  | Threshold for basis-dependent cutoff potential is   0.100000E-03
  | Found data for basic radial integration grid :    34 points, outermost radius =    7.000 A
  | Found multiplier for basic radial grid :   2
  | Found angular grid specification: user-specified.
  | Specified grid contains     6 separate shells.
  | Check grid settings after all constraints further below.
  | Found free-atom valence shell :  2 s   2.000
  | Found free-atom valence shell :  2 p   2.000
  | No ionic wave fns used. Skipping ion_occ.
  | No ionic wave fns used. Skipping ion_occ.
  | Found hydrogenic basis function :  2 p   1.700
  | Found hydrogenic basis function :  3 d   6.000
  | Found hydrogenic basis function :  2 s   4.900
  | Found hydrogenic basis function :  4 f   9.800
  | Found hydrogenic basis function :  3 p   5.200
  | Found hydrogenic basis function :  3 s   4.300
  | Found hydrogenic basis function :  5 g  14.400
  | Found hydrogenic basis function :  3 d   6.200
  Species C                   : Missing cutoff potential type.
  Defaulting to exp(1/x)/(1-x)^2 type cutoff potential.
  Species C : No 'logarithmic' tag. Using default grid for free atom:
  | Default logarithmic grid data [bohr] : 0.1000E-03 0.1000E+03 0.1012E+01
  Species C : On-site basis accuracy parameter (for Gram-Schmidt orthonormalisation) not specified.
  Using default value basis_acc =  0.1000000E-03.
  Species C                   : Using default innermost maximum threshold i_radial=  2 for radial functions.
  Species C                   : Default cutoff onset for free atom density etc. : 0.40000000E+01 AA.
  Species C                   : Basic radial grid will be enhanced according to radial_multiplier =   2, to contain    69 grid points.
 
  Reading configuration options for species N                   .
  | Found nuclear charge :   7.0000
  | Found atomic mass :    14.0067000000000      amu
  | Found l_max for Hartree potential  :   6
  | Found cutoff potl. onset [A], width [A], scale factor :    4.00000    2.00000    1.00000
  | Threshold for basis-dependent cutoff potential is   0.100000E-03
  | Found data for basic radial integration grid :    35 points, outermost radius =    7.000 A
  | Found multiplier for basic radial grid :   2
  | Found angular grid specification: user-specified.
  | Specified grid contains     6 separate shells.
  | Check grid settings after all constraints further below.
  | Found free-atom valence shell :  2 s   2.000
  | Found free-atom valence shell :  2 p   3.000
  | No ionic wave fns used. Skipping ion_occ.
  | No ionic wave fns used. Skipping ion_occ.
  | Found hydrogenic basis function :  2 p   1.800
  | Found hydrogenic basis function :  3 d   6.800
  | Found hydrogenic basis function :  3 s   5.800
  | Found hydrogenic basis function :  4 f  10.800
  | Found hydrogenic basis function :  3 p   5.800
  | Found hydrogenic basis function :  1 s   0.800
  | Found hydrogenic basis function :  5 g  16.000
  | Found hydrogenic basis function :  3 d   4.900
  Species N                   : Missing cutoff potential type.
  Defaulting to exp(1/x)/(1-x)^2 type cutoff potential.
  Species N : No 'logarithmic' tag. Using default grid for free atom:
  | Default logarithmic grid data [bohr] : 0.1000E-03 0.1000E+03 0.1012E+01
  Species N : On-site basis accuracy parameter (for Gram-Schmidt orthonormalisation) not specified.
  Using default value basis_acc =  0.1000000E-03.
  Species N                   : Using default innermost maximum threshold i_radial=  2 for radial functions.
  Species N                   : Default cutoff onset for free atom density etc. : 0.40000000E+01 AA.
  Species N                   : Basic radial grid will be enhanced according to radial_multiplier =   2, to contain    71 grid points.
 
  Reading configuration options for species O                   .
  | Found nuclear charge :   8.0000
  | Found atomic mass :    15.9994000000000      amu
  | Found l_max for Hartree potential  :   6
  | Found cutoff potl. onset [A], width [A], scale factor :    4.00000    2.00000    1.00000
  | Threshold for basis-dependent cutoff potential is   0.100000E-03
  | Found data for basic radial integration grid :    36 points, outermost radius =    7.000 A
  | Found multiplier for basic radial grid :   2
  | Found angular grid specification: user-specified.
  | Specified grid contains     6 separate shells.
  | Check grid settings after all constraints further below.
  | Found free-atom valence shell :  2 s   2.000
  | Found free-atom valence shell :  2 p   4.000
  | No ionic wave fns used. Skipping ion_occ.
  | No ionic wave fns used. Skipping ion_occ.
  | Found hydrogenic basis function :  2 p   1.800
  | Found hydrogenic basis function :  3 d   7.600
  | Found hydrogenic basis function :  3 s   6.400
  | Found hydrogenic basis function :  4 f  11.600
  | Found hydrogenic basis function :  3 p   6.200
  | Found hydrogenic basis function :  3 d   5.600
  | Found hydrogenic basis function :  5 g  17.600
  | Found hydrogenic basis function :  1 s   0.750
  Species O                   : Missing cutoff potential type.
  Defaulting to exp(1/x)/(1-x)^2 type cutoff potential.
  Species O : No 'logarithmic' tag. Using default grid for free atom:
  | Default logarithmic grid data [bohr] : 0.1000E-03 0.1000E+03 0.1012E+01
  Species O : On-site basis accuracy parameter (for Gram-Schmidt orthonormalisation) not specified.
  Using default value basis_acc =  0.1000000E-03.
  Species O                   : Using default innermost maximum threshold i_radial=  2 for radial functions.
  Species O                   : Default cutoff onset for free atom density etc. : 0.40000000E+01 AA.
  Species O                   : Basic radial grid will be enhanced according to radial_multiplier =   2, to contain    73 grid points.
 
  Finished reading input file 'control.in'. Consistency checks are next.
 
  Target number of points in a grid batch is not set. Defaulting to  100
  Method for grid partitioning is not set. Defaulting to parallel hash+maxmin partitioning.
  Batch size limit is not set. Defaulting to    200
  By default, will store active basis functions for each batch.
  If in need of memory, prune_basis_once .false. can be used to disable this option.
  communication_type for Hartree potential was not specified.
  Defaulting to calc_hartree .
  Pulay mixer: Number of initial linear mixing iterations not set.
  Defaulting to    0 iterations.
  Work space size for distributed Hartree potential not set.
  Defaulting to   0.200000E+03 MB.
  Algorithm-dependent basis array size parameters:
  | n_max_pulay                         :       10
  Geometry relaxation not requested: no relaxation will be performed.
  Handling of forces: Unphysical translation and rotation will be removed from forces.
  No accuracy limit for integral partition fn. given. Defaulting to  0.1000E-14.
  No threshold value for u(r) in integrations given. Defaulting to  0.1000E-05.
  No accuracy for occupation numbers given. Defaulting to  0.1000E-07.
  No threshold value for occupation numbers given. Defaulting to  0.0000E+00.
  No accuracy for fermi level given. Defaulting to  0.1000E-19.
  Maximum # of iterations to find E_F not set. Defaulting to  200.
  Preferred method for the eigenvalue solver ('KS_method') not specified in 'control.in'.
  Calling blacs routine to test compilation state
  Since scalapack support is enabled, defaulting to 'elpa'.
  Preferred method for the MBD eigenvalue solver ('mbd_eigensolver') not specified in 'control.in'.
  Calling blacs routine to test compilation state
  Since scalapack support is enabled, defaulting to 'scaLAPACK'.
  Will not use alltoall communication since running on < 1024 CPUs.
  Threshold for basis singularities not set.
  Default threshold for basis singularities:  0.1000E-04
  partition_type (choice of integration weights) for integrals was not specified.
  | Using a version of the partition function of Stratmann and coworkers ('stratmann_smoother').
  | At each grid point, the set of atoms used to build the partition table is smoothly restricted to
  | only those atoms whose free-atom density would be non-zero at that grid point.
  Partitioning for Hartree potential was not defined. Using partition_type for integrals.
  | Adjusted default value of keyword multip_moments_threshold to:       0.10000000E-11
  | This value may affect high angular momentum components of the Hartree potential in periodic systems.
  No q(lm)/r^(l+1) cutoff set for long-range Hartree potential.
  | Using default value of  0.100000E-09 .
  | Verify using the multipole_threshold keyword.
  Defaulting to new monopole extrapolation.
  Density update method: automatic selection selected.
------------------------------------------------------------


------------------------------------------------------------
          Reading geometry description geometry.in.
------------------------------------------------------------
 * Warning! You did not set the 'relativistic' flag in input file 'control.in'.
 * Since you are not attempting to treat any elements beyond Ca(Z=20), FHI-aims
 * will default to 'relativistic none'.
 * You must ensure that this is really what you want!!
 * For example, DO NOT compute total-energy differences between results from
 * different settings of the 'relativistic' flag.
  Input structure read successfully.
  The structure contains       32 atoms,  and a total of        116.000 electrons.

  Input geometry:
  | No unit cell requested.
  | Atomic structure:
  |       Atom                x [A]            y [A]            z [A]
  |    1: Species C             -0.113754         1.025828        -0.197606
  |    2: Species C              0.149926         0.684861         1.260162
  |    3: Species O              1.279688         0.739832         1.745723
  |    4: Species H             -0.697739         1.953573        -0.295476
  |    5: Species H             -0.666614         0.232191        -0.717434
  |    6: Species H              0.853841         1.172385        -0.684511
  |    7: Species N             -0.929240         0.328728         2.026766
  |    8: Species C             -2.343109         0.293690         1.646994
  |    9: Species C             -3.179506         0.904497         2.805019
  |   10: Species O             -3.882327         0.195267         3.519812
  |   11: Species H             -0.692160         0.070394         2.982249
  |   12: Species H             -2.458847         0.938079         0.764448
  |   13: Species C             -2.825386        -1.114079         1.307410
  |   14: Species H             -3.874994        -1.099274         0.988252
  |   15: Species H             -2.755020        -1.767849         2.184291
  |   16: Species H             -2.213375        -1.533490         0.498514
  |   17: Species N             -3.080148         2.250511         3.000315
  |   18: Species C             -2.245747         3.214511         2.303105
  |   19: Species C             -1.795433         4.251207         3.349210
  |   20: Species O             -2.543977         4.575811         4.270604
  |   21: Species H             -3.574162         2.625035         3.811795
  |   22: Species H             -1.365843         2.696722         1.910043
  |   23: Species C             -2.986463         3.928830         1.158695
  |   24: Species H             -2.331784         4.647873         0.647157
  |   25: Species H             -3.854921         4.471787         1.552546
  |   26: Species H             -3.342115         3.199038         0.419517
  |   27: Species N             -0.567031         4.808652         3.174265
  |   28: Species C              0.464051         4.422995         2.217826
  |   29: Species H             -0.328559         5.494203         3.884405
  |   30: Species H              0.115228         4.516149         1.179624
  |   31: Species H              0.831943         3.399425         2.380377
  |   32: Species H              1.311404         5.106034         2.337415
  |

  | The smallest distance between any two atoms is         1.01545451 AA.
  |
  | The first atom of this pair is atom number                     27 .
  | The second atom of this pair is atom number                    29 .

  Number of empty states per atom not set in control.in - providing a guess from actual geometry.
  | Total number of empty states used during s.c.f. cycle:       71
  If you use a very high smearing, use empty_states (per atom!) in control.in to increase this value.

  Structure-dependent array size parameters: 
  | Maximum number of distinct radial functions  :       40
  | Maximum number of basis functions            :      840
  | Number of Kohn-Sham states (occupied + empty):      129
------------------------------------------------------------

------------------------------------------------------------
          Preparing all fixed parts of the calculation.
------------------------------------------------------------
  Determining machine precision:
    2.225073858507201E-308
  Setting up grids for atomic and cluster calculations.

  Creating wave function, potential, and density for free atoms.

  Species: H

  List of occupied orbitals and eigenvalues:
    n    l              occ      energy [Ha]    energy [eV]
    1    0           1.0000        -0.238382        -6.4867


  Species: C

  List of occupied orbitals and eigenvalues:
    n    l              occ      energy [Ha]    energy [eV]
    1    0           2.0000       -10.041232      -273.2358
    2    0           2.0000        -0.504327       -13.7234
    2    1           2.0000        -0.193750        -5.2722


  Species: N

  List of occupied orbitals and eigenvalues:
    n    l              occ      energy [Ha]    energy [eV]
    1    0           2.0000       -14.129007      -384.4699
    2    0           2.0000        -0.681802       -18.5528
    2    1           3.0000        -0.260543        -7.0897


  Species: O

  List of occupied orbitals and eigenvalues:
    n    l              occ      energy [Ha]    energy [eV]
    1    0           2.0000       -18.898576      -514.2564
    2    0           2.0000        -0.878795       -23.9132
    2    1           4.0000        -0.332075        -9.0362

  Creating fixed part of basis set: Ionic, confined, hydrogenic.
 
  H                    hydrogenic:
 
  List of hydrogenic basis orbitals: 
    n    l      effective z      eigenvalue [eV]  inner max. [A]     outer max. [A]     outer radius [A]   
    2    0         2.100000       -14.9965           0.193243           1.317208           5.373006
    2    1         3.500000       -41.6672           0.602369           0.602369           4.056063
    1    0         0.850000        -9.8292           0.624871           0.624871           5.373006
    2    1         3.700000       -46.5653           0.573622           0.573622           3.910002
    2    0         1.200000        -4.5995           0.334980           2.228188           5.505995
    3    2         7.000000       -74.0753           0.680699           0.680699           3.769201
 
 
  C                    hydrogenic:
 
  List of hydrogenic basis orbitals: 
    n    l      effective z      eigenvalue [eV]  inner max. [A]     outer max. [A]     outer radius [A]   
    2    1         1.700000        -9.8152           1.245706           1.245706           5.401630
    3    2         6.000000       -54.4226           0.792453           0.792453           4.178599
    2    0         4.900000       -81.6681           0.082559           0.562749           3.353238
    4    3         9.800000       -81.6681           0.863254           0.863254           4.028125
    3    1         5.200000       -40.8774           0.305389           1.215618           4.898362
    3    0         4.300000       -27.9508           0.091041           1.610311           5.401630
    5    4        14.400000      -112.8510           0.917666           0.917666           3.883070
    3    2         6.200000       -58.1113           0.763917           0.763917           4.077671
 
 
  N                    hydrogenic:
 
  List of hydrogenic basis orbitals: 
    n    l      effective z      eigenvalue [eV]  inner max. [A]     outer max. [A]     outer radius [A]   
    2    1         1.800000       -11.0118           1.177451           1.177451           5.427479
    3    2         6.800000       -69.9029           0.704619           0.704619           3.854246
    3    0         5.800000       -50.8549           0.067388           1.191934           4.629968
    4    3        10.800000       -99.1854           0.786571           0.786571           3.761152
    3    1         5.800000       -50.8549           0.274880           1.094176           4.518138
    1    0         0.800000        -8.7059           0.662839           0.662839           5.361532
    5    4        16.000000      -139.3222           0.825990           0.825990           3.625711
    3    2         4.900000       -36.2967           0.968267           0.968267           4.862000
 
 
  O                    hydrogenic:
 
  List of hydrogenic basis orbitals: 
    n    l      effective z      eigenvalue [eV]  inner max. [A]     outer max. [A]     outer radius [A]   
    2    1         1.800000       -11.0118           1.178562           1.178562           5.432602
    3    2         7.600000       -87.3182           0.624125           0.624125           3.541477
    3    0         6.400000       -61.9209           0.061167           1.081902           4.306578
    4    3        11.600000      -114.4238           0.731631           0.731631           3.585037
    3    1         6.200000       -58.1113           0.255680           1.030270           4.306578
    3    2         5.600000       -47.4081           0.847233           0.847233           4.413171
    5    4        17.600000      -168.5799           0.749740           0.749740           3.372465
    1    0         0.750000        -7.6499           0.705284           0.705284           5.366593
 

  Adding cutoff potential to free-atom effective potential.
  Creating atomic-like basis functions for current effective potential.

  Species H                   :

  List of atomic basis orbitals and eigenvalues:
    n    l      energy [Ha]    energy [eV]    outer radius [A]
    1    0        -0.238382        -6.4867       5.373006


  Species C                   :

  List of atomic basis orbitals and eigenvalues:
    n    l      energy [Ha]    energy [eV]    outer radius [A]
    1    0       -10.041232      -273.2358       1.934409
    2    0        -0.504327       -13.7234       5.271162
    2    1        -0.193750        -5.2722       5.401630


  Species N                   :

  List of atomic basis orbitals and eigenvalues:
    n    l      energy [Ha]    energy [eV]    outer radius [A]
    1    0       -14.129007      -384.4699       1.637919
    2    0        -0.681802       -18.5528       5.168461
    2    1        -0.260543        -7.0897       5.361532


  Species O                   :

  List of atomic basis orbitals and eigenvalues:
    n    l      energy [Ha]    energy [eV]    outer radius [A]
    1    0       -18.898576      -514.2564       1.415765
    2    0        -0.878795       -23.9132       5.048385
    2    1        -0.332075        -9.0362       5.301386

  Assembling full basis from fixed parts.
  | Species H :   atomic orbital   1 s accepted.
  | Species H :    hydro orbital   2 s accepted.
  | Species H :    hydro orbital   1 s accepted.
  | Species H :    hydro orbital   2 s accepted.
  | Species H :    hydro orbital   2 p accepted.
  | Species H :    hydro orbital   2 p accepted.
  | Species H :    hydro orbital   3 d accepted.
  | Species C :   atomic orbital   1 s accepted.
  | Species C :    hydro orbital   2 s accepted.
  | Species C :   atomic orbital   2 s accepted.
  | Species C :    hydro orbital   3 s accepted.
  | Species C :    hydro orbital   3 p accepted.
  | Species C :   atomic orbital   2 p accepted.
  | Species C :    hydro orbital   2 p accepted.
  | Species C :    hydro orbital   3 d accepted.
  | Species C :    hydro orbital   3 d accepted.
  | Species C :    hydro orbital   4 f accepted.
  | Species C :    hydro orbital   5 g accepted.
  | Species N :   atomic orbital   1 s accepted.
  | Species N :    hydro orbital   3 s accepted.
  | Species N :   atomic orbital   2 s accepted.
  | Species N :    hydro orbital   1 s accepted.
  | Species N :    hydro orbital   3 p accepted.
  | Species N :   atomic orbital   2 p accepted.
  | Species N :    hydro orbital   2 p accepted.
  | Species N :    hydro orbital   3 d accepted.
  | Species N :    hydro orbital   3 d accepted.
  | Species N :    hydro orbital   4 f accepted.
  | Species N :    hydro orbital   5 g accepted.
  | Species O :   atomic orbital   1 s accepted.
  | Species O :    hydro orbital   3 s accepted.
  | Species O :   atomic orbital   2 s accepted.
  | Species O :    hydro orbital   1 s accepted.
  | Species O :    hydro orbital   3 p accepted.
  | Species O :   atomic orbital   2 p accepted.
  | Species O :    hydro orbital   2 p accepted.
  | Species O :    hydro orbital   3 d accepted.
  | Species O :    hydro orbital   3 d accepted.
  | Species O :    hydro orbital   4 f accepted.
  | Species O :    hydro orbital   5 g accepted.
 
  Basis size parameters after reduction:
  | Total number of radial functions:       40
  | Total number of basis functions :      840
 
  Testing on-site integration grid accuracy.
  |  Species  Function  <phi|h_atom|phi> (log., in eV)  <phi|h_atom|phi> (rad., in eV)
           1        1                 -6.4869821809                 -6.4870742227
           1        2                 13.5044133542                 13.5041049177
           1        3                 32.7854418792                 32.7779770519
           1        4                 33.7995553101                 33.7152624900 ***
           1        5                 28.8558651799                 28.8558652046
           1        6                 59.6361831893                 59.6362535845
           1        7                 60.2733718049                 60.2733715484
           2        8               -273.2358277112               -273.2358261765
           2        9                -10.7624923123                -10.7625144012
           2       10                 17.4634079027                 17.4634252127
           2       11                 53.0363661832                 53.0366180446
           2       12                 15.0981351967                 15.0981317714
           2       13                  3.8522181899                  3.8522770949
           2       14                 12.1181835661                 12.1206868578
           2       15                 29.4320778347                 29.4320780959
           2       16                 54.8753777694                 54.8752901936
           2       17                 59.3533975461                 59.3533974833
           2       18                 93.4537491195                 93.4537492066
           3       19               -384.4698526889               -384.4698499465
           3       20                 12.5691022037                 12.5690910168
           3       21                -15.7489097511                -15.7489165588
           3       22                 27.0978334940                 27.0985589490
           3       23                 18.5949116966                 18.5949125562
           3       24                  1.2212828291                  1.2212855301
           3       25                 13.4428926797                 13.4434051125
           3       26                 35.9380614500                 35.9380613666
           3       27                 39.9231532098                 39.9231654735
           3       28                 72.9957335806                 72.9957336833
           3       29                116.4231321147                116.4231321431
           4       30               -514.2564144315               -514.2564099626
           4       31                 15.1726678541                 15.1726530877
           4       32                -21.5447785304                -21.5447874973
           4       33                 14.4944558459                 14.4944698284
           4       34                 20.8882174564                 20.8882178906
           4       35                 -2.4850315908                 -2.4850322289
           4       36                 13.8600193195                 13.8599826966
           4       37                 45.8243383616                 45.8243383675
           4       38                 52.1840606465                 52.1840622440
           4       39                 85.4074185510                 85.4074185819
           4       40                142.0983717302                142.0983717339
 * Note: Onsite integrals marked "***" above are less accurate than
 * onsite_accuracy_threshold =    0.03000 eV. Usually, this is harmless.
 * When in doubt, tighten the "radial" and/or "radial_multiplier" flags to check.

  Preparing densities etc. for the partition functions (integrals / Hartree potential).

  Preparations completed.
  max(cpu_time)          :      0.236 s.
  Wall clock time (cpu1) :      0.237 s.
------------------------------------------------------------

------------------------------------------------------------
          Begin self-consistency loop: Initialization.

          Date     :  20170309, Time     :  180911.284
------------------------------------------------------------

  Initializing index lists of integration centers etc. from given atomic structure:
  | Number of centers in hartree potential         :        32
  | Number of centers in hartree multipole         :        32
  | Number of centers in electron density summation:        32
  | Number of centers in basis integrals           :        32
  | Number of centers in integrals                 :        32
  | Number of centers in hamiltonian               :        32
  Using modified Scalapack Eigenvalue solver (ELPA)
  * Using 32 tasks for Scalapack Eigenvalue solver.
  Detailed listing of tasks and assigned k-points:
  (for non-periodic systems, the "k-point" denotes an internal label only)
   Task     0 k-point     1 on eos399
   Task     1 k-point     1 on eos399
   Task     2 k-point     1 on eos399
   Task     3 k-point     1 on eos399
   Task     4 k-point     1 on eos399
   Task     5 k-point     1 on eos399
   Task     6 k-point     1 on eos399
   Task     7 k-point     1 on eos399
   Task     8 k-point     1 on eos399
   Task     9 k-point     1 on eos399
   Task    10 k-point     1 on eos399
   Task    11 k-point     1 on eos399
   Task    12 k-point     1 on eos399
   Task    13 k-point     1 on eos399
   Task    14 k-point     1 on eos399
   Task    15 k-point     1 on eos399
   Task    16 k-point     1 on eos399
   Task    17 k-point     1 on eos399
   Task    18 k-point     1 on eos399
   Task    19 k-point     1 on eos399
   Task    20 k-point     1 on eos399
   Task    21 k-point     1 on eos399
   Task    22 k-point     1 on eos399
   Task    23 k-point     1 on eos399
   Task    24 k-point     1 on eos399
   Task    25 k-point     1 on eos399
   Task    26 k-point     1 on eos399
   Task    27 k-point     1 on eos399
   Task    28 k-point     1 on eos399
   Task    29 k-point     1 on eos399
   Task    30 k-point     1 on eos399
   Task    31 k-point     1 on eos399
  Tasks:    32 split into      8 X      4 BLACS grid
  Calculating blocksize based on n_basis =          840 max_nprow =            8 max_npcol =            4
  Scalapack blocksize set to:           16
  Required Scalapack workspace - INTEGER:            1 REAL:             1
  Partitioning the integration grid into batches with parallel hashing+maxmin method.
  | Number of batches:     4945
  | Maximal batch size:     200
  | Minimal batch size:      50
  | Average batch size:     106.720
  | Standard deviation of batch sizes:      32.698

  Integration load balanced across    32 MPI tasks.
  Work distribution over tasks is as follows:
  Task     0 has      16520 integration points.
  Task     1 has      16520 integration points.
  Task     2 has      16488 integration points.
  Task     3 has      16611 integration points.
  Task     4 has      16517 integration points.
  Task     5 has      16515 integration points.
  Task     6 has      16445 integration points.
  Task     7 has      16490 integration points.
  Task     8 has      16456 integration points.
  Task     9 has      16518 integration points.
  Task    10 has      16447 integration points.
  Task    11 has      16505 integration points.
  Task    12 has      16557 integration points.
  Task    13 has      16523 integration points.
  Task    14 has      16520 integration points.
  Task    15 has      16438 integration points.
  Task    16 has      16442 integration points.
  Task    17 has      16500 integration points.
  Task    18 has      16445 integration points.
  Task    19 has      16450 integration points.
  Task    20 has      16507 integration points.
  Task    21 has      16441 integration points.
  Task    22 has      16545 integration points.
  Task    23 has      16479 integration points.
  Task    24 has      16521 integration points.
  Task    25 has      16437 integration points.
  Task    26 has      16459 integration points.
  Task    27 has      16440 integration points.
  Task    28 has      16533 integration points.
  Task    29 has      16444 integration points.
  Task    30 has      16509 integration points.
  Task    31 has      16506 integration points.
  Initializing partition tables, free-atom densities, potentials, etc. across the integration grid (initialize_grid_storage).
  | initialize_grid_storage: Actual outermost partition radius vs. multipole_radius_free
  | (-- VB: in principle, multipole_radius_free should be larger, hence this output)
  | Species        1: Confinement radius =              6.000000000000000 AA, multipole_radius_free =              6.071692442739658 AA.
  | Species        1: outer_partition_radius set to              6.071692442739658 AA .
  | Species        2: Confinement radius =              6.000000000000000 AA, multipole_radius_free =              6.029870734432609 AA.
  | Species        2: outer_partition_radius set to              6.029870734432609 AA .
  | Species        3: Confinement radius =              6.000000000000000 AA, multipole_radius_free =              6.058726835495003 AA.
  | Species        3: outer_partition_radius set to              6.058726835495003 AA .
  | Species        4: Confinement radius =              6.000000000000000 AA, multipole_radius_free =              6.064445521808699 AA.
  | Species        4: outer_partition_radius set to              6.064445521808699 AA .
  | Original list of interatomic distances with          32 x         32 entries is created.
  | Net number of integration points:   527728
  | of which are non-zero points    :   412274
  Obtaining max. number of non-zero basis functions in each batch (get_n_compute_maxes).
  | Maximal number of non-zero basis functions:      813 in task     0
  | Maximal number of non-zero basis functions:      810 in task     1
  | Maximal number of non-zero basis functions:      790 in task     2
  | Maximal number of non-zero basis functions:      831 in task     3
  | Maximal number of non-zero basis functions:      786 in task     4
  | Maximal number of non-zero basis functions:      810 in task     5
  | Maximal number of non-zero basis functions:      816 in task     6
  | Maximal number of non-zero basis functions:      810 in task     7
  | Maximal number of non-zero basis functions:      826 in task     8
  | Maximal number of non-zero basis functions:      821 in task     9
  | Maximal number of non-zero basis functions:      825 in task    10
  | Maximal number of non-zero basis functions:      796 in task    11
  | Maximal number of non-zero basis functions:      799 in task    12
  | Maximal number of non-zero basis functions:      825 in task    13
  | Maximal number of non-zero basis functions:      811 in task    14
  | Maximal number of non-zero basis functions:      810 in task    15
  | Maximal number of non-zero basis functions:      813 in task    16
  | Maximal number of non-zero basis functions:      784 in task    17
  | Maximal number of non-zero basis functions:      826 in task    18
  | Maximal number of non-zero basis functions:      827 in task    19
  | Maximal number of non-zero basis functions:      806 in task    20
  | Maximal number of non-zero basis functions:      816 in task    21
  | Maximal number of non-zero basis functions:      810 in task    22
  | Maximal number of non-zero basis functions:      806 in task    23
  | Maximal number of non-zero basis functions:      797 in task    24
  | Maximal number of non-zero basis functions:      811 in task    25
  | Maximal number of non-zero basis functions:      815 in task    26
  | Maximal number of non-zero basis functions:      812 in task    27
  | Maximal number of non-zero basis functions:      811 in task    28
  | Maximal number of non-zero basis functions:      789 in task    29
  | Maximal number of non-zero basis functions:      808 in task    30
  | Maximal number of non-zero basis functions:      818 in task    31
  Selecting the method for density update.
  Loop over occupied states selected for charge density update.
  Integrating Hamiltonian matrix: batch-based integration.
  Time summed over all CPUs for integration: real work       23.870 s, elapsed       24.884 s
  Integrating overlap matrix.
  Time summed over all CPUs for integration: real work       14.662 s, elapsed       15.227 s
  Deallocating overlap matrix.

  Updating Kohn-Sham eigenvalues, eigenvectors, occupation numbers, and Fermi level.
  Solving generalized eigenproblem
  Solving real symmetric generalised eigenvalue problem by standard ScaLAPACK.
  Transforming overlap matrix with ScaLAPACK and checking for singularities.
  : Overlap matrix is nonsingular, using Cholesky decomposition
  | Lowest eigenvalue:  0.936039E-04
  Factoring overlap matrix with Cholesky decomposition
  Using Cholesky factor for transformation
  Using 1-stage real ELPA solver
  Determining occupation numbers for Kohn-Sham eigenstates.
  | Chemical potential (Fermi level) in eV                 : -.94818585E+01
  | Error in electron count due to remaining E_F inaccuracy: 0.00000000E+00
  | Maximum occupation number of highest empty state:  0.00E+00

  Writing Kohn-Sham eigenvalues.

  State    Occupation    Eigenvalue [Ha]    Eigenvalue [eV]
      1       2.00000         -18.974318         -516.31747
      2       2.00000         -18.973948         -516.30739
      3       2.00000         -18.973431         -516.29332
      4       2.00000         -14.255242         -387.90488
      5       2.00000         -14.254687         -387.88977
      6       2.00000         -14.253183         -387.84885
      7       2.00000         -10.171449         -276.77920
      8       2.00000         -10.170831         -276.76240
      9       2.00000         -10.169996         -276.73968
     10       2.00000         -10.166342         -276.64023
     11       2.00000         -10.149790         -276.18985
     12       2.00000         -10.148208         -276.14678
     13       2.00000         -10.135704         -275.80655
     14       2.00000         -10.135266         -275.79461
     15       2.00000         -10.133682         -275.75151
     16       2.00000          -1.134031          -30.85855
     17       2.00000          -1.130497          -30.76240
     18       2.00000          -1.128899          -30.71891
     19       2.00000          -1.019949          -27.75422
     20       2.00000          -1.012258          -27.54493
     21       2.00000          -1.006929          -27.39994
     22       2.00000          -0.880818          -23.96829
     23       2.00000          -0.875279          -23.81755
     24       2.00000          -0.846992          -23.04782
     25       2.00000          -0.816761          -22.22518
     26       2.00000          -0.781076          -21.25417
     27       2.00000          -0.764819          -20.81178
     28       2.00000          -0.700466          -19.06064
     29       2.00000          -0.689850          -18.77177
     30       2.00000          -0.678204          -18.45486
     31       2.00000          -0.632515          -17.21162
     32       2.00000          -0.625471          -17.01992
     33       2.00000          -0.610101          -16.60170
     34       2.00000          -0.604035          -16.43664
     35       2.00000          -0.587737          -15.99312
     36       2.00000          -0.579741          -15.77555
     37       2.00000          -0.573477          -15.60510
     38       2.00000          -0.565117          -15.37763
     39       2.00000          -0.557853          -15.17995
     40       2.00000          -0.551947          -15.01923
     41       2.00000          -0.548417          -14.92318
     42       2.00000          -0.546336          -14.86655
     43       2.00000          -0.536764          -14.60609
     44       2.00000          -0.526659          -14.33113
     45       2.00000          -0.521872          -14.20085
     46       2.00000          -0.514261          -13.99375
     47       2.00000          -0.510242          -13.88438
     48       2.00000          -0.500928          -13.63095
     49       2.00000          -0.495144          -13.47354
     50       2.00000          -0.487587          -13.26792
     51       2.00000          -0.481951          -13.11455
     52       2.00000          -0.478168          -13.01162
     53       2.00000          -0.410008          -11.15689
     54       2.00000          -0.403300          -10.97435
     55       2.00000          -0.398985          -10.85695
     56       2.00000          -0.388782          -10.57930
     57       2.00000          -0.384500          -10.46277
     58       2.00000          -0.380694          -10.35920
     59       0.00000          -0.171719           -4.67272
     60       0.00000          -0.161239           -4.38753
     61       0.00000          -0.152251           -4.14297
     62       0.00000          -0.086274           -2.34764
     63       0.00000          -0.064626           -1.75858
     64       0.00000          -0.056709           -1.54314
     65       0.00000          -0.053542           -1.45696
     66       0.00000          -0.050292           -1.36850
     67       0.00000          -0.036590           -0.99567
     68       0.00000          -0.033295           -0.90601
     69       0.00000          -0.031992           -0.87055
     70       0.00000          -0.024746           -0.67337
     71       0.00000          -0.020143           -0.54813
     72       0.00000          -0.016224           -0.44147
     73       0.00000          -0.013829           -0.37630
     74       0.00000          -0.009483           -0.25805
     75       0.00000          -0.005325           -0.14491
     76       0.00000          -0.002161           -0.05879
     77       0.00000           0.002394            0.06514
     78       0.00000           0.008715            0.23714
     79       0.00000           0.012907            0.35121
     80       0.00000           0.019228            0.52322
     81       0.00000           0.020227            0.55042
     82       0.00000           0.022739            0.61876
     83       0.00000           0.039642            1.07871
     84       0.00000           0.042615            1.15960
     85       0.00000           0.050972            1.38701
     86       0.00000           0.053029            1.44300
     87       0.00000           0.057716            1.57054
     88       0.00000           0.062160            1.69147
     89       0.00000           0.068173            1.85508
     90       0.00000           0.070367            1.91480
     91       0.00000           0.076817            2.09031
     92       0.00000           0.082026            2.23204
     93       0.00000           0.091895            2.50058
     94       0.00000           0.098568            2.68218
     95       0.00000           0.103754            2.82330
     96       0.00000           0.104920            2.85501
     97       0.00000           0.108873            2.96259
     98       0.00000           0.114015            3.10250
     99       0.00000           0.117539            3.19840
    100       0.00000           0.118993            3.23795
    101       0.00000           0.134453            3.65864
    102       0.00000           0.139353            3.79198
    103       0.00000           0.143832            3.91386
    104       0.00000           0.145284            3.95337
    105       0.00000           0.147873            4.02382
    106       0.00000           0.151614            4.12562
    107       0.00000           0.159262            4.33373
    108       0.00000           0.163025            4.43614
    109       0.00000           0.169536            4.61332
    110       0.00000           0.171929            4.67842
    111       0.00000           0.175917            4.78694
    112       0.00000           0.181556            4.94038
    113       0.00000           0.185374            5.04430
    114       0.00000           0.190519            5.18430
    115       0.00000           0.201646            5.48707
    116       0.00000           0.207314            5.64131
    117       0.00000           0.211762            5.76233
    118       0.00000           0.213248            5.80278
    119       0.00000           0.221615            6.03045
    120       0.00000           0.227458            6.18945
    121       0.00000           0.230504            6.27233
    122       0.00000           0.232088            6.31545
    123       0.00000           0.244344            6.64893
    124       0.00000           0.249509            6.78947
    125       0.00000           0.252892            6.88153
    126       0.00000           0.254015            6.91210
    127       0.00000           0.258025            7.02122
    128       0.00000           0.265412            7.22223
    129       0.00000           0.273158            7.43302

  Highest occupied state (VBM) at    -10.35920354 eV
  | Occupation number:      2.00000000

  Lowest unoccupied state (CBM) at    -4.67272166 eV
  | Occupation number:      0.00000000

  Overall HOMO-LUMO gap:      5.68648188 eV.
  Calculating total energy contributions from superposition of free atom densities.

  Total energy components:
  | Sum of eigenvalues            :        -437.87099180 Ha      -11915.07591932 eV
  | XC energy correction          :         -98.83004557 Ha       -2689.30237027 eV
  | XC potential correction       :         127.03569473 Ha        3456.81713463 eV
  | Free-atom electrostatic energy:        -333.61223785 Ha       -9078.05087818 eV
  | Hartree energy correction     :           0.00000000 Ha           0.00000000 eV
  | MBD@rsSCS energy              :           0.00000000 Ha           0.00000000 eV
  | Entropy correction            :          -0.00000000 Ha          -0.00000000 eV
  | ---------------------------
  | Total energy                  :        -743.27758050 Ha      -20225.61203314 eV
  | Total energy, T -> 0          :        -743.27758050 Ha      -20225.61203314 eV  <-- do not rely on this value for anything but (periodic) metals
  | Electronic free energy        :        -743.27758050 Ha      -20225.61203314 eV

  Derived energy quantities:
  | Kinetic energy                :         735.18430582 Ha       20005.38282407 eV
  | Electrostatic energy          :       -1379.63184074 Ha      -37541.69248694 eV
  | Energy correction for multipole
  | error in Hartree potential    :           0.00000000 Ha           0.00000000 eV
  | Sum of eigenvalues per atom                           :        -372.34612248 eV
  | Total energy (T->0) per atom                          :        -632.05037604 eV  <-- do not rely on this value for anything but (periodic) metals
  | Electronic free energy per atom                       :        -632.05037604 eV
  Initialize hartree_potential_storage
  Max. number of atoms included in rho_multipole:           32

  End scf initialization - timings             :  max(cpu_time)    wall_clock(cpu1)
  | Time for scf. initialization               :        2.008 s           2.007 s
  | Boundary condition initialization          :        0.000 s           0.000 s
  | Integration                                :        1.280 s           1.275 s
  | Solution of K.-S. eqns.                    :        0.080 s           0.077 s
  | Grid partitioning                          :        0.276 s           0.271 s
  | Preloading free-atom quantities on grid    :        0.028 s           0.027 s
  | Free-atom superposition energy             :        0.044 s           0.041 s
  | Total energy evaluation                    :        0.000 s           0.001 s
------------------------------------------------------------

------------------------------------------------------------
          Begin self-consistency iteration #    1

  Date     :  20170309, Time     :  180913.291
------------------------------------------------------------
  Evaluating new KS density.
  Integration grid: deviation in total charge (<rho> - N_e) =   4.263256E-14
  Pulay mixing of updated and previous charge densities.

  Evaluating partitioned Hartree potential by multipole expansion.
  | Analytical far-field extrapolation by fixed multipoles:
  | Hartree multipole sum: apparent total charge =   0.408297E-04
  Summing up the Hartree potential.
  Time summed over all CPUs for potential: real work        9.663 s, elapsed        9.853 s
  | RMS charge density error from multipole expansion :   0.107137E-01

  Integrating Hamiltonian matrix: batch-based integration.
  Time summed over all CPUs for integration: real work       23.571 s, elapsed       24.454 s

  Updating Kohn-Sham eigenvalues, eigenvectors, occupation numbers, and Fermi level.
  Solving generalized eigenproblem
  Solving real symmetric generalised eigenvalue problem by standard ScaLAPACK.
  Using Cholesky factor for transformation
  Using 2-stage real ELPA solver
  K-Point:    1, Trafo times: 1-stage=     0.021 s, 2-stage=     0.019 s ==> Using 2-stage solver
  Determining occupation numbers for Kohn-Sham eigenstates.
  | Chemical potential (Fermi level) in eV                 : -.47966693E+01
  | Error in electron count due to remaining E_F inaccuracy: 0.00000000E+00
  | Maximum occupation number of highest empty state:  0.00E+00

  Writing Kohn-Sham eigenvalues.

  State    Occupation    Eigenvalue [Ha]    Eigenvalue [eV]
      1       2.00000         -18.625386         -506.82255
      2       2.00000         -18.618319         -506.63023
      3       2.00000         -18.616031         -506.56797
      4       2.00000         -13.999287         -380.93998
      5       2.00000         -13.995369         -380.83338
      6       2.00000         -13.989142         -380.66393
      7       2.00000         -10.061436         -273.78561
      8       2.00000         -10.060948         -273.77232
      9       2.00000         -10.059589         -273.73535
     10       2.00000          -9.972378         -271.36220
     11       2.00000          -9.971456         -271.33713
     12       2.00000          -9.902780         -269.46835
     13       2.00000          -9.859459         -268.28953
     14       2.00000          -9.848039         -267.97877
     15       2.00000          -9.829180         -267.46560
     16       2.00000          -0.972444          -26.46155
     17       2.00000          -0.965655          -26.27681
     18       2.00000          -0.958664          -26.08659
     19       2.00000          -0.874746          -23.80306
     20       2.00000          -0.867513          -23.60622
     21       2.00000          -0.864026          -23.51135
     22       2.00000          -0.737957          -20.08084
     23       2.00000          -0.727319          -19.79136
     24       2.00000          -0.706743          -19.23144
     25       2.00000          -0.680885          -18.52783
     26       2.00000          -0.643012          -17.49723
     27       2.00000          -0.629164          -17.12043
     28       2.00000          -0.573924          -15.61727
     29       2.00000          -0.570517          -15.52456
     30       2.00000          -0.554827          -15.09761
     31       2.00000          -0.503875          -13.71114
     32       2.00000          -0.487881          -13.27593
     33       2.00000          -0.481553          -13.10373
     34       2.00000          -0.467169          -12.71231
     35       2.00000          -0.456275          -12.41588
     36       2.00000          -0.445671          -12.12733
     37       2.00000          -0.439001          -11.94581
     38       2.00000          -0.434984          -11.83653
     39       2.00000          -0.422800          -11.50498
     40       2.00000          -0.403121          -10.96947
     41       2.00000          -0.398550          -10.84510
     42       2.00000          -0.395665          -10.76659
     43       2.00000          -0.389926          -10.61044
     44       2.00000          -0.385172          -10.48108
     45       2.00000          -0.377600          -10.27503
     46       2.00000          -0.375501          -10.21791
     47       2.00000          -0.365422           -9.94365
     48       2.00000          -0.360139           -9.79987
     49       2.00000          -0.357123           -9.71782
     50       2.00000          -0.348580           -9.48535
     51       2.00000          -0.346117           -9.41833
     52       2.00000          -0.341577           -9.29479
     53       2.00000          -0.241705           -6.57712
     54       2.00000          -0.238418           -6.48769
     55       2.00000          -0.233165           -6.34475
     56       2.00000          -0.220839           -6.00934
     57       2.00000          -0.217305           -5.91316
     58       2.00000          -0.209412           -5.69839
     59       0.00000          -0.060412           -1.64389
     60       0.00000          -0.054317           -1.47805
     61       0.00000          -0.044933           -1.22270
     62       0.00000          -0.038348           -1.04349
     63       0.00000          -0.025091           -0.68276
     64       0.00000          -0.011383           -0.30975
     65       0.00000          -0.009963           -0.27110
     66       0.00000          -0.004065           -0.11061
     67       0.00000           0.010808            0.29411
     68       0.00000           0.014696            0.39990
     69       0.00000           0.022775            0.61974
     70       0.00000           0.027656            0.75256
     71       0.00000           0.032699            0.88979
     72       0.00000           0.036494            0.99305
     73       0.00000           0.040661            1.10644
     74       0.00000           0.048767            1.32702
     75       0.00000           0.055650            1.51432
     76       0.00000           0.058185            1.58331
     77       0.00000           0.062898            1.71155
     78       0.00000           0.066805            1.81785
     79       0.00000           0.072473            1.97210
     80       0.00000           0.077027            2.09601
     81       0.00000           0.081305            2.21243
     82       0.00000           0.092538            2.51810
     83       0.00000           0.101831            2.77097
     84       0.00000           0.108135            2.94251
     85       0.00000           0.113860            3.09830
     86       0.00000           0.117193            3.18899
     87       0.00000           0.121058            3.29415
     88       0.00000           0.124287            3.38203
     89       0.00000           0.130956            3.56350
     90       0.00000           0.138065            3.75695
     91       0.00000           0.140726            3.82935
     92       0.00000           0.144227            3.92462
     93       0.00000           0.155231            4.22404
     94       0.00000           0.159805            4.34853
     95       0.00000           0.162819            4.43054
     96       0.00000           0.171744            4.67338
     97       0.00000           0.175071            4.76391
     98       0.00000           0.176214            4.79503
     99       0.00000           0.180010            4.89831
    100       0.00000           0.182497            4.96599
    101       0.00000           0.191923            5.22248
    102       0.00000           0.196740            5.35356
    103       0.00000           0.198945            5.41357
    104       0.00000           0.202798            5.51841
    105       0.00000           0.206063            5.60726
    106       0.00000           0.211886            5.76570
    107       0.00000           0.213537            5.81063
    108       0.00000           0.220458            5.99897
    109       0.00000           0.222931            6.06625
    110       0.00000           0.231151            6.28995
    111       0.00000           0.233148            6.34428
    112       0.00000           0.238180            6.48121
    113       0.00000           0.247177            6.72603
    114       0.00000           0.254967            6.93800
    115       0.00000           0.260713            7.09436
    116       0.00000           0.268255            7.29959
    117       0.00000           0.271018            7.37478
    118       0.00000           0.278071            7.56670
    119       0.00000           0.281934            7.67180
    120       0.00000           0.286669            7.80067
    121       0.00000           0.291051            7.91990
    122       0.00000           0.300051            8.16480
    123       0.00000           0.307281            8.36153
    124       0.00000           0.309904            8.43291
    125       0.00000           0.318187            8.65832
    126       0.00000           0.319038            8.68146
    127       0.00000           0.322643            8.77956
    128       0.00000           0.333869            9.08503
    129       0.00000           0.344263            9.36788

  Highest occupied state (VBM) at     -5.69838794 eV
  | Occupation number:      2.00000000

  Lowest unoccupied state (CBM) at    -1.64388564 eV
  | Occupation number:      0.00000000

  Overall HOMO-LUMO gap:      4.05450230 eV.

  Total energy components:
  | Sum of eigenvalues            :        -418.16149271 Ha      -11378.75316124 eV
  | XC energy correction          :        -100.75499090 Ha       -2741.68279770 eV
  | XC potential correction       :         129.53152886 Ha        3524.73223661 eV
  | Free-atom electrostatic energy:        -333.61223785 Ha       -9078.05087818 eV
  | Hartree energy correction     :         -19.71614629 Ha        -536.50363765 eV
  | MBD@rsSCS energy              :           0.00000000 Ha           0.00000000 eV
  | Entropy correction            :          -0.00000000 Ha          -0.00000000 eV
  | ---------------------------
  | Total energy                  :        -742.71333890 Ha      -20210.25823815 eV
  | Total energy, T -> 0          :        -742.71333890 Ha      -20210.25823815 eV  <-- do not rely on this value for anything but (periodic) metals
  | Electronic free energy        :        -742.71333890 Ha      -20210.25823815 eV

  Derived energy quantities:
  | Kinetic energy                :         744.03287071 Ha       20246.16452557 eV
  | Electrostatic energy          :       -1385.99121871 Ha      -37714.73996602 eV
  | Energy correction for multipole
  | error in Hartree potential    :          -0.03998159 Ha          -1.08795435 eV
  | Sum of eigenvalues per atom                           :        -355.58603629 eV
  | Total energy (T->0) per atom                          :        -631.57056994 eV  <-- do not rely on this value for anything but (periodic) metals
  | Electronic free energy per atom                       :        -631.57056994 eV

  Self-consistency convergence accuracy:
  | Change of charge density      :  0.9031E+00
  | Change of sum of eigenvalues  :  0.5363E+03 eV
  | Change of total energy        :  0.1535E+02 eV

  End self-consistency iteration #     1       :  max(cpu_time)    wall_clock(cpu1)
  | Time for this iteration                    :        1.644 s           1.643 s
[...]
   Multipole                     :  0.358762E+00 -0.202367E+00 -0.491192E+00
   Pulay + GGA                   :  0.780056E+01 -0.362506E+01 -0.100857E+02
   MBD@rsSCS                     :  0.420968E-02 -0.976672E-02 -0.163456E-01
   ----------------------------------------------------------------
   Total forces(  20)            : -0.378166E-02 -0.739886E-02 -0.145081E-01
  atom #   21
   Hellmann-Feynman              :  0.277269E-01 -0.208567E-01 -0.213458E-01
   Ionic forces                  :  0.000000E+00  0.000000E+00  0.000000E+00
   Multipole                     : -0.399869E-02 -0.847119E-03 -0.155028E-01
   Pulay + GGA                   : -0.274609E-01  0.281229E-01  0.431972E-01
   MBD@rsSCS                     :  0.626094E-02  0.177500E-02 -0.835678E-02
   ----------------------------------------------------------------
   Total forces(  21)            :  0.252824E-02  0.819411E-02 -0.200818E-02
  atom #   22
   Hellmann-Feynman              : -0.453894E-01  0.120291E-01  0.347099E-01
   Ionic forces                  :  0.000000E+00  0.000000E+00  0.000000E+00
   Multipole                     :  0.149140E-02  0.879312E-02 -0.155786E-01
   Pulay + GGA                   :  0.474518E-01 -0.213109E-01 -0.329576E-01
   MBD@rsSCS                     :  0.232682E-01 -0.181140E-01 -0.149695E-01
   ----------------------------------------------------------------
   Total forces(  22)            :  0.268220E-01 -0.186026E-01 -0.287958E-01
  atom #   23
   Hellmann-Feynman              : -0.669767E+00  0.470532E+00 -0.552424E+00
   Ionic forces                  :  0.000000E+00  0.000000E+00  0.000000E+00
   Multipole                     :  0.206206E+00 -0.189648E+00  0.213696E+00
   Pulay + GGA                   :  0.443973E+00 -0.265892E+00  0.350497E+00
   MBD@rsSCS                     :  0.181274E-01 -0.181874E-01  0.133003E-01
   ----------------------------------------------------------------
   Total forces(  23)            : -0.146049E-02 -0.319611E-02  0.250686E-01
  atom #   24
   Hellmann-Feynman              : -0.133543E-01 -0.191355E-01  0.347662E-01
   Ionic forces                  :  0.000000E+00  0.000000E+00  0.000000E+00
   Multipole                     : -0.295442E-01 -0.595096E-02 -0.247580E-02
   Pulay + GGA                   :  0.454368E-01  0.300977E-01 -0.310744E-01
   MBD@rsSCS                     :  0.144394E-01 -0.331725E-02  0.916454E-02
   ----------------------------------------------------------------
   Total forces(  24)            :  0.169778E-01  0.169391E-02  0.103806E-01
  atom #   25
   Hellmann-Feynman              :  0.441464E-01 -0.275213E-01  0.227799E-01
   Ionic forces                  :  0.000000E+00  0.000000E+00  0.000000E+00
   Multipole                     :  0.716575E-02 -0.422944E-02 -0.262799E-01
   Pulay + GGA                   : -0.515883E-01  0.339167E-01  0.766389E-02
   MBD@rsSCS                     :  0.500167E-02 -0.518943E-02  0.100831E-01
   ----------------------------------------------------------------
   Total forces(  25)            :  0.472547E-02 -0.302343E-02  0.142470E-01
  atom #   26
   Hellmann-Feynman              : -0.121739E-02  0.183311E-01  0.464987E-01
   Ionic forces                  :  0.000000E+00  0.000000E+00  0.000000E+00
   Multipole                     :  0.532414E-04  0.327874E-01 -0.250239E-02
   Pulay + GGA                   : -0.472545E-02 -0.473401E-01 -0.459481E-01
   MBD@rsSCS                     :  0.826521E-02 -0.184781E-01  0.657763E-02
   ----------------------------------------------------------------
   Total forces(  26)            :  0.237561E-02 -0.146998E-01  0.462589E-02
  atom #   27
   Hellmann-Feynman              : -0.120506E+01  0.893497E+00  0.483572E+00
   Ionic forces                  :  0.000000E+00  0.000000E+00  0.000000E+00
   Multipole                     : -0.190633E+00 -0.163557E-01  0.936678E-01
   Pulay + GGA                   :  0.140053E+01 -0.867464E+00 -0.573629E+00
   MBD@rsSCS                     : -0.142680E-01 -0.156571E-01 -0.968670E-02
   ----------------------------------------------------------------
   Total forces(  27)            : -0.943378E-02 -0.597987E-02 -0.607595E-02
  atom #   28
   Hellmann-Feynman              :  0.182043E+01 -0.545642E+00 -0.127348E+01
   Ionic forces                  :  0.000000E+00  0.000000E+00  0.000000E+00
   Multipole                     : -0.984185E-01  0.498656E-01  0.627962E-01
   Pulay + GGA                   : -0.171079E+01  0.515342E+00  0.121730E+01
   MBD@rsSCS                     : -0.157993E-01 -0.181549E-01 -0.422119E-02
   ----------------------------------------------------------------
   Total forces(  28)            : -0.457947E-02  0.141109E-02  0.239290E-02
  atom #   29
   Hellmann-Feynman              : -0.541166E-01 -0.373514E-01 -0.786726E-02
   Ionic forces                  :  0.000000E+00  0.000000E+00  0.000000E+00
   Multipole                     :  0.305705E-01 -0.517235E-02 -0.271983E-01
   Pulay + GGA                   :  0.272955E-01  0.499919E-01  0.396439E-01
   MBD@rsSCS                     : -0.117089E-02 -0.496468E-02 -0.599152E-02
   ----------------------------------------------------------------
   Total forces(  29)            :  0.257862E-02  0.250351E-02 -0.141318E-02
  atom #   30
   Hellmann-Feynman              : -0.668781E-02  0.292685E-01  0.528089E-01
   Ionic forces                  :  0.000000E+00  0.000000E+00  0.000000E+00
   Multipole                     :  0.173057E-01 -0.215740E-01  0.191402E-01
   Pulay + GGA                   : -0.228411E-01 -0.175529E-02 -0.639600E-01
   MBD@rsSCS                     : -0.169806E-01 -0.101644E-01 -0.276768E-02
   ----------------------------------------------------------------
   Total forces(  30)            : -0.292038E-01 -0.422514E-02  0.522135E-02
  atom #   31
   Hellmann-Feynman              : -0.493639E-02  0.176071E-01  0.265625E-01
   Ionic forces                  :  0.000000E+00  0.000000E+00  0.000000E+00
   Multipole                     : -0.105531E-01  0.262079E-01 -0.196448E-01
   Pulay + GGA                   :  0.128948E-01 -0.445017E-01 -0.348667E-02
   MBD@rsSCS                     : -0.131665E-01 -0.155428E-01 -0.300111E-02
   ----------------------------------------------------------------
   Total forces(  31)            : -0.157611E-01 -0.162295E-01  0.429921E-03
  atom #   32
   Hellmann-Feynman              : -0.401812E-01 -0.633105E-02  0.174878E-01
   Ionic forces                  :  0.000000E+00  0.000000E+00  0.000000E+00
   Multipole                     : -0.145377E-02 -0.361697E-01 -0.272956E-01
   Pulay + GGA                   :  0.467132E-01  0.479114E-01  0.115965E-01
   MBD@rsSCS                     : -0.574859E-02 -0.135317E-02  0.225231E-02
   ----------------------------------------------------------------
   Total forces(  32)            : -0.670333E-03  0.405746E-02  0.404104E-02

  Removing unitary transformations (pure translations, rotations) from forces on atoms.
  Atomic forces before filtering:
  | Net force on center of mass :   0.697396E-03  0.413121E-03 -0.723785E-03 eV/A
  | Net torque on center of mass:   0.129538E-02 -0.174499E-02  0.197536E-02 eV
  Atomic forces after filtering:
  | Net force on center of mass :   0.131540E-16  0.696899E-17 -0.487829E-17 eV/A
  | Net torque on center of mass:   0.184392E-16 -0.206518E-16 -0.420413E-16 eV

  Energy and forces in a compact form:
  | Total energy uncorrected      :         -0.202089522547271E+05 eV
  | Total energy corrected        :         -0.202089522547271E+05 eV  <-- do not rely on this value for anything but (periodic) metals
  | Electronic free energy        :         -0.202089522547271E+05 eV
  Total atomic forces (unitary forces cleaned) [eV/Ang]:
  |   1         -0.894190567548796E-02         -0.226238743467075E-02          0.945316094385473E-02
  |   2         -0.537252315812674E-02          0.290091260701809E-02          0.637624879439477E-02
  |   3          0.197646983471418E-02          0.568765928792278E-02         -0.343296329100960E-02
  |   4         -0.114574855552009E-01         -0.620116564485472E-02          0.160743734661490E-01
  |   5         -0.166194662778178E-01         -0.535185976127170E-02          0.201398580066342E-01
  |   6          0.535884546866886E-02         -0.169298436058525E-02          0.790797102723667E-03
  |   7         -0.190008121377597E-01          0.123918754362914E-01         -0.196973724539385E-01
  |   8          0.169995620514896E-01          0.974304667905605E-02         -0.954940652246114E-02
  |   9         -0.157549055561953E-03         -0.759464522965909E-02         -0.673470825050950E-03
  |  10          0.590156288920458E-02         -0.139840703436849E-01         -0.171084501117523E-01
  |  11         -0.555021507811385E-02         -0.683423871735924E-02          0.422685159505595E-02
  |  12          0.125294800572284E-01          0.282217910594189E-01         -0.920009953225038E-02
  |  13          0.345709219394159E-02         -0.139471315592307E-02          0.124229335929207E-01
  |  14          0.842356188488519E-03          0.158662131757439E-01          0.113226496292582E-01
  |  15          0.103715454562807E-03          0.179632951042590E-01          0.878214207430976E-02
  |  16          0.849750957674686E-02          0.105297149635944E-01         -0.263551648672208E-02
  |  17          0.263455703161508E-02         -0.361460670786286E-02         -0.242732653706982E-01
  |  18          0.133010195446884E-01         -0.936594545185986E-02         -0.520151429603589E-02
  |  19          0.441604839144827E-02          0.106422043596483E-01         -0.115667581690107E-01
  |  20         -0.376025149777227E-02         -0.739275356819610E-02         -0.144872900260115E-01
  |  21          0.253109858389088E-02          0.820529694368104E-02         -0.196732766319118E-02
  |  22          0.268057861899536E-01         -0.186162978261094E-01         -0.287780532865354E-01
  |  23         -0.147575856421511E-02         -0.320192253039967E-02          0.250970665291545E-01
  |  24          0.169623399646854E-01          0.168097574442560E-02          0.103988625681691E-01
  |  25          0.471811272871202E-02         -0.302118492689503E-02          0.142818104223039E-01
  |  26          0.234754957241178E-02         -0.147066693441404E-01          0.466157090758781E-02
  |  27         -0.942202027409070E-02         -0.599307677997829E-02         -0.607667242990150E-02
  |  28         -0.458030888879345E-02          0.138594579954899E-02          0.238340870558302E-02
  |  29          0.260255309501596E-02          0.249204154185391E-02         -0.141967875554975E-02
  |  30         -0.292146957721017E-01         -0.425283717815280E-02          0.521500790545638E-02
  |  31         -0.157675678559077E-01         -0.162564989331648E-01          0.421589087236687E-03
  |  32         -0.665099026516898E-03          0.402688519230566E-02          0.401950788932665E-02

  ------------------------------------ 
  Start decomposition of the XC Energy 
  ------------------------------------ 
  Hartree-Fock part   :          0.000000000 Ha              0.000000000 eV
  ------------------------------------ 
  X Energy            :        -96.985565512 Ha          -2639.111514088 eV
  C Energy GGA        :         -3.870215628 Ha           -105.313925563 eV
  Total XC Energy     :       -100.855781140 Ha          -2744.425439650 eV
  LDA X and C from self-consistent density 
  X Energy LDA        :        -88.004385415 Ha          -2394.721169218 eV
  C Energy LDA        :         -7.532328972 Ha           -204.965099827 eV
  ------------------------------------ 
  End decomposition of the XC Energy 
  ------------------------------------ 
   
  ESP charge fitting starts.
  | Calculation :  00000001  of  00000001
  | Full density
  Computing multipole expansion for total density.
  Generating points for esp charges.
  Partitioning the integration grid into batches with parallel hashing+maxmin method.
  | Number of batches:     3893
  | Maximal batch size:     200
  | Minimal batch size:      53
  | Average batch size:     124.966
  | Standard deviation of batch sizes:      17.943

  Integration load balanced across    32 MPI tasks.
  Work distribution over tasks is as follows:
  Initializing partition tables, free-atom densities, potentials, etc. across the integration grid (initialize_grid_storage).
  | Original list of interatomic distances with          32 x         32 entries is created.
  | Net number of integration points:   486492
  | of which are non-zero points    :   486492
  Summing up potential from multipole expanded  density.
  Summing up the Hartree potential.
  Time summed over all CPUs for potential: real work        6.512 s, elapsed        6.756 s
  Fitting esp charges to potential.
  |
  | ESP charges fitted to the electrostatic potential :
  |
  | Atom         1: C, ESP charge:      0.42007882
  |
  | Atom         2: C, ESP charge:     -0.62304866
  |
  | Atom         3: O, ESP charge:      0.54977669
  |
  | Atom         4: H, ESP charge:     -0.09494557
  |
  | Atom         5: H, ESP charge:     -0.13208766
  |
  | Atom         6: H, ESP charge:     -0.13536489
  |
  | Atom         7: N, ESP charge:      0.59788848
  |
  | Atom         8: C, ESP charge:     -0.54054806
  |
  | Atom         9: C, ESP charge:     -0.59106521
  |
  | Atom        10: O, ESP charge:      0.54393674
  |
  | Atom        11: H, ESP charge:     -0.28271263
  |
  | Atom        12: H, ESP charge:      0.14524519
  |
  | Atom        13: C, ESP charge:      0.39760553
  |
  | Atom        14: H, ESP charge:     -0.09653140
  |
  | Atom        15: H, ESP charge:     -0.10005547
  |
  | Atom        16: H, ESP charge:     -0.09439364
  |
  | Atom        17: N, ESP charge:      0.87872054
  |
  | Atom        18: C, ESP charge:     -0.81959499
  |
  | Atom        19: C, ESP charge:     -0.20892554
  |
  | Atom        20: O, ESP charge:      0.47824420
  |
  | Atom        21: H, ESP charge:     -0.39602016
  |
  | Atom        22: H, ESP charge:     -0.07534435
  |
  | Atom        23: C, ESP charge:      0.86757495
  |
  | Atom        24: H, ESP charge:     -0.21240414
  |
  | Atom        25: H, ESP charge:     -0.23296462
  |
  | Atom        26: H, ESP charge:     -0.21128131
  |
  | Atom        27: N, ESP charge:      0.39917826
  |
  | Atom        28: C, ESP charge:      0.10338798
  |
  | Atom        29: H, ESP charge:     -0.33228119
  |
  | Atom        30: H, ESP charge:     -0.02239106
  |
  | Atom        31: H, ESP charge:     -0.05735408
  |
  | Atom        32: H, ESP charge:     -0.12232274

  RRMS:       0.00284279

  Done.

------------------------------------------------------------------------------
  Final output of selected total energy values:

  The following output summarizes some interesting total energy values
  at the end of a run (AFTER all relaxation, molecular dynamics, etc.).

  | Total energy of the DFT / Hartree-Fock s.c.f. calculation      :         -20208.952254727 eV
  | Final zero-broadening corrected energy (caution - metals only) :         -20208.952254727 eV
  | For reference only, the value of 1 Hartree used in FHI-aims is :             27.211384500 eV

  Before relying on these values, please be sure to understand exactly which
  total energy value is referred to by a given number. Different objects may
  all carry the same name 'total energy'. Definitions:

  Total energy of the DFT / Hartree-Fock s.c.f. calculation:
  | Note that this energy does not include ANY quantities calculated after the
  | s.c.f. cycle, in particular not ANY RPA, MP2, etc. many-body perturbation terms.

  Final zero-broadening corrected energy:
  | For metallic systems only, a broadening of the occupation numbers at the Fermi
  | level can be extrapolated back to zero broadening by an electron-gas inspired
  | formula. For all systems that are not real metals, this value can be
  | meaningless and should be avoided.

------------------------------------------------------------------------------
  Methods described in the following list of references were used in this FHI-aims run.
  If you publish the results, please make sure to cite these reference if they apply.
  FHI-aims is an academic code, and for our developers (often, Ph.D. students
  and postdocs), scientific credit in the community is essential.
  Thank you for helping us!

  For any use of FHI-aims, please cite:

    Volker Blum, Ralf Gehrke, Felix Hanke, Paula Havu, Ville Havu,
    Xinguo Ren, Karsten Reuter, and Matthias Scheffler
    'Ab initio molecular simulations with numeric atom-centered orbitals'
    Computer Physics Communications 180, 2175-2196 (2009)
    http://dx.doi.org/10.1016/j.cpc.2009.06.022


  The scalable eigensolver library ELPA was used in your run.
  ELPA is essential especially for large systems on hundreds or thousands of CPUs.
  For ELPA, please cite:

    Andreas Marek, Volker Blum, Rainer Johanni, Ville Havu, Bruno Lang,
    Thomas Auckenthaler, Alexander Heinecke, Hans-Joachim Bungartz, and Hermann Lederer,
    'The ELPA Library - Scalable Parallel Eigenvalue Solutions
    for Electronic Structure Theory and Computational Science'
    The Journal of Physics: Condensed Matter 26, 213201 (2014).
    http://dx.doi.org/10.1088/0953-8984/26/21/213201


  For ELPA's efficient two-stage tridiagonalization used in your run, please cite:

    T. Auckenthaler, V. Blum, H.-J. Bungartz, T. Huckle, R. Johanni, L. Kraemer,
    B. Lang, H. Lederer, and P. R. Willems,
    'Parallel solution of partial symmetric eigenvalue problems'
    'from  electronic structure calculations'
    Parallel Computing 37, 783-794 (2011).
    http://dx.doi.org/10.1016/j.parco.2011.05.002


  For the real-space grid partitioning and parallelization used in this calculation, please cite:

    Ville Havu, Volker Blum, Paula Havu, and Matthias Scheffler,
    'Efficient O(N) integration for all-electron electronic structure calculation'
    'using numerically tabulated basis functions'
    Journal of Computational Physics 228, 8367-8379 (2009).
    http://dx.doi.org/10.1016/j.jcp.2009.08.008

  Of course, there are many other important community references, e.g., those cited in the
  above references. Our list is limited to references that describe implementations in the
  FHI-aims code. The reason is purely practical (length of this list) - please credit others as well.

------------------------------------------------------------
          Leaving FHI-aims.
          Date     :  20170309, Time     :  180945.340

          Computational steps:
          | Number of self-consistency cycles          :           14

          Detailed time accounting                     :  max(cpu_time)    wall_clock(cpu1)
          | Total time                                 :       34.914 s          35.090 s
          | Preparation time                           :        0.236 s           0.237 s
          | Grid partitioning                          :        0.276 s           0.271 s
          | Preloading free-atom quantities on grid    :        0.028 s           0.027 s
          | Free-atom superposition energy             :        0.044 s           0.041 s
          | Total time for integrations                :       12.185 s          12.164 s
          | Total time for solution of K.-S. equations :        0.536 s           0.503 s
          | Total time for density & force components  :       10.257 s          10.242 s
          | Total time for mixing                      :        0.124 s           0.103 s
          | Total time for Hartree multipole update    :        0.064 s           0.057 s
          | Total time for Hartree multipole sum       :        6.312 s           6.272 s
          | Total time for total energy evaluation     :        0.020 s           0.023 s

          Have a nice day.
------------------------------------------------------------
