  MPI-parallelism will be employed.
------------------------------------------------------------
          Invoking FHI-aims ...
          Version 150427
          Git rev.: 9dd23e0 BL: Update Version stamp
          Compiled on 2015/11/03 at 22:05:20 on host eos03.

          When using FHI-aims, please cite the following reference:

          Volker Blum, Ralf Gehrke, Felix Hanke, Paula Havu,
          Ville Havu, Xinguo Ren, Karsten Reuter, and Matthias Scheffler,
          'Ab Initio Molecular Simulations with Numeric Atom-Centered Orbitals: FHI-aims',
          Computer Physics Communications 180, 2175-2196 (2009)

          For any questions about FHI-aims, please visit the aimsclub website
          with its forums and wiki. Contributions to both the forums and the
          wiki are warmly encouraged - they are for you, and everyone is welcome there.

------------------------------------------------------------

  Date     :  20170309, Time     :  190740.196
  Time zero on CPU 1             :   0.224013000000000E+00  s.
  Internal wall clock time zero  :           258318460.196  s.

  Using       32 parallel tasks.
  Task        0 on host eos036 reporting.
  Task        1 on host eos036 reporting.
  Task        2 on host eos036 reporting.
  Task        3 on host eos036 reporting.
  Task        4 on host eos036 reporting.
  Task        5 on host eos036 reporting.
  Task        6 on host eos036 reporting.
  Task        7 on host eos036 reporting.
  Task        8 on host eos036 reporting.
  Task        9 on host eos036 reporting.
  Task       10 on host eos036 reporting.
  Task       11 on host eos036 reporting.
  Task       12 on host eos036 reporting.
  Task       13 on host eos036 reporting.
  Task       14 on host eos036 reporting.
  Task       15 on host eos036 reporting.
  Task       16 on host eos036 reporting.
  Task       17 on host eos036 reporting.
  Task       18 on host eos036 reporting.
  Task       19 on host eos036 reporting.
  Task       20 on host eos036 reporting.
  Task       21 on host eos036 reporting.
  Task       22 on host eos036 reporting.
  Task       23 on host eos036 reporting.
  Task       24 on host eos036 reporting.
  Task       25 on host eos036 reporting.
  Task       26 on host eos036 reporting.
  Task       27 on host eos036 reporting.
  Task       28 on host eos036 reporting.
  Task       29 on host eos036 reporting.
  Task       30 on host eos036 reporting.
  Task       31 on host eos036 reporting.

  Performing system and environment tests:
  | Environment variable OMP_NUM_THREADS correctly set to 1.
  | Stacksize not measured: no C compiler
  | Checking for scalapack...
  | Testing pdtran()...
  | All pdtran() tests passed.

  Obtaining array dimensions for all initial allocations:
  
  -----------------------------------------------------------------------
  Parsing control.in (first pass over file, find array dimensions only).
  The contents of control.in will be repeated verbatim below
  unless switched off by setting 'verbatim_writeout .false.' .
  in the first line of control.in .
  -----------------------------------------------------------------------
  
  #########################################################################################
  #
  # Input for System
  #
  #########################################################################################
  #
  #
  #  Physical model
  #
    xc                 pbe
    many_body_dispersion
    spin               none
    charge             0.
  #
  #  SCF convergence
  #
    occupation_type    gaussian 0.05
    mixer              pulay
      n_max_pulay        10
      charge_mix_param   0.5
    sc_accuracy_rho    1E-4
    sc_accuracy_eev    1E-2
    sc_accuracy_etot   1E-5
    sc_accuracy_forces 1E-4
    sc_iter_limit      1000
  #
  #  ESP charge
  #
    output esp
    esp equal_grid_n 80 80 80
  #
  #
  ################################################################################
  #
  #  FHI-aims code project
  # Volker Blum, Fritz Haber Institute Berlin, 2009
  #
  #  Suggested "tight" defaults for H atom (to be pasted into control.in file)
  #
  ################################################################################
    species        H
  #     global species definitions
      nucleus             1
      mass                1.00794
  #
      l_hartree           6
  #
      cut_pot             4.0  2.0  1.0
      basis_dep_cutoff    1e-4
  #
      radial_base         24 7.0
      radial_multiplier   2
      angular_grids       specified
        division   0.1930   50
        division   0.3175  110
        division   0.4293  194
        division   0.5066  302
        division   0.5626  434
  #      division   0.5922  590
  #      division   0.6227  974
  #      division   0.6868 1202
  #      outer_grid  770
        outer_grid  434
  ################################################################################
  #
  #  Definition of "minimal" basis
  #
  ################################################################################
  #     valence basis states
      valence      1  s   1.
  #     ion occupancy
      ion_occ      1  s   0.5
  ################################################################################
  #
  #  Suggested additional basis functions. For production calculations,
  #  uncomment them one after another (the most important basis functions are
  #  listed first).
  #
  #  Basis constructed for dimers: 0.5 A, 0.7 A, 1.0 A, 1.5 A, 2.5 A
  #
  ################################################################################
  #  "First tier" - improvements: -1014.90 meV to -62.69 meV
       hydro 2 s 2.1
       hydro 2 p 3.5
  #  "Second tier" - improvements: -12.89 meV to -1.83 meV
       hydro 1 s 0.85
       hydro 2 p 3.7
       hydro 2 s 1.2
       hydro 3 d 7
  #  "Third tier" - improvements: -0.25 meV to -0.12 meV
  #     hydro 4 f 11.2
  #     hydro 3 p 4.8
  #     hydro 4 d 9
  #     hydro 3 s 3.2
  ################################################################################
  #
  # For methods that use the localized form of the "resolution of identity" for
  # the two-electron Coulomb operator (RI_method LVL), particularly Hartree-Fock and
  # hybrid density functional calculations, the highest accuracy can be obtained by
  # uncommenting the line beginning with "for_aux"  below, thus adding an extra g radial
  # function to the construction of the product basis set for the expansion.
  # See Ref. New J. Phys. 17, 093020 (2015) for more information, particularly Figs. 1 and 6.
  #
  ################################################################################
  #
  # for_aux hydro 5 g 6.0
  ################################################################################
  #
  #  FHI-aims code project
  # Volker Blum, Fritz Haber Institute Berlin, 2009
  #
  #  Suggested "tight" defaults for C atom (to be pasted into control.in file)
  #
  ################################################################################
    species        C
  #     global species definitions
      nucleus             6
      mass                12.0107
  #
      l_hartree           6
  #
      cut_pot             4.0  2.0  1.0
      basis_dep_cutoff    1e-4
  #
      radial_base         34 7.0
      radial_multiplier   2
      angular_grids specified
        division   0.2187   50
        division   0.4416  110
        division   0.6335  194
        division   0.7727  302
        division   0.8772  434
  #      division   0.9334  590
  #      division   0.9924  770
  #      division   1.0230  974
  #      division   1.5020 1202
  #     outer_grid  974
        outer_grid  434
  ################################################################################
  #
  #  Definition of "minimal" basis
  #
  ################################################################################
  #     valence basis states
      valence      2  s   2.
      valence      2  p   2.
  #     ion occupancy
      ion_occ      2  s   1.
      ion_occ      2  p   1.
  ################################################################################
  #
  #  Suggested additional basis functions. For production calculations,
  #  uncomment them one after another (the most important basis functions are
  #  listed first).
  #
  #  Constructed for dimers: 1.0 A, 1.25 A, 1.5 A, 2.0 A, 3.0 A
  #
  ################################################################################
  #  "First tier" - improvements: -1214.57 meV to -155.61 meV
       hydro 2 p 1.7
       hydro 3 d 6
       hydro 2 s 4.9
  #  "Second tier" - improvements: -67.75 meV to -5.23 meV
       hydro 4 f 9.8
       hydro 3 p 5.2
       hydro 3 s 4.3
       hydro 5 g 14.4
       hydro 3 d 6.2
  #  "Third tier" - improvements: -2.43 meV to -0.60 meV
  #     hydro 2 p 5.6
  #     hydro 2 s 1.4
  #     hydro 3 d 4.9
  #     hydro 4 f 11.2
  #  "Fourth tier" - improvements: -0.39 meV to -0.18 meV
  #     hydro 2 p 2.1
  #     hydro 5 g 16.4
  #     hydro 4 d 13.2
  #     hydro 3 s 13.6
  #     hydro 4 f 17.6
  #  Further basis functions - improvements: -0.08 meV and below
  #     hydro 3 s 2
  #     hydro 3 p 6
  #     hydro 4 d 20
  ################################################################################
  #
  # For methods that use the localized form of the "resolution of identity" for
  # the two-electron Coulomb operator (RI_method LVL), particularly Hartree-Fock and
  # hybrid density functional calculations, the highest accuracy can be obtained by
  # uncommenting the line beginning with "for_aux"  below, thus adding an extra g radial
  # function to the construction of the product basis set for the expansion.
  # See Ref. New J. Phys. 17, 093020 (2015) for more information, particularly Figs. 1 and 6.
  #
  ################################################################################
  #
  # for_aux hydro 5 g 6.0
  ################################################################################
  #
  #  FHI-aims code project
  # Volker Blum, Fritz Haber Institute Berlin, 2009
  #
  #  Suggested "tight" defaults for N atom (to be pasted into control.in file)
  #
  ################################################################################
    species        N
  #     global species definitions
      nucleus             7
      mass                14.0067
  #
      l_hartree           6
  #
      cut_pot             4.0  2.0  1.0
      basis_dep_cutoff    1e-4
  #
      radial_base         35 7.0
      radial_multiplier   2
      angular_grids       specified
        division   0.1841   50
        division   0.3514  110
        division   0.5126  194
        division   0.6292  302
        division   0.6939  434
  #      division   0.7396  590
  #      division   0.7632  770
  #      division   0.8122  974
  #      division   1.1604 1202
  #      outer_grid  974
        outer_grid  434
  ################################################################################
  #
  #  Definition of "minimal" basis
  #
  ################################################################################
  #     valence basis states
      valence      2  s   2.
      valence      2  p   3.
  #     ion occupancy
      ion_occ      2  s   1.
      ion_occ      2  p   2.
  ################################################################################
  #
  #  Suggested additional basis functions. For production calculations,
  #  uncomment them one after another (the most important basis functions are
  #  listed first).
  #
  #  Constructed for dimers: 1.0 A, 1.1 A, 1.5 A, 2.0 A, 3.0 A
  #
  ################################################################################
  #  "First tier" - improvements: -1193.42 meV to -220.60 meV
       hydro 2 p 1.8
       hydro 3 d 6.8
       hydro 3 s 5.8
  #  "Second tier" - improvements: -80.21 meV to -6.86 meV
       hydro 4 f 10.8
       hydro 3 p 5.8
       hydro 1 s 0.8
       hydro 5 g 16
       hydro 3 d 4.9
  #  "Third tier" - improvements: -4.29 meV to -0.53 meV
  #     hydro 3 s 16
  #     ionic 2 p auto
  #     hydro 3 d 6.6
  #     hydro 4 f 11.6
  #  "Fourth tier" - improvements: -0.75 meV to -0.25 meV
  #     hydro 2 p 4.5
  #     hydro 2 s 2.4
  #     hydro 5 g 14.4
  #     hydro 4 d 14.4
  #     hydro 4 f 16.8
  # Further basis functions - -0.21 meV and below
  #     hydro 3 p 14.8
  #     hydro 3 s 4.4
  #     hydro 3 d 19.6
  #     hydro 5 g 12.8
  ################################################################################
  #
  # For methods that use the localized form of the "resolution of identity" for
  # the two-electron Coulomb operator (RI_method LVL), particularly Hartree-Fock and
  # hybrid density functional calculations, the highest accuracy can be obtained by
  # uncommenting the line beginning with "for_aux"  below, thus adding an extra g radial
  # function to the construction of the product basis set for the expansion.
  # See Ref. New J. Phys. 17, 093020 (2015) for more information, particularly Figs. 1 and 6.
  #
  ################################################################################
  #
  # for_aux hydro 5 g 6.0
  ################################################################################
  #
  #  FHI-aims code project
  # Volker Blum, Fritz Haber Institute Berlin, 2009
  #
  #  Suggested "tight" defaults for O atom (to be pasted into control.in file)
  #
  ################################################################################
    species        O
  #     global species definitions
      nucleus             8
      mass                15.9994
  #
      l_hartree           6
  #
      cut_pot             4.0  2.0  1.0
      basis_dep_cutoff    1e-4
  #
      radial_base         36 7.0
      radial_multiplier   2
       angular_grids specified
        division   0.1817   50
        division   0.3417  110
        division   0.4949  194
        division   0.6251  302
        division   0.8014  434
  #      division   0.8507  590
  #      division   0.8762  770
  #      division   0.9023  974
  #      division   1.2339 1202
  #      outer_grid 974
        outer_grid  434
  ################################################################################
  #
  #  Definition of "minimal" basis
  #
  ################################################################################
  #     valence basis states
      valence      2  s   2.
      valence      2  p   4.
  #     ion occupancy
      ion_occ      2  s   1.
      ion_occ      2  p   3.
  ################################################################################
  #
  #  Suggested additional basis functions. For production calculations,
  #  uncomment them one after another (the most important basis functions are
  #  listed first).
  #
  #  Constructed for dimers: 1.0 A, 1.208 A, 1.5 A, 2.0 A, 3.0 A
  #
  ################################################################################
  #  "First tier" - improvements: -699.05 meV to -159.38 meV
       hydro 2 p 1.8
       hydro 3 d 7.6
       hydro 3 s 6.4
  #  "Second tier" - improvements: -49.91 meV to -5.39 meV
       hydro 4 f 11.6
       hydro 3 p 6.2
       hydro 3 d 5.6
       hydro 5 g 17.6
       hydro 1 s 0.75
  #  "Third tier" - improvements: -2.83 meV to -0.50 meV
  #     ionic 2 p auto
  #     hydro 4 f 10.8
  #     hydro 4 d 4.7
  #     hydro 2 s 6.8
  #  "Fourth tier" - improvements: -0.40 meV to -0.12 meV
  #     hydro 3 p 5
  #     hydro 3 s 3.3
  #     hydro 5 g 15.6
  #     hydro 4 f 17.6
  #     hydro 4 d 14
  # Further basis functions - -0.08 meV and below
  #     hydro 3 s 2.1
  #     hydro 4 d 11.6
  #     hydro 3 p 16
  #     hydro 2 s 17.2
  ################################################################################
  #
  # For methods that use the localized form of the "resolution of identity" for
  # the two-electron Coulomb operator (RI_method LVL), particularly Hartree-Fock and
  # hybrid density functional calculations, the highest accuracy can be obtained by
  # uncommenting the line beginning with "for_aux"  below, thus adding an extra g radial
  # function to the construction of the product basis set for the expansion.
  # See Ref. New J. Phys. 17, 093020 (2015) for more information, particularly Figs. 1 and 6.
  #
  ################################################################################
  #
  # for_aux hydro 5 g 6.0
  
  -----------------------------------------------------------------------
  Completed first pass over input file control.in .
  -----------------------------------------------------------------------
  
  
  -----------------------------------------------------------------------
  Parsing geometry.in (first pass over file, find array dimensions only).
  The contents of geometry.in will be repeated verbatim below
  unless switched off by setting 'verbatim_writeout .false.' .
  in the first line of geometry.in .
  -----------------------------------------------------------------------
  
  #
  # This is the geometry file that corresponds to the current relaxation step.
  # If you do not want this file to be written, set the "write_restart_geometry" flag to .false.
  #
  atom      -0.15613285     -0.06718784      1.35231302 C
  atom      -1.10880373      0.57734093      2.33827238 C
  atom      -0.70432505      1.31656919      3.23501353 O
  atom       0.77844522      0.50027421      1.37129201 H
  atom      -0.53989511     -0.12099807      0.32799106 H
  atom       0.05922093     -1.09741546      1.67221424 H
  atom      -2.45063620      0.28611838      2.25008537 N
  atom      -3.16453666     -0.62512568      1.35597684 C
  atom      -2.57437055     -2.05470563      1.33828777 C
  atom      -2.19423829     -2.57918275      0.29381814 O
  atom      -2.99085746      0.66272218      3.02626023 H
  atom      -4.16614351     -0.71003155      1.80153817 H
  atom      -3.35413557     -0.08404624     -0.06284285 C
  atom      -3.81564572      0.90931120     -0.00709467 H
  atom      -4.00486795     -0.74900195     -0.64348617 H
  atom      -2.40647498     -0.00266750     -0.60528483 H
  atom      -2.47951521     -2.75991865      2.51809167 N
  atom      -2.93641927     -2.51652594      3.89653331 C
  atom      -4.32201671     -1.83424711      3.94623439 C
  atom      -4.48174549     -0.70228686      4.40164845 O
  atom      -2.05400518     -3.66825965      2.35314938 H
  atom      -3.09279917     -3.52852308      4.30660052 H
  atom      -1.91388331     -1.81582920      4.78889032 C
  atom      -0.95960718     -2.35617988      4.74341444 H
  atom      -2.26314436     -1.81643156      5.82930644 H
  atom      -1.74167019     -0.77722824      4.49541540 H
  atom      -5.37757570     -2.55816300      3.46703785 N
  atom      -5.38070231     -3.88590407      2.87263154 C
  atom      -6.25878481     -2.05573538      3.51445832 H
  atom      -6.41333054     -4.25017009      2.84506255 H
  atom      -4.79835965     -4.59646232      3.47514073 H
  atom      -4.98075247     -3.89135838      1.84832242 H
  
  -----------------------------------------------------------------------
  Completed first pass over input file geometry.in .
  -----------------------------------------------------------------------
  

  Basic array size parameters:
  | Number of species                 :        4
  | Number of atoms                   :       32
  | Max. basis fn. angular momentum   :        4
  | Max. atomic/ionic basis occupied n:        2
  | Max. number of basis fn. types    :        2
  | Max. radial fns per species/type  :        8
  | Max. logarithmic grid size        :     1301
  | Max. radial integration grid size :       73
  | Max. angular integration grid size:      434
  | Max. angular grid division number :        8
  | Radial grid for Hartree potential :     1301
  | Number of spin channels           :        1

------------------------------------------------------------
          Reading file control.in.
------------------------------------------------------------
  XC: Using PBE gradient-corrected functionals.
  Self-consistent screening and van der Waals energy (TS, TS+SCS,MBD) module
  Spin treatment: No spin polarisation.
  Charge =   0.000000E+00: Neutral system requested explicitly.
  Occupation type: Gaussian broadening, width =   0.500000E-01 eV.
  Using pulay charge density mixing.
  Pulay mixing - number of memorized iterations:   10
  Charge density mixing - mixing parameter:     0.5000
  Convergence accuracy of self-consistent charge density:  0.1000E-03
  Convergence accuracy of sum of eigenvalues:  0.1000E-01
  Convergence accuracy of total energy:  0.1000E-04
  Convergence accuracy of forces:  0.1000E-03
  Maximum number of s.-c. iterations  :  1000
  Fitting ESP-charges to Potential. 
  | Esp charge output options: 
  | ESP Grid method: 3, cubic grid
  | Number of points in x, ,y, z:  0080 0080 0080
  |
 
  Reading configuration options for species H                   .
  | Found nuclear charge :   1.0000
  | Found atomic mass :    1.00794000000000      amu
  | Found l_max for Hartree potential  :   6
  | Found cutoff potl. onset [A], width [A], scale factor :    4.00000    2.00000    1.00000
  | Threshold for basis-dependent cutoff potential is   0.100000E-03
  | Found data for basic radial integration grid :    24 points, outermost radius =    7.000 A
  | Found multiplier for basic radial grid :   2
  | Found angular grid specification: user-specified.
  | Specified grid contains     6 separate shells.
  | Check grid settings after all constraints further below.
  | Found free-atom valence shell :  1 s   1.000
  | No ionic wave fns used. Skipping ion_occ.
  | Found hydrogenic basis function :  2 s   2.100
  | Found hydrogenic basis function :  2 p   3.500
  | Found hydrogenic basis function :  1 s   0.850
  | Found hydrogenic basis function :  2 p   3.700
  | Found hydrogenic basis function :  2 s   1.200
  | Found hydrogenic basis function :  3 d   7.000
  Species H                   : Missing cutoff potential type.
  Defaulting to exp(1/x)/(1-x)^2 type cutoff potential.
  Species H : No 'logarithmic' tag. Using default grid for free atom:
  | Default logarithmic grid data [bohr] : 0.1000E-03 0.1000E+03 0.1012E+01
  Species H : On-site basis accuracy parameter (for Gram-Schmidt orthonormalisation) not specified.
  Using default value basis_acc =  0.1000000E-03.
  Species H                   : Using default innermost maximum threshold i_radial=  2 for radial functions.
  Species H                   : Default cutoff onset for free atom density etc. : 0.40000000E+01 AA.
  Species H                   : Basic radial grid will be enhanced according to radial_multiplier =   2, to contain    49 grid points.
 
  Reading configuration options for species C                   .
  | Found nuclear charge :   6.0000
  | Found atomic mass :    12.0107000000000      amu
  | Found l_max for Hartree potential  :   6
  | Found cutoff potl. onset [A], width [A], scale factor :    4.00000    2.00000    1.00000
  | Threshold for basis-dependent cutoff potential is   0.100000E-03
  | Found data for basic radial integration grid :    34 points, outermost radius =    7.000 A
  | Found multiplier for basic radial grid :   2
  | Found angular grid specification: user-specified.
  | Specified grid contains     6 separate shells.
  | Check grid settings after all constraints further below.
  | Found free-atom valence shell :  2 s   2.000
  | Found free-atom valence shell :  2 p   2.000
  | No ionic wave fns used. Skipping ion_occ.
  | No ionic wave fns used. Skipping ion_occ.
  | Found hydrogenic basis function :  2 p   1.700
  | Found hydrogenic basis function :  3 d   6.000
  | Found hydrogenic basis function :  2 s   4.900
  | Found hydrogenic basis function :  4 f   9.800
  | Found hydrogenic basis function :  3 p   5.200
  | Found hydrogenic basis function :  3 s   4.300
  | Found hydrogenic basis function :  5 g  14.400
  | Found hydrogenic basis function :  3 d   6.200
  Species C                   : Missing cutoff potential type.
  Defaulting to exp(1/x)/(1-x)^2 type cutoff potential.
  Species C : No 'logarithmic' tag. Using default grid for free atom:
  | Default logarithmic grid data [bohr] : 0.1000E-03 0.1000E+03 0.1012E+01
  Species C : On-site basis accuracy parameter (for Gram-Schmidt orthonormalisation) not specified.
  Using default value basis_acc =  0.1000000E-03.
  Species C                   : Using default innermost maximum threshold i_radial=  2 for radial functions.
  Species C                   : Default cutoff onset for free atom density etc. : 0.40000000E+01 AA.
  Species C                   : Basic radial grid will be enhanced according to radial_multiplier =   2, to contain    69 grid points.
 
  Reading configuration options for species N                   .
  | Found nuclear charge :   7.0000
  | Found atomic mass :    14.0067000000000      amu
  | Found l_max for Hartree potential  :   6
  | Found cutoff potl. onset [A], width [A], scale factor :    4.00000    2.00000    1.00000
  | Threshold for basis-dependent cutoff potential is   0.100000E-03
  | Found data for basic radial integration grid :    35 points, outermost radius =    7.000 A
  | Found multiplier for basic radial grid :   2
  | Found angular grid specification: user-specified.
  | Specified grid contains     6 separate shells.
  | Check grid settings after all constraints further below.
  | Found free-atom valence shell :  2 s   2.000
  | Found free-atom valence shell :  2 p   3.000
  | No ionic wave fns used. Skipping ion_occ.
  | No ionic wave fns used. Skipping ion_occ.
  | Found hydrogenic basis function :  2 p   1.800
  | Found hydrogenic basis function :  3 d   6.800
  | Found hydrogenic basis function :  3 s   5.800
  | Found hydrogenic basis function :  4 f  10.800
  | Found hydrogenic basis function :  3 p   5.800
  | Found hydrogenic basis function :  1 s   0.800
  | Found hydrogenic basis function :  5 g  16.000
  | Found hydrogenic basis function :  3 d   4.900
  Species N                   : Missing cutoff potential type.
  Defaulting to exp(1/x)/(1-x)^2 type cutoff potential.
  Species N : No 'logarithmic' tag. Using default grid for free atom:
  | Default logarithmic grid data [bohr] : 0.1000E-03 0.1000E+03 0.1012E+01
  Species N : On-site basis accuracy parameter (for Gram-Schmidt orthonormalisation) not specified.
  Using default value basis_acc =  0.1000000E-03.
  Species N                   : Using default innermost maximum threshold i_radial=  2 for radial functions.
  Species N                   : Default cutoff onset for free atom density etc. : 0.40000000E+01 AA.
  Species N                   : Basic radial grid will be enhanced according to radial_multiplier =   2, to contain    71 grid points.
 
  Reading configuration options for species O                   .
  | Found nuclear charge :   8.0000
  | Found atomic mass :    15.9994000000000      amu
  | Found l_max for Hartree potential  :   6
  | Found cutoff potl. onset [A], width [A], scale factor :    4.00000    2.00000    1.00000
  | Threshold for basis-dependent cutoff potential is   0.100000E-03
  | Found data for basic radial integration grid :    36 points, outermost radius =    7.000 A
  | Found multiplier for basic radial grid :   2
  | Found angular grid specification: user-specified.
  | Specified grid contains     6 separate shells.
  | Check grid settings after all constraints further below.
  | Found free-atom valence shell :  2 s   2.000
  | Found free-atom valence shell :  2 p   4.000
  | No ionic wave fns used. Skipping ion_occ.
  | No ionic wave fns used. Skipping ion_occ.
  | Found hydrogenic basis function :  2 p   1.800
  | Found hydrogenic basis function :  3 d   7.600
  | Found hydrogenic basis function :  3 s   6.400
  | Found hydrogenic basis function :  4 f  11.600
  | Found hydrogenic basis function :  3 p   6.200
  | Found hydrogenic basis function :  3 d   5.600
  | Found hydrogenic basis function :  5 g  17.600
  | Found hydrogenic basis function :  1 s   0.750
  Species O                   : Missing cutoff potential type.
  Defaulting to exp(1/x)/(1-x)^2 type cutoff potential.
  Species O : No 'logarithmic' tag. Using default grid for free atom:
  | Default logarithmic grid data [bohr] : 0.1000E-03 0.1000E+03 0.1012E+01
  Species O : On-site basis accuracy parameter (for Gram-Schmidt orthonormalisation) not specified.
  Using default value basis_acc =  0.1000000E-03.
  Species O                   : Using default innermost maximum threshold i_radial=  2 for radial functions.
  Species O                   : Default cutoff onset for free atom density etc. : 0.40000000E+01 AA.
  Species O                   : Basic radial grid will be enhanced according to radial_multiplier =   2, to contain    73 grid points.
 
  Finished reading input file 'control.in'. Consistency checks are next.
 
  Target number of points in a grid batch is not set. Defaulting to  100
  Method for grid partitioning is not set. Defaulting to parallel hash+maxmin partitioning.
  Batch size limit is not set. Defaulting to    200
  By default, will store active basis functions for each batch.
  If in need of memory, prune_basis_once .false. can be used to disable this option.
  communication_type for Hartree potential was not specified.
  Defaulting to calc_hartree .
  Pulay mixer: Number of initial linear mixing iterations not set.
  Defaulting to    0 iterations.
  Work space size for distributed Hartree potential not set.
  Defaulting to   0.200000E+03 MB.
  Algorithm-dependent basis array size parameters:
  | n_max_pulay                         :       10
  Geometry relaxation not requested: no relaxation will be performed.
  Handling of forces: Unphysical translation and rotation will be removed from forces.
  No accuracy limit for integral partition fn. given. Defaulting to  0.1000E-14.
  No threshold value for u(r) in integrations given. Defaulting to  0.1000E-05.
  No accuracy for occupation numbers given. Defaulting to  0.1000E-07.
  No threshold value for occupation numbers given. Defaulting to  0.0000E+00.
  No accuracy for fermi level given. Defaulting to  0.1000E-19.
  Maximum # of iterations to find E_F not set. Defaulting to  200.
  Preferred method for the eigenvalue solver ('KS_method') not specified in 'control.in'.
  Calling blacs routine to test compilation state
  Since scalapack support is enabled, defaulting to 'elpa'.
  Preferred method for the MBD eigenvalue solver ('mbd_eigensolver') not specified in 'control.in'.
  Calling blacs routine to test compilation state
  Since scalapack support is enabled, defaulting to 'scaLAPACK'.
  Will not use alltoall communication since running on < 1024 CPUs.
  Threshold for basis singularities not set.
  Default threshold for basis singularities:  0.1000E-04
  partition_type (choice of integration weights) for integrals was not specified.
  | Using a version of the partition function of Stratmann and coworkers ('stratmann_smoother').
  | At each grid point, the set of atoms used to build the partition table is smoothly restricted to
  | only those atoms whose free-atom density would be non-zero at that grid point.
  Partitioning for Hartree potential was not defined. Using partition_type for integrals.
  | Adjusted default value of keyword multip_moments_threshold to:       0.10000000E-11
  | This value may affect high angular momentum components of the Hartree potential in periodic systems.
  No q(lm)/r^(l+1) cutoff set for long-range Hartree potential.
  | Using default value of  0.100000E-09 .
  | Verify using the multipole_threshold keyword.
  Defaulting to new monopole extrapolation.
  Density update method: automatic selection selected.
------------------------------------------------------------


------------------------------------------------------------
          Reading geometry description geometry.in.
------------------------------------------------------------
 * Warning! You did not set the 'relativistic' flag in input file 'control.in'.
 * Since you are not attempting to treat any elements beyond Ca(Z=20), FHI-aims
 * will default to 'relativistic none'.
 * You must ensure that this is really what you want!!
 * For example, DO NOT compute total-energy differences between results from
 * different settings of the 'relativistic' flag.
  Input structure read successfully.
  The structure contains       32 atoms,  and a total of        116.000 electrons.

  Input geometry:
  | No unit cell requested.
  | Atomic structure:
  |       Atom                x [A]            y [A]            z [A]
  |    1: Species C             -0.156133        -0.067188         1.352313
  |    2: Species C             -1.108804         0.577341         2.338272
  |    3: Species O             -0.704325         1.316569         3.235014
  |    4: Species H              0.778445         0.500274         1.371292
  |    5: Species H             -0.539895        -0.120998         0.327991
  |    6: Species H              0.059221        -1.097415         1.672214
  |    7: Species N             -2.450636         0.286118         2.250085
  |    8: Species C             -3.164537        -0.625126         1.355977
  |    9: Species C             -2.574371        -2.054706         1.338288
  |   10: Species O             -2.194238        -2.579183         0.293818
  |   11: Species H             -2.990857         0.662722         3.026260
  |   12: Species H             -4.166144        -0.710032         1.801538
  |   13: Species C             -3.354136        -0.084046        -0.062843
  |   14: Species H             -3.815646         0.909311        -0.007095
  |   15: Species H             -4.004868        -0.749002        -0.643486
  |   16: Species H             -2.406475        -0.002668        -0.605285
  |   17: Species N             -2.479515        -2.759919         2.518092
  |   18: Species C             -2.936419        -2.516526         3.896533
  |   19: Species C             -4.322017        -1.834247         3.946234
  |   20: Species O             -4.481745        -0.702287         4.401648
  |   21: Species H             -2.054005        -3.668260         2.353149
  |   22: Species H             -3.092799        -3.528523         4.306601
  |   23: Species C             -1.913883        -1.815829         4.788890
  |   24: Species H             -0.959607        -2.356180         4.743414
  |   25: Species H             -2.263144        -1.816432         5.829306
  |   26: Species H             -1.741670        -0.777228         4.495415
  |   27: Species N             -5.377576        -2.558163         3.467038
  |   28: Species C             -5.380702        -3.885904         2.872632
  |   29: Species H             -6.258785        -2.055735         3.514458
  |   30: Species H             -6.413331        -4.250170         2.845063
  |   31: Species H             -4.798360        -4.596462         3.475141
  |   32: Species H             -4.980752        -3.891358         1.848322
  |

  | The smallest distance between any two atoms is         1.01548595 AA.
  |
  | The first atom of this pair is atom number                     27 .
  | The second atom of this pair is atom number                    29 .

  Number of empty states per atom not set in control.in - providing a guess from actual geometry.
  | Total number of empty states used during s.c.f. cycle:       71
  If you use a very high smearing, use empty_states (per atom!) in control.in to increase this value.

  Structure-dependent array size parameters: 
  | Maximum number of distinct radial functions  :       40
  | Maximum number of basis functions            :      840
  | Number of Kohn-Sham states (occupied + empty):      129
------------------------------------------------------------

------------------------------------------------------------
          Preparing all fixed parts of the calculation.
------------------------------------------------------------
  Determining machine precision:
    2.225073858507201E-308
  Setting up grids for atomic and cluster calculations.

  Creating wave function, potential, and density for free atoms.

  Species: H

  List of occupied orbitals and eigenvalues:
    n    l              occ      energy [Ha]    energy [eV]
    1    0           1.0000        -0.238382        -6.4867


  Species: C

  List of occupied orbitals and eigenvalues:
    n    l              occ      energy [Ha]    energy [eV]
    1    0           2.0000       -10.041232      -273.2358
    2    0           2.0000        -0.504327       -13.7234
    2    1           2.0000        -0.193750        -5.2722


  Species: N

  List of occupied orbitals and eigenvalues:
    n    l              occ      energy [Ha]    energy [eV]
    1    0           2.0000       -14.129007      -384.4699
    2    0           2.0000        -0.681802       -18.5528
    2    1           3.0000        -0.260543        -7.0897


  Species: O

  List of occupied orbitals and eigenvalues:
    n    l              occ      energy [Ha]    energy [eV]
    1    0           2.0000       -18.898576      -514.2564
    2    0           2.0000        -0.878795       -23.9132
    2    1           4.0000        -0.332075        -9.0362

  Creating fixed part of basis set: Ionic, confined, hydrogenic.
 
  H                    hydrogenic:
 
  List of hydrogenic basis orbitals: 
    n    l      effective z      eigenvalue [eV]  inner max. [A]     outer max. [A]     outer radius [A]   
    2    0         2.100000       -14.9965           0.193243           1.317208           5.373006
    2    1         3.500000       -41.6672           0.602369           0.602369           4.056063
    1    0         0.850000        -9.8292           0.624871           0.624871           5.373006
    2    1         3.700000       -46.5653           0.573622           0.573622           3.910002
    2    0         1.200000        -4.5995           0.334980           2.228188           5.505995
    3    2         7.000000       -74.0753           0.680699           0.680699           3.769201
 
 
  C                    hydrogenic:
 
  List of hydrogenic basis orbitals: 
    n    l      effective z      eigenvalue [eV]  inner max. [A]     outer max. [A]     outer radius [A]   
    2    1         1.700000        -9.8152           1.245706           1.245706           5.401630
    3    2         6.000000       -54.4226           0.792453           0.792453           4.178599
    2    0         4.900000       -81.6681           0.082559           0.562749           3.353238
    4    3         9.800000       -81.6681           0.863254           0.863254           4.028125
    3    1         5.200000       -40.8774           0.305389           1.215618           4.898362
    3    0         4.300000       -27.9508           0.091041           1.610311           5.401630
    5    4        14.400000      -112.8510           0.917666           0.917666           3.883070
    3    2         6.200000       -58.1113           0.763917           0.763917           4.077671
 
 
  N                    hydrogenic:
 
  List of hydrogenic basis orbitals: 
    n    l      effective z      eigenvalue [eV]  inner max. [A]     outer max. [A]     outer radius [A]   
    2    1         1.800000       -11.0118           1.177451           1.177451           5.427479
    3    2         6.800000       -69.9029           0.704619           0.704619           3.854246
    3    0         5.800000       -50.8549           0.067388           1.191934           4.629968
    4    3        10.800000       -99.1854           0.786571           0.786571           3.761152
    3    1         5.800000       -50.8549           0.274880           1.094176           4.518138
    1    0         0.800000        -8.7059           0.662839           0.662839           5.361532
    5    4        16.000000      -139.3222           0.825990           0.825990           3.625711
    3    2         4.900000       -36.2967           0.968267           0.968267           4.862000
 
 
  O                    hydrogenic:
 
  List of hydrogenic basis orbitals: 
    n    l      effective z      eigenvalue [eV]  inner max. [A]     outer max. [A]     outer radius [A]   
    2    1         1.800000       -11.0118           1.178562           1.178562           5.432602
    3    2         7.600000       -87.3182           0.624125           0.624125           3.541477
    3    0         6.400000       -61.9209           0.061167           1.081902           4.306578
    4    3        11.600000      -114.4238           0.731631           0.731631           3.585037
    3    1         6.200000       -58.1113           0.255680           1.030270           4.306578
    3    2         5.600000       -47.4081           0.847233           0.847233           4.413171
    5    4        17.600000      -168.5799           0.749740           0.749740           3.372465
    1    0         0.750000        -7.6499           0.705284           0.705284           5.366593
 

  Adding cutoff potential to free-atom effective potential.
  Creating atomic-like basis functions for current effective potential.

  Species H                   :

  List of atomic basis orbitals and eigenvalues:
    n    l      energy [Ha]    energy [eV]    outer radius [A]
    1    0        -0.238382        -6.4867       5.373006


  Species C                   :

  List of atomic basis orbitals and eigenvalues:
    n    l      energy [Ha]    energy [eV]    outer radius [A]
    1    0       -10.041232      -273.2358       1.934409
    2    0        -0.504327       -13.7234       5.271162
    2    1        -0.193750        -5.2722       5.401630


  Species N                   :

  List of atomic basis orbitals and eigenvalues:
    n    l      energy [Ha]    energy [eV]    outer radius [A]
    1    0       -14.129007      -384.4699       1.637919
    2    0        -0.681802       -18.5528       5.168461
    2    1        -0.260543        -7.0897       5.361532


  Species O                   :

  List of atomic basis orbitals and eigenvalues:
    n    l      energy [Ha]    energy [eV]    outer radius [A]
    1    0       -18.898576      -514.2564       1.415765
    2    0        -0.878795       -23.9132       5.048385
    2    1        -0.332075        -9.0362       5.301386

  Assembling full basis from fixed parts.
  | Species H :   atomic orbital   1 s accepted.
  | Species H :    hydro orbital   2 s accepted.
  | Species H :    hydro orbital   1 s accepted.
  | Species H :    hydro orbital   2 s accepted.
  | Species H :    hydro orbital   2 p accepted.
  | Species H :    hydro orbital   2 p accepted.
  | Species H :    hydro orbital   3 d accepted.
  | Species C :   atomic orbital   1 s accepted.
  | Species C :    hydro orbital   2 s accepted.
  | Species C :   atomic orbital   2 s accepted.
  | Species C :    hydro orbital   3 s accepted.
  | Species C :    hydro orbital   3 p accepted.
  | Species C :   atomic orbital   2 p accepted.
  | Species C :    hydro orbital   2 p accepted.
  | Species C :    hydro orbital   3 d accepted.
  | Species C :    hydro orbital   3 d accepted.
  | Species C :    hydro orbital   4 f accepted.
  | Species C :    hydro orbital   5 g accepted.
  | Species N :   atomic orbital   1 s accepted.
  | Species N :    hydro orbital   3 s accepted.
  | Species N :   atomic orbital   2 s accepted.
  | Species N :    hydro orbital   1 s accepted.
  | Species N :    hydro orbital   3 p accepted.
  | Species N :   atomic orbital   2 p accepted.
  | Species N :    hydro orbital   2 p accepted.
  | Species N :    hydro orbital   3 d accepted.
  | Species N :    hydro orbital   3 d accepted.
  | Species N :    hydro orbital   4 f accepted.
  | Species N :    hydro orbital   5 g accepted.
  | Species O :   atomic orbital   1 s accepted.
  | Species O :    hydro orbital   3 s accepted.
  | Species O :   atomic orbital   2 s accepted.
  | Species O :    hydro orbital   1 s accepted.
  | Species O :    hydro orbital   3 p accepted.
  | Species O :   atomic orbital   2 p accepted.
  | Species O :    hydro orbital   2 p accepted.
  | Species O :    hydro orbital   3 d accepted.
  | Species O :    hydro orbital   3 d accepted.
  | Species O :    hydro orbital   4 f accepted.
  | Species O :    hydro orbital   5 g accepted.
 
  Basis size parameters after reduction:
  | Total number of radial functions:       40
  | Total number of basis functions :      840
 
  Testing on-site integration grid accuracy.
  |  Species  Function  <phi|h_atom|phi> (log., in eV)  <phi|h_atom|phi> (rad., in eV)
           1        1                 -6.4869821809                 -6.4870742227
           1        2                 13.5044133542                 13.5041049177
           1        3                 32.7854418792                 32.7779770519
           1        4                 33.7995553101                 33.7152624900 ***
           1        5                 28.8558651799                 28.8558652046
           1        6                 59.6361831893                 59.6362535845
           1        7                 60.2733718049                 60.2733715484
           2        8               -273.2358277112               -273.2358261765
           2        9                -10.7624923123                -10.7625144012
           2       10                 17.4634079027                 17.4634252127
           2       11                 53.0363661832                 53.0366180446
           2       12                 15.0981351967                 15.0981317714
           2       13                  3.8522181899                  3.8522770949
           2       14                 12.1181835661                 12.1206868578
           2       15                 29.4320778347                 29.4320780959
           2       16                 54.8753777694                 54.8752901936
           2       17                 59.3533975461                 59.3533974833
           2       18                 93.4537491195                 93.4537492066
           3       19               -384.4698526889               -384.4698499465
           3       20                 12.5691022037                 12.5690910168
           3       21                -15.7489097511                -15.7489165588
           3       22                 27.0978334940                 27.0985589490
           3       23                 18.5949116966                 18.5949125562
           3       24                  1.2212828291                  1.2212855301
           3       25                 13.4428926797                 13.4434051125
           3       26                 35.9380614500                 35.9380613666
           3       27                 39.9231532098                 39.9231654735
           3       28                 72.9957335806                 72.9957336833
           3       29                116.4231321147                116.4231321431
           4       30               -514.2564144315               -514.2564099626
           4       31                 15.1726678541                 15.1726530877
           4       32                -21.5447785304                -21.5447874973
           4       33                 14.4944558459                 14.4944698284
           4       34                 20.8882174564                 20.8882178906
           4       35                 -2.4850315908                 -2.4850322289
           4       36                 13.8600193195                 13.8599826966
           4       37                 45.8243383616                 45.8243383675
           4       38                 52.1840606465                 52.1840622440
           4       39                 85.4074185510                 85.4074185819
           4       40                142.0983717302                142.0983717339
 * Note: Onsite integrals marked "***" above are less accurate than
 * onsite_accuracy_threshold =    0.03000 eV. Usually, this is harmless.
 * When in doubt, tighten the "radial" and/or "radial_multiplier" flags to check.

  Preparing densities etc. for the partition functions (integrals / Hartree potential).

  Preparations completed.
  max(cpu_time)          :      0.240 s.
  Wall clock time (cpu1) :      0.237 s.
------------------------------------------------------------

------------------------------------------------------------
          Begin self-consistency loop: Initialization.

          Date     :  20170309, Time     :  190741.232
------------------------------------------------------------

  Initializing index lists of integration centers etc. from given atomic structure:
  | Number of centers in hartree potential         :        32
  | Number of centers in hartree multipole         :        32
  | Number of centers in electron density summation:        32
  | Number of centers in basis integrals           :        32
  | Number of centers in integrals                 :        32
  | Number of centers in hamiltonian               :        32
  Using modified Scalapack Eigenvalue solver (ELPA)
  * Using 32 tasks for Scalapack Eigenvalue solver.
  Detailed listing of tasks and assigned k-points:
  (for non-periodic systems, the "k-point" denotes an internal label only)
   Task     0 k-point     1 on eos036
   Task     1 k-point     1 on eos036
   Task     2 k-point     1 on eos036
   Task     3 k-point     1 on eos036
   Task     4 k-point     1 on eos036
   Task     5 k-point     1 on eos036
   Task     6 k-point     1 on eos036
   Task     7 k-point     1 on eos036
   Task     8 k-point     1 on eos036
   Task     9 k-point     1 on eos036
   Task    10 k-point     1 on eos036
   Task    11 k-point     1 on eos036
   Task    12 k-point     1 on eos036
   Task    13 k-point     1 on eos036
   Task    14 k-point     1 on eos036
   Task    15 k-point     1 on eos036
   Task    16 k-point     1 on eos036
   Task    17 k-point     1 on eos036
   Task    18 k-point     1 on eos036
   Task    19 k-point     1 on eos036
   Task    20 k-point     1 on eos036
   Task    21 k-point     1 on eos036
   Task    22 k-point     1 on eos036
   Task    23 k-point     1 on eos036
   Task    24 k-point     1 on eos036
   Task    25 k-point     1 on eos036
   Task    26 k-point     1 on eos036
   Task    27 k-point     1 on eos036
   Task    28 k-point     1 on eos036
   Task    29 k-point     1 on eos036
   Task    30 k-point     1 on eos036
   Task    31 k-point     1 on eos036
  Tasks:    32 split into      8 X      4 BLACS grid
  Calculating blocksize based on n_basis =          840 max_nprow =            8 max_npcol =            4
  Scalapack blocksize set to:           16
  Required Scalapack workspace - INTEGER:            1 REAL:             1
  Partitioning the integration grid into batches with parallel hashing+maxmin method.
  | Number of batches:     4943
  | Maximal batch size:     200
  | Minimal batch size:      55
  | Average batch size:     106.763
  | Standard deviation of batch sizes:      34.317

  Integration load balanced across    32 MPI tasks.
  Work distribution over tasks is as follows:
  Task     0 has      16551 integration points.
  Task     1 has      16491 integration points.
  Task     2 has      16451 integration points.
  Task     3 has      16561 integration points.
  Task     4 has      16468 integration points.
  Task     5 has      16491 integration points.
  Task     6 has      16555 integration points.
  Task     7 has      16481 integration points.
  Task     8 has      16454 integration points.
  Task     9 has      16477 integration points.
  Task    10 has      16493 integration points.
  Task    11 has      16450 integration points.
  Task    12 has      16546 integration points.
  Task    13 has      16438 integration points.
  Task    14 has      16442 integration points.
  Task    15 has      16443 integration points.
  Task    16 has      16548 integration points.
  Task    17 has      16527 integration points.
  Task    18 has      16434 integration points.
  Task    19 has      16489 integration points.
  Task    20 has      16495 integration points.
  Task    21 has      16540 integration points.
  Task    22 has      16447 integration points.
  Task    23 has      16426 integration points.
  Task    24 has      16432 integration points.
  Task    25 has      16547 integration points.
  Task    26 has      16489 integration points.
  Task    27 has      16555 integration points.
  Task    28 has      16485 integration points.
  Task    29 has      16497 integration points.
  Task    30 has      16532 integration points.
  Task    31 has      16493 integration points.
  Initializing partition tables, free-atom densities, potentials, etc. across the integration grid (initialize_grid_storage).
  | initialize_grid_storage: Actual outermost partition radius vs. multipole_radius_free
  | (-- VB: in principle, multipole_radius_free should be larger, hence this output)
  | Species        1: Confinement radius =              6.000000000000000 AA, multipole_radius_free =              6.071692442739658 AA.
  | Species        1: outer_partition_radius set to              6.071692442739658 AA .
  | Species        2: Confinement radius =              6.000000000000000 AA, multipole_radius_free =              6.029870734432609 AA.
  | Species        2: outer_partition_radius set to              6.029870734432609 AA .
  | Species        3: Confinement radius =              6.000000000000000 AA, multipole_radius_free =              6.058726835495003 AA.
  | Species        3: outer_partition_radius set to              6.058726835495003 AA .
  | Species        4: Confinement radius =              6.000000000000000 AA, multipole_radius_free =              6.064445521808699 AA.
  | Species        4: outer_partition_radius set to              6.064445521808699 AA .
  | Original list of interatomic distances with          32 x         32 entries is created.
  | Net number of integration points:   527728
  | of which are non-zero points    :   410129
  Obtaining max. number of non-zero basis functions in each batch (get_n_compute_maxes).
  | Maximal number of non-zero basis functions:      820 in task     0
  | Maximal number of non-zero basis functions:      812 in task     1
  | Maximal number of non-zero basis functions:      820 in task     2
  | Maximal number of non-zero basis functions:      811 in task     3
  | Maximal number of non-zero basis functions:      820 in task     4
  | Maximal number of non-zero basis functions:      816 in task     5
  | Maximal number of non-zero basis functions:      806 in task     6
  | Maximal number of non-zero basis functions:      808 in task     7
  | Maximal number of non-zero basis functions:      806 in task     8
  | Maximal number of non-zero basis functions:      818 in task     9
  | Maximal number of non-zero basis functions:      816 in task    10
  | Maximal number of non-zero basis functions:      798 in task    11
  | Maximal number of non-zero basis functions:      816 in task    12
  | Maximal number of non-zero basis functions:      819 in task    13
  | Maximal number of non-zero basis functions:      821 in task    14
  | Maximal number of non-zero basis functions:      814 in task    15
  | Maximal number of non-zero basis functions:      818 in task    16
  | Maximal number of non-zero basis functions:      813 in task    17
  | Maximal number of non-zero basis functions:      809 in task    18
  | Maximal number of non-zero basis functions:      810 in task    19
  | Maximal number of non-zero basis functions:      819 in task    20
  | Maximal number of non-zero basis functions:      813 in task    21
  | Maximal number of non-zero basis functions:      821 in task    22
  | Maximal number of non-zero basis functions:      815 in task    23
  | Maximal number of non-zero basis functions:      819 in task    24
  | Maximal number of non-zero basis functions:      816 in task    25
  | Maximal number of non-zero basis functions:      816 in task    26
  | Maximal number of non-zero basis functions:      810 in task    27
  | Maximal number of non-zero basis functions:      820 in task    28
  | Maximal number of non-zero basis functions:      807 in task    29
  | Maximal number of non-zero basis functions:      820 in task    30
  | Maximal number of non-zero basis functions:      811 in task    31
  Selecting the method for density update.
  Loop over occupied states selected for charge density update.
  Integrating Hamiltonian matrix: batch-based integration.
  Time summed over all CPUs for integration: real work       24.862 s, elapsed       25.836 s
  Integrating overlap matrix.
  Time summed over all CPUs for integration: real work       15.343 s, elapsed       15.830 s
  Deallocating overlap matrix.

  Updating Kohn-Sham eigenvalues, eigenvectors, occupation numbers, and Fermi level.
  Solving generalized eigenproblem
  Solving real symmetric generalised eigenvalue problem by standard ScaLAPACK.
  Transforming overlap matrix with ScaLAPACK and checking for singularities.
  : Overlap matrix is nonsingular, using Cholesky decomposition
  | Lowest eigenvalue:  0.940046E-04
  Factoring overlap matrix with Cholesky decomposition
  Using Cholesky factor for transformation
  Using 1-stage real ELPA solver
  Determining occupation numbers for Kohn-Sham eigenstates.
  | Chemical potential (Fermi level) in eV                 : -.94289768E+01
  | Error in electron count due to remaining E_F inaccuracy: 0.00000000E+00
  | Maximum occupation number of highest empty state:  0.00E+00

  Writing Kohn-Sham eigenvalues.

  State    Occupation    Eigenvalue [Ha]    Eigenvalue [eV]
      1       2.00000         -18.974374         -516.31900
      2       2.00000         -18.974142         -516.31268
      3       2.00000         -18.973692         -516.30042
      4       2.00000         -14.254711         -387.89042
      5       2.00000         -14.252288         -387.82450
      6       2.00000         -14.250869         -387.78588
      7       2.00000         -10.171704         -276.78615
      8       2.00000         -10.171516         -276.78102
      9       2.00000         -10.171469         -276.77974
     10       2.00000         -10.166533         -276.64544
     11       2.00000         -10.148188         -276.14624
     12       2.00000         -10.147338         -276.12313
     13       2.00000         -10.135599         -275.80367
     14       2.00000         -10.134168         -275.76473
     15       2.00000         -10.132668         -275.72391
     16       2.00000          -1.133858          -30.85385
     17       2.00000          -1.130778          -30.77003
     18       2.00000          -1.130192          -30.75408
     19       2.00000          -1.016459          -27.65926
     20       2.00000          -1.010672          -27.50179
     21       2.00000          -0.998714          -27.17640
     22       2.00000          -0.881597          -23.98948
     23       2.00000          -0.876246          -23.84387
     24       2.00000          -0.848967          -23.10157
     25       2.00000          -0.817162          -22.23611
     26       2.00000          -0.778763          -21.19123
     27       2.00000          -0.767055          -20.87264
     28       2.00000          -0.708685          -19.28430
     29       2.00000          -0.685169          -18.64440
     30       2.00000          -0.657820          -17.90019
     31       2.00000          -0.634182          -17.25698
     32       2.00000          -0.619937          -16.86936
     33       2.00000          -0.615445          -16.74712
     34       2.00000          -0.612895          -16.67771
     35       2.00000          -0.593537          -16.15095
     36       2.00000          -0.578234          -15.73455
     37       2.00000          -0.564230          -15.35347
     38       2.00000          -0.560681          -15.25691
     39       2.00000          -0.558827          -15.20646
     40       2.00000          -0.555299          -15.11045
     41       2.00000          -0.550060          -14.96790
     42       2.00000          -0.544486          -14.81621
     43       2.00000          -0.532892          -14.50074
     44       2.00000          -0.527093          -14.34294
     45       2.00000          -0.520234          -14.15628
     46       2.00000          -0.515293          -14.02184
     47       2.00000          -0.512345          -13.94161
     48       2.00000          -0.503028          -13.68809
     49       2.00000          -0.496825          -13.51930
     50       2.00000          -0.486246          -13.23143
     51       2.00000          -0.478955          -13.03303
     52       2.00000          -0.475641          -12.94286
     53       2.00000          -0.411375          -11.19408
     54       2.00000          -0.403973          -10.99266
     55       2.00000          -0.400541          -10.89928
     56       2.00000          -0.387783          -10.55212
     57       2.00000          -0.382193          -10.39999
     58       2.00000          -0.380173          -10.34503
     59       0.00000          -0.171577           -4.66884
     60       0.00000          -0.163174           -4.44019
     61       0.00000          -0.158750           -4.31980
     62       0.00000          -0.081883           -2.22815
     63       0.00000          -0.067891           -1.84741
     64       0.00000          -0.062249           -1.69387
     65       0.00000          -0.055716           -1.51611
     66       0.00000          -0.045271           -1.23187
     67       0.00000          -0.036159           -0.98394
     68       0.00000          -0.028966           -0.78822
     69       0.00000          -0.024011           -0.65337
     70       0.00000          -0.022641           -0.61609
     71       0.00000          -0.021777           -0.59257
     72       0.00000          -0.019513           -0.53098
     73       0.00000          -0.012464           -0.33918
     74       0.00000          -0.008443           -0.22976
     75       0.00000          -0.004629           -0.12596
     76       0.00000          -0.000662           -0.01800
     77       0.00000           0.009269            0.25223
     78       0.00000           0.012029            0.32734
     79       0.00000           0.013808            0.37572
     80       0.00000           0.018513            0.50376
     81       0.00000           0.023500            0.63946
     82       0.00000           0.029173            0.79382
     83       0.00000           0.034222            0.93123
     84       0.00000           0.040713            1.10786
     85       0.00000           0.043649            1.18775
     86       0.00000           0.049147            1.33735
     87       0.00000           0.058053            1.57971
     88       0.00000           0.063820            1.73662
     89       0.00000           0.068145            1.85431
     90       0.00000           0.069902            1.90213
     91       0.00000           0.073705            2.00563
     92       0.00000           0.078417            2.13385
     93       0.00000           0.082060            2.23298
     94       0.00000           0.087792            2.38893
     95       0.00000           0.094654            2.57566
     96       0.00000           0.109570            2.98155
     97       0.00000           0.110642            3.01073
     98       0.00000           0.115262            3.13644
     99       0.00000           0.121158            3.29689
    100       0.00000           0.125453            3.41375
    101       0.00000           0.127974            3.48235
    102       0.00000           0.131298            3.57279
    103       0.00000           0.138241            3.76173
    104       0.00000           0.139241            3.78894
    105       0.00000           0.149438            4.06642
    106       0.00000           0.158598            4.31568
    107       0.00000           0.162643            4.42573
    108       0.00000           0.164750            4.48307
    109       0.00000           0.170250            4.63275
    110       0.00000           0.175726            4.78176
    111       0.00000           0.178973            4.87010
    112       0.00000           0.184361            5.01671
    113       0.00000           0.190930            5.19546
    114       0.00000           0.196747            5.35377
    115       0.00000           0.197937            5.38614
    116       0.00000           0.207009            5.63301
    117       0.00000           0.207881            5.65672
    118       0.00000           0.212247            5.77553
    119       0.00000           0.216370            5.88771
    120       0.00000           0.221171            6.01836
    121       0.00000           0.223341            6.07741
    122       0.00000           0.232538            6.32768
    123       0.00000           0.239092            6.50603
    124       0.00000           0.240698            6.54972
    125       0.00000           0.250560            6.81810
    126       0.00000           0.257213            6.99911
    127       0.00000           0.262127            7.13284
    128       0.00000           0.270843            7.37000
    129       0.00000           0.276861            7.53378

  Highest occupied state (VBM) at    -10.34502898 eV
  | Occupation number:      2.00000000

  Lowest unoccupied state (CBM) at    -4.66884379 eV
  | Occupation number:      0.00000000

  Overall HOMO-LUMO gap:      5.67618519 eV.
  Calculating total energy contributions from superposition of free atom densities.

  Total energy components:
  | Sum of eigenvalues            :        -437.80760344 Ha      -11913.35103426 eV
  | XC energy correction          :         -98.82524379 Ha       -2689.17170714 eV
  | XC potential correction       :         127.03021918 Ha        3456.66813722 eV
  | Free-atom electrostatic energy:        -333.66749723 Ha       -9079.55456225 eV
  | Hartree energy correction     :           0.00000000 Ha           0.00000000 eV
  | MBD@rsSCS energy              :           0.00000000 Ha           0.00000000 eV
  | Entropy correction            :          -0.00000000 Ha          -0.00000000 eV
  | ---------------------------
  | Total energy                  :        -743.27012528 Ha      -20225.40916642 eV
  | Total energy, T -> 0          :        -743.27012528 Ha      -20225.40916642 eV  <-- do not rely on this value for anything but (periodic) metals
  | Electronic free energy        :        -743.27012528 Ha      -20225.40916642 eV

  Derived energy quantities:
  | Kinetic energy                :         735.16868941 Ha       20004.95787999 eV
  | Electrostatic energy          :       -1379.61357090 Ha      -37541.19533928 eV
  | Energy correction for multipole
  | error in Hartree potential    :           0.00000000 Ha           0.00000000 eV
  | Sum of eigenvalues per atom                           :        -372.29221982 eV
  | Total energy (T->0) per atom                          :        -632.04403645 eV  <-- do not rely on this value for anything but (periodic) metals
  | Electronic free energy per atom                       :        -632.04403645 eV
  Initialize hartree_potential_storage
  Max. number of atoms included in rho_multipole:           32

  End scf initialization - timings             :  max(cpu_time)    wall_clock(cpu1)
  | Time for scf. initialization               :        2.076 s           2.075 s
  | Boundary condition initialization          :        0.000 s           0.000 s
  | Integration                                :        1.324 s           1.324 s
  | Solution of K.-S. eqns.                    :        0.076 s           0.075 s
  | Grid partitioning                          :        0.296 s           0.291 s
  | Preloading free-atom quantities on grid    :        0.028 s           0.027 s
  | Free-atom superposition energy             :        0.044 s           0.041 s
  | Total energy evaluation                    :        0.004 s           0.001 s
------------------------------------------------------------

------------------------------------------------------------
          Begin self-consistency iteration #    1

  Date     :  20170309, Time     :  190743.308
------------------------------------------------------------
  Evaluating new KS density.
  Integration grid: deviation in total charge (<rho> - N_e) =   8.526513E-14
  Pulay mixing of updated and previous charge densities.

  Evaluating partitioned Hartree potential by multipole expansion.
  | Analytical far-field extrapolation by fixed multipoles:
  | Hartree multipole sum: apparent total charge =   0.126144E-04
  Summing up the Hartree potential.
  Time summed over all CPUs for potential: real work        9.633 s, elapsed       10.021 s
  | RMS charge density error from multipole expansion :   0.108476E-01

  Integrating Hamiltonian matrix: batch-based integration.
  Time summed over all CPUs for integration: real work       25.359 s, elapsed       26.172 s

  Updating Kohn-Sham eigenvalues, eigenvectors, occupation numbers, and Fermi level.
  Solving generalized eigenproblem
  Solving real symmetric generalised eigenvalue problem by standard ScaLAPACK.
  Using Cholesky factor for transformation
  Using 2-stage real ELPA solver
  K-Point:    1, Trafo times: 1-stage=     0.021 s, 2-stage=     0.019 s ==> Using 2-stage solver
  Determining occupation numbers for Kohn-Sham eigenstates.
  | Chemical potential (Fermi level) in eV                 : -.47154526E+01
  | Error in electron count due to remaining E_F inaccuracy: 0.00000000E+00
  | Maximum occupation number of highest empty state:  0.00E+00

  Writing Kohn-Sham eigenvalues.

  State    Occupation    Eigenvalue [Ha]    Eigenvalue [eV]
      1       2.00000         -18.630648         -506.96573
      2       2.00000         -18.626713         -506.85866
      3       2.00000         -18.600072         -506.13370
      4       2.00000         -14.004843         -381.09117
      5       2.00000         -14.002132         -381.01740
      6       2.00000         -13.979375         -380.39815
      7       2.00000         -10.068785         -273.98558
      8       2.00000         -10.067597         -273.95326
      9       2.00000         -10.041024         -273.23016
     10       2.00000          -9.977960         -271.51410
     11       2.00000          -9.965760         -271.18212
     12       2.00000          -9.908854         -269.63363
     13       2.00000          -9.836876         -267.67501
     14       2.00000          -9.826793         -267.40064
     15       2.00000          -9.826453         -267.39139
     16       2.00000          -0.977197          -26.59088
     17       2.00000          -0.969285          -26.37558
     18       2.00000          -0.945244          -25.72140
     19       2.00000          -0.877865          -23.88792
     20       2.00000          -0.867399          -23.60312
     21       2.00000          -0.852445          -23.19620
     22       2.00000          -0.736168          -20.03216
     23       2.00000          -0.721576          -19.63507
     24       2.00000          -0.687893          -18.71853
     25       2.00000          -0.686607          -18.68353
     26       2.00000          -0.636181          -17.31136
     27       2.00000          -0.631010          -17.17067
     28       2.00000          -0.582374          -15.84719
     29       2.00000          -0.557501          -15.17038
     30       2.00000          -0.531590          -14.46531
     31       2.00000          -0.504540          -13.72924
     32       2.00000          -0.489723          -13.32604
     33       2.00000          -0.482822          -13.13826
     34       2.00000          -0.477254          -12.98673
     35       2.00000          -0.456562          -12.42369
     36       2.00000          -0.442476          -12.04039
     37       2.00000          -0.428516          -11.66053
     38       2.00000          -0.420482          -11.44190
     39       2.00000          -0.409974          -11.15596
     40       2.00000          -0.404009          -10.99365
     41       2.00000          -0.394453          -10.73360
     42       2.00000          -0.385483          -10.48952
     43       2.00000          -0.384574          -10.46479
     44       2.00000          -0.375585          -10.22019
     45       2.00000          -0.371144          -10.09935
     46       2.00000          -0.368607          -10.03031
     47       2.00000          -0.366822           -9.98173
     48       2.00000          -0.361284           -9.83103
     49       2.00000          -0.348902           -9.49412
     50       2.00000          -0.345335           -9.39703
     51       2.00000          -0.334727           -9.10839
     52       2.00000          -0.324295           -8.82451
     53       2.00000          -0.245901           -6.69132
     54       2.00000          -0.243108           -6.61531
     55       2.00000          -0.234004           -6.36757
     56       2.00000          -0.223302           -6.07637
     57       2.00000          -0.211161           -5.74599
     58       2.00000          -0.197495           -5.37411
     59       0.00000          -0.067880           -1.84711
     60       0.00000          -0.060543           -1.64745
     61       0.00000          -0.044524           -1.21155
     62       0.00000          -0.035780           -0.97363
     63       0.00000          -0.027928           -0.75997
     64       0.00000          -0.013543           -0.36854
     65       0.00000          -0.006018           -0.16375
     66       0.00000           0.000955            0.02599
     67       0.00000           0.009299            0.25305
     68       0.00000           0.016667            0.45353
     69       0.00000           0.025911            0.70507
     70       0.00000           0.027902            0.75926
     71       0.00000           0.038882            1.05804
     72       0.00000           0.051198            1.39318
     73       0.00000           0.052272            1.42238
     74       0.00000           0.053760            1.46288
     75       0.00000           0.057286            1.55882
     76       0.00000           0.064929            1.76680
     77       0.00000           0.070378            1.91508
     78       0.00000           0.074135            2.01731
     79       0.00000           0.078561            2.13775
     80       0.00000           0.087853            2.39061
     81       0.00000           0.092090            2.50590
     82       0.00000           0.100339            2.73036
     83       0.00000           0.103181            2.80771
     84       0.00000           0.109254            2.97296
     85       0.00000           0.115916            3.15424
     86       0.00000           0.116651            3.17423
     87       0.00000           0.119347            3.24760
     88       0.00000           0.127362            3.46570
     89       0.00000           0.134719            3.66588
     90       0.00000           0.135410            3.68470
     91       0.00000           0.141251            3.84363
     92       0.00000           0.144810            3.94048
     93       0.00000           0.151419            4.12032
     94       0.00000           0.157981            4.29888
     95       0.00000           0.164651            4.48039
     96       0.00000           0.168159            4.57584
     97       0.00000           0.169408            4.60982
     98       0.00000           0.176980            4.81587
     99       0.00000           0.181101            4.92801
    100       0.00000           0.187855            5.11178
    101       0.00000           0.192734            5.24456
    102       0.00000           0.197250            5.36745
    103       0.00000           0.201459            5.48198
    104       0.00000           0.204649            5.56878
    105       0.00000           0.215010            5.85073
    106       0.00000           0.218464            5.94472
    107       0.00000           0.223643            6.08565
    108       0.00000           0.226398            6.16060
    109       0.00000           0.230163            6.26306
    110       0.00000           0.237147            6.45310
    111       0.00000           0.239943            6.52917
    112       0.00000           0.248879            6.77234
    113       0.00000           0.249590            6.79170
    114       0.00000           0.259691            7.06655
    115       0.00000           0.264083            7.18607
    116       0.00000           0.267128            7.26893
    117       0.00000           0.274513            7.46987
    118       0.00000           0.277875            7.56136
    119       0.00000           0.282015            7.67403
    120       0.00000           0.287983            7.83643
    121       0.00000           0.290915            7.91620
    122       0.00000           0.301142            8.19449
    123       0.00000           0.305462            8.31205
    124       0.00000           0.312908            8.51467
    125       0.00000           0.318279            8.66081
    126       0.00000           0.324379            8.82681
    127       0.00000           0.331507            9.02076
    128       0.00000           0.338751            9.21787
    129       0.00000           0.347846            9.46537

  Highest occupied state (VBM) at     -5.37410682 eV
  | Occupation number:      2.00000000

  Lowest unoccupied state (CBM) at    -1.84710701 eV
  | Occupation number:      0.00000000

  Overall HOMO-LUMO gap:      3.52699981 eV.

  Total energy components:
  | Sum of eigenvalues            :        -417.71352368 Ha      -11366.56330360 eV
  | XC energy correction          :        -100.74319868 Ha       -2741.36191505 eV
  | XC potential correction       :         129.51649155 Ha        3524.32305061 eV
  | Free-atom electrostatic energy:        -333.66749723 Ha       -9079.55456225 eV
  | Hartree energy correction     :         -20.09522802 Ha        -546.81897635 eV
  | MBD@rsSCS energy              :           0.00000000 Ha           0.00000000 eV
  | Entropy correction            :          -0.00000000 Ha          -0.00000000 eV
  | ---------------------------
  | Total energy                  :        -742.70295606 Ha      -20209.97570663 eV
  | Total energy, T -> 0          :        -742.70295606 Ha      -20209.97570663 eV  <-- do not rely on this value for anything but (periodic) metals
  | Electronic free energy        :        -742.70295606 Ha      -20209.97570663 eV

  Derived energy quantities:
  | Kinetic energy                :         743.97383954 Ha       20244.55820580 eV
  | Electrostatic energy          :       -1385.93359692 Ha      -37713.17199738 eV
  | Energy correction for multipole
  | error in Hartree potential    :          -0.04291547 Ha          -1.16778946 eV
  | Sum of eigenvalues per atom                           :        -355.20510324 eV
  | Total energy (T->0) per atom                          :        -631.56174083 eV  <-- do not rely on this value for anything but (periodic) metals
  | Electronic free energy per atom                       :        -631.56174083 eV

  Self-consistency convergence accuracy:
  | Change of charge density      :  0.9028E+00
  | Change of sum of eigenvalues  :  0.5468E+03 eV
  | Change of total energy        :  0.1543E+02 eV

  End self-consistency iteration #     1       :  max(cpu_time)    wall_clock(cpu1)
  | Time for this iteration                    :        1.724 s           1.726 s
[...]
   Multipole                     :  0.125277E+00 -0.524634E+00 -0.123204E+00
   Pulay + GGA                   :  0.126884E+01 -0.117547E+02 -0.537901E+01
   MBD@rsSCS                     :  0.208651E-01 -0.982331E-02 -0.190778E-01
   ----------------------------------------------------------------
   Total forces(  20)            :  0.313857E-01 -0.135800E-03 -0.164307E-01
  atom #   21
   Hellmann-Feynman              : -0.904809E-02  0.424995E-01 -0.442995E-01
   Ionic forces                  :  0.000000E+00  0.000000E+00  0.000000E+00
   Multipole                     : -0.499851E-03 -0.306606E-05  0.391426E-01
   Pulay + GGA                   :  0.234310E-01 -0.557799E-01  0.966510E-03
   MBD@rsSCS                     : -0.580450E-02  0.449755E-02  0.583140E-02
   ----------------------------------------------------------------
   Total forces(  21)            :  0.807853E-02 -0.878593E-02  0.164093E-02
  atom #   22
   Hellmann-Feynman              :  0.190283E-01  0.605951E-01 -0.102097E-01
   Ionic forces                  :  0.000000E+00  0.000000E+00  0.000000E+00
   Multipole                     : -0.272259E-02  0.245292E-02  0.776291E-02
   Pulay + GGA                   : -0.191581E-01 -0.665290E-01  0.711063E-02
   MBD@rsSCS                     : -0.546566E-02  0.881149E-03 -0.514581E-02
   ----------------------------------------------------------------
   Total forces(  22)            : -0.831802E-02 -0.259982E-02 -0.482001E-03
  atom #   23
   Hellmann-Feynman              :  0.720149E+00  0.715214E+00  0.613304E+00
   Ionic forces                  :  0.000000E+00  0.000000E+00  0.000000E+00
   Multipole                     : -0.164248E+00 -0.206247E+00 -0.194904E+00
   Pulay + GGA                   : -0.556789E+00 -0.516976E+00 -0.398399E+00
   MBD@rsSCS                     : -0.832559E-02  0.148138E-01 -0.285764E-01
   ----------------------------------------------------------------
   Total forces(  23)            : -0.921262E-02  0.680558E-02 -0.857514E-02
  atom #   24
   Hellmann-Feynman              : -0.444788E-01 -0.988071E-03 -0.454607E-02
   Ionic forces                  :  0.000000E+00  0.000000E+00  0.000000E+00
   Multipole                     : -0.217298E-03  0.339318E-01  0.152450E-01
   Pulay + GGA                   :  0.449446E-01 -0.430572E-01 -0.320488E-02
   MBD@rsSCS                     : -0.346166E-02 -0.117418E-02 -0.109636E-01
   ----------------------------------------------------------------
   Total forces(  24)            : -0.321316E-02 -0.112876E-01 -0.346955E-02
  atom #   25
   Hellmann-Feynman              : -0.242692E-01  0.495538E-02 -0.482749E-01
   Ionic forces                  :  0.000000E+00  0.000000E+00  0.000000E+00
   Multipole                     :  0.308298E-01  0.151235E-01 -0.115530E-01
   Pulay + GGA                   : -0.152109E-01 -0.231866E-01  0.593522E-01
   MBD@rsSCS                     : -0.811436E-02 -0.936047E-03 -0.658320E-02
   ----------------------------------------------------------------
   Total forces(  25)            : -0.167647E-01 -0.404383E-02 -0.705891E-02
  atom #   26
   Hellmann-Feynman              : -0.251561E-01 -0.132472E-01  0.166996E-01
   Ionic forces                  :  0.000000E+00  0.000000E+00  0.000000E+00
   Multipole                     :  0.427025E-02 -0.246399E-01  0.989440E-02
   Pulay + GGA                   :  0.996058E-02  0.444825E-01 -0.252703E-01
   MBD@rsSCS                     : -0.774798E-02  0.235279E-02 -0.193608E-01
   ----------------------------------------------------------------
   Total forces(  26)            : -0.186732E-01  0.894818E-02 -0.180371E-01
  atom #   27
   Hellmann-Feynman              :  0.627622E-01  0.105147E+01  0.104480E+01
   Ionic forces                  :  0.000000E+00  0.000000E+00  0.000000E+00
   Multipole                     :  0.374585E-01  0.154414E+00  0.117206E+00
   Pulay + GGA                   : -0.107076E+00 -0.121767E+01 -0.115960E+01
   MBD@rsSCS                     :  0.286564E-01  0.887584E-02 -0.720681E-02
   ----------------------------------------------------------------
   Total forces(  27)            :  0.218008E-01 -0.291506E-02 -0.479646E-02
  atom #   28
   Hellmann-Feynman              : -0.165755E+00 -0.204062E+01 -0.102084E+01
   Ionic forces                  :  0.000000E+00  0.000000E+00  0.000000E+00
   Multipole                     : -0.457788E-01  0.143639E+00  0.728292E-01
   Pulay + GGA                   :  0.215041E+00  0.188545E+01  0.958624E+00
   MBD@rsSCS                     :  0.173095E-01  0.142133E-01  0.330345E-03
   ----------------------------------------------------------------
   Total forces(  28)            :  0.208165E-01  0.268730E-02  0.109479E-01
  atom #   29
   Hellmann-Feynman              :  0.563488E-01  0.138474E-01  0.243040E-01
   Ionic forces                  :  0.000000E+00  0.000000E+00  0.000000E+00
   Multipole                     : -0.716342E-02 -0.366079E-01 -0.160842E-01
   Pulay + GGA                   : -0.611885E-01  0.234093E-01 -0.488409E-02
   MBD@rsSCS                     :  0.701791E-02 -0.156627E-02 -0.332012E-02
   ----------------------------------------------------------------
   Total forces(  29)            : -0.498523E-02 -0.917463E-03  0.155638E-04
  atom #   30
   Hellmann-Feynman              :  0.312087E-01  0.393057E-01  0.302233E-01
   Ionic forces                  :  0.000000E+00  0.000000E+00  0.000000E+00
   Multipole                     :  0.260195E-01 -0.228122E-01 -0.291024E-01
   Pulay + GGA                   : -0.627493E-01 -0.179576E-01 -0.102818E-02
   MBD@rsSCS                     :  0.356799E-02  0.549274E-02  0.201066E-02
   ----------------------------------------------------------------
   Total forces(  30)            : -0.195319E-02  0.402855E-02  0.210336E-02
  atom #   31
   Hellmann-Feynman              : -0.335045E-01  0.503598E-01  0.180569E-02
   Ionic forces                  :  0.000000E+00  0.000000E+00  0.000000E+00
   Multipole                     : -0.909010E-02  0.298391E-02 -0.319698E-01
   Pulay + GGA                   :  0.426803E-01 -0.468705E-01  0.344716E-01
   MBD@rsSCS                     :  0.105040E-01  0.104231E-01  0.174097E-02
   ----------------------------------------------------------------
   Total forces(  31)            :  0.105897E-01  0.168964E-01  0.604846E-02
  atom #   32
   Hellmann-Feynman              : -0.101003E-01  0.236854E-01  0.380416E-01
   Ionic forces                  :  0.000000E+00  0.000000E+00  0.000000E+00
   Multipole                     : -0.531218E-02 -0.109474E-01  0.235381E-01
   Pulay + GGA                   :  0.103810E-01 -0.154188E-01 -0.570739E-01
   MBD@rsSCS                     :  0.152627E-01  0.125059E-01 -0.896723E-03
   ----------------------------------------------------------------
   Total forces(  32)            :  0.102312E-01  0.982523E-02  0.360903E-02

  Removing unitary transformations (pure translations, rotations) from forces on atoms.
  Atomic forces before filtering:
  | Net force on center of mass :  -0.169233E-03 -0.525302E-03 -0.147932E-03 eV/A
  | Net torque on center of mass:   0.287780E-02  0.101512E-02 -0.137703E-02 eV
  Atomic forces after filtering:
  | Net force on center of mass :  -0.696899E-17 -0.139380E-17 -0.418139E-17 eV/A
  | Net torque on center of mass:   0.346656E-16  0.103259E-16 -0.118011E-16 eV

  Energy and forces in a compact form:
  | Total energy uncorrected      :         -0.202087025475286E+05 eV
  | Total energy corrected        :         -0.202087025475286E+05 eV  <-- do not rely on this value for anything but (periodic) metals
  | Electronic free energy        :         -0.202087025475286E+05 eV
  Total atomic forces (unitary forces cleaned) [eV/Ang]:
  |   1         -0.285094858930270E-01         -0.485165815448537E-02         -0.140402063393042E-01
  |   2         -0.167681999305954E-01         -0.803951245501196E-02         -0.470221185570524E-02
  |   3          0.727112356423216E-02         -0.499449548594216E-02          0.676641293389833E-03
  |   4          0.664983699578253E-04          0.380059472042997E-02          0.304887198149189E-02
  |   5         -0.361709457455391E-01         -0.106043058598108E-01          0.762693096781276E-02
  |   6         -0.121872215504145E-01         -0.207987838221957E-02          0.198069168515860E-03
  |   7          0.866654585223057E-02         -0.405815084524435E-01         -0.369482736457258E-02
  |   8          0.226124288459311E-01         -0.636819501005802E-02          0.169990338424985E-01
  |   9          0.217071164530821E-01          0.319886650241388E-01          0.347496948369837E-02
  |  10         -0.124076421603840E-02          0.279456703386211E-01         -0.113667324237656E-01
  |  11         -0.928055800718767E-02         -0.114676281481938E-01          0.132843794649712E-01
  |  12         -0.591188147889370E-02         -0.116494959177841E-01          0.153772861252300E-01
  |  13          0.236366804142441E-01         -0.134475918524144E-02          0.777219402076014E-02
  |  14         -0.183079235276353E-02          0.186399950240787E-03          0.880839315576024E-02
  |  15          0.591558020374996E-02         -0.137647282539365E-01          0.124511310487151E-01
  |  16          0.116579538620891E-01         -0.147018083735234E-01          0.212419819005370E-01
  |  17         -0.369607130740264E-01          0.265606169131845E-01          0.125290191129745E-01
  |  18         -0.191334618922574E-01          0.815020147162094E-02         -0.274598776118919E-01
  |  19          0.266372335800590E-01          0.128740980447791E-01         -0.279996744975758E-01
  |  20          0.313595158370996E-01         -0.961014532293798E-04         -0.164609718551622E-01
  |  21          0.810816550514422E-02         -0.876274052633395E-02          0.170078788750452E-02
  |  22         -0.831335669029703E-02         -0.254744808404492E-02         -0.437509047616455E-03
  |  23         -0.923178480221184E-02          0.688026677236747E-02         -0.855163762921918E-02
  |  24         -0.322608923070888E-02         -0.112038387402172E-01         -0.342347282878066E-02
  |  25         -0.167963559648152E-01         -0.395146212810367E-02         -0.703959459463255E-02
  |  26         -0.186998061439820E-01          0.901865022073899E-02         -0.180328731690430E-01
  |  27          0.218053675517808E-01         -0.290398386689527E-02         -0.479937853203281E-02
  |  28          0.208422180523206E-01          0.268613241160562E-02          0.109721972980567E-01
  |  29         -0.498653974936289E-02         -0.914689563228217E-03         -0.827651256202328E-05
  |  30         -0.192334249905706E-02          0.401594662323811E-02          0.212272967028112E-02
  |  31          0.106155930311668E-01          0.169137609194942E-01          0.609436853599680E-02
  |  32          0.102692780980900E-01          0.980723463024364E-02          0.363825930366951E-02

  ------------------------------------ 
  Start decomposition of the XC Energy 
  ------------------------------------ 
  Hartree-Fock part   :          0.000000000 Ha              0.000000000 eV
  ------------------------------------ 
  X Energy            :        -96.978261841 Ha          -2638.912771096 eV
  C Energy GGA        :         -3.871909697 Ha           -105.360023517 eV
  Total XC Energy     :       -100.850171538 Ha          -2744.272794612 eV
  LDA X and C from self-consistent density 
  X Energy LDA        :        -88.000614308 Ha          -2394.618552174 eV
  C Energy LDA        :         -7.532705477 Ha           -204.975345056 eV
  ------------------------------------ 
  End decomposition of the XC Energy 
  ------------------------------------ 
   
  ESP charge fitting starts.
  | Calculation :  00000001  of  00000001
  | Full density
  Computing multipole expansion for total density.
  Generating points for esp charges.
  Partitioning the integration grid into batches with parallel hashing+maxmin method.
  | Number of batches:     3928
  | Maximal batch size:     194
  | Minimal batch size:      52
  | Average batch size:     124.314
  | Standard deviation of batch sizes:      16.585

  Integration load balanced across    32 MPI tasks.
  Work distribution over tasks is as follows:
  Initializing partition tables, free-atom densities, potentials, etc. across the integration grid (initialize_grid_storage).
  | Original list of interatomic distances with          32 x         32 entries is created.
  | Net number of integration points:   488307
  | of which are non-zero points    :   488307
  Summing up potential from multipole expanded  density.
  Summing up the Hartree potential.
  Time summed over all CPUs for potential: real work        6.357 s, elapsed        6.627 s
  Fitting esp charges to potential.
  |
  | ESP charges fitted to the electrostatic potential :
  |
  | Atom         1: C, ESP charge:      0.51904704
  |
  | Atom         2: C, ESP charge:     -0.67123053
  |
  | Atom         3: O, ESP charge:      0.55778126
  |
  | Atom         4: H, ESP charge:     -0.15158560
  |
  | Atom         5: H, ESP charge:     -0.14506302
  |
  | Atom         6: H, ESP charge:     -0.14420489
  |
  | Atom         7: N, ESP charge:      0.74623792
  |
  | Atom         8: C, ESP charge:     -0.88036938
  |
  | Atom         9: C, ESP charge:     -0.34241973
  |
  | Atom        10: O, ESP charge:      0.53584950
  |
  | Atom        11: H, ESP charge:     -0.32167062
  |
  | Atom        12: H, ESP charge:      0.16761741
  |
  | Atom        13: C, ESP charge:      0.30436939
  |
  | Atom        14: H, ESP charge:     -0.04944033
  |
  | Atom        15: H, ESP charge:     -0.05028608
  |
  | Atom        16: H, ESP charge:     -0.06166360
  |
  | Atom        17: N, ESP charge:      0.52815181
  |
  | Atom        18: C, ESP charge:     -0.56949936
  |
  | Atom        19: C, ESP charge:     -0.20318382
  |
  | Atom        20: O, ESP charge:      0.46942984
  |
  | Atom        21: H, ESP charge:     -0.29313526
  |
  | Atom        22: H, ESP charge:     -0.01001731
  |
  | Atom        23: C, ESP charge:      0.78097782
  |
  | Atom        24: H, ESP charge:     -0.16882324
  |
  | Atom        25: H, ESP charge:     -0.20242571
  |
  | Atom        26: H, ESP charge:     -0.25316315
  |
  | Atom        27: N, ESP charge:      0.27626051
  |
  | Atom        28: C, ESP charge:      0.34816732
  |
  | Atom        29: H, ESP charge:     -0.31063237
  |
  | Atom        30: H, ESP charge:     -0.16196579
  |
  | Atom        31: H, ESP charge:     -0.12377313
  |
  | Atom        32: H, ESP charge:     -0.11933691

  RRMS:       0.00253295

  Done.

------------------------------------------------------------------------------
  Final output of selected total energy values:

  The following output summarizes some interesting total energy values
  at the end of a run (AFTER all relaxation, molecular dynamics, etc.).

  | Total energy of the DFT / Hartree-Fock s.c.f. calculation      :         -20208.702547529 eV
  | Final zero-broadening corrected energy (caution - metals only) :         -20208.702547529 eV
  | For reference only, the value of 1 Hartree used in FHI-aims is :             27.211384500 eV

  Before relying on these values, please be sure to understand exactly which
  total energy value is referred to by a given number. Different objects may
  all carry the same name 'total energy'. Definitions:

  Total energy of the DFT / Hartree-Fock s.c.f. calculation:
  | Note that this energy does not include ANY quantities calculated after the
  | s.c.f. cycle, in particular not ANY RPA, MP2, etc. many-body perturbation terms.

  Final zero-broadening corrected energy:
  | For metallic systems only, a broadening of the occupation numbers at the Fermi
  | level can be extrapolated back to zero broadening by an electron-gas inspired
  | formula. For all systems that are not real metals, this value can be
  | meaningless and should be avoided.

------------------------------------------------------------------------------
  Methods described in the following list of references were used in this FHI-aims run.
  If you publish the results, please make sure to cite these reference if they apply.
  FHI-aims is an academic code, and for our developers (often, Ph.D. students
  and postdocs), scientific credit in the community is essential.
  Thank you for helping us!

  For any use of FHI-aims, please cite:

    Volker Blum, Ralf Gehrke, Felix Hanke, Paula Havu, Ville Havu,
    Xinguo Ren, Karsten Reuter, and Matthias Scheffler
    'Ab initio molecular simulations with numeric atom-centered orbitals'
    Computer Physics Communications 180, 2175-2196 (2009)
    http://dx.doi.org/10.1016/j.cpc.2009.06.022


  The scalable eigensolver library ELPA was used in your run.
  ELPA is essential especially for large systems on hundreds or thousands of CPUs.
  For ELPA, please cite:

    Andreas Marek, Volker Blum, Rainer Johanni, Ville Havu, Bruno Lang,
    Thomas Auckenthaler, Alexander Heinecke, Hans-Joachim Bungartz, and Hermann Lederer,
    'The ELPA Library - Scalable Parallel Eigenvalue Solutions
    for Electronic Structure Theory and Computational Science'
    The Journal of Physics: Condensed Matter 26, 213201 (2014).
    http://dx.doi.org/10.1088/0953-8984/26/21/213201


  For ELPA's efficient two-stage tridiagonalization used in your run, please cite:

    T. Auckenthaler, V. Blum, H.-J. Bungartz, T. Huckle, R. Johanni, L. Kraemer,
    B. Lang, H. Lederer, and P. R. Willems,
    'Parallel solution of partial symmetric eigenvalue problems'
    'from  electronic structure calculations'
    Parallel Computing 37, 783-794 (2011).
    http://dx.doi.org/10.1016/j.parco.2011.05.002


  For the real-space grid partitioning and parallelization used in this calculation, please cite:

    Ville Havu, Volker Blum, Paula Havu, and Matthias Scheffler,
    'Efficient O(N) integration for all-electron electronic structure calculation'
    'using numerically tabulated basis functions'
    Journal of Computational Physics 228, 8367-8379 (2009).
    http://dx.doi.org/10.1016/j.jcp.2009.08.008

  Of course, there are many other important community references, e.g., those cited in the
  above references. Our list is limited to references that describe implementations in the
  FHI-aims code. The reason is purely practical (length of this list) - please credit others as well.

------------------------------------------------------------
          Leaving FHI-aims.
          Date     :  20170309, Time     :  190816.736

          Computational steps:
          | Number of self-consistency cycles          :           14

          Detailed time accounting                     :  max(cpu_time)    wall_clock(cpu1)
          | Total time                                 :       36.334 s          36.540 s
          | Preparation time                           :        0.240 s           0.237 s
          | Grid partitioning                          :        0.296 s           0.291 s
          | Preloading free-atom quantities on grid    :        0.028 s           0.027 s
          | Free-atom superposition energy             :        0.044 s           0.041 s
          | Total time for integrations                :       12.953 s          12.943 s
          | Total time for solution of K.-S. equations :        0.528 s           0.501 s
          | Total time for density & force components  :       10.849 s          10.821 s
          | Total time for mixing                      :        0.124 s           0.109 s
          | Total time for Hartree multipole update    :        0.072 s           0.061 s
          | Total time for Hartree multipole sum       :        6.320 s           6.299 s
          | Total time for total energy evaluation     :        0.024 s           0.026 s

          Have a nice day.
------------------------------------------------------------
