  MPI-parallelism will be employed.
------------------------------------------------------------
          Invoking FHI-aims ...
          Version 150427
          Git rev.: 9dd23e0 BL: Update Version stamp
          Compiled on 2015/11/03 at 22:05:20 on host eos03.

          When using FHI-aims, please cite the following reference:

          Volker Blum, Ralf Gehrke, Felix Hanke, Paula Havu,
          Ville Havu, Xinguo Ren, Karsten Reuter, and Matthias Scheffler,
          'Ab Initio Molecular Simulations with Numeric Atom-Centered Orbitals: FHI-aims',
          Computer Physics Communications 180, 2175-2196 (2009)

          For any questions about FHI-aims, please visit the aimsclub website
          with its forums and wiki. Contributions to both the forums and the
          wiki are warmly encouraged - they are for you, and everyone is welcome there.

------------------------------------------------------------

  Date     :  20170309, Time     :  160656.110
  Time zero on CPU 1             :   0.320019000000000E+00  s.
  Internal wall clock time zero  :           258307616.110  s.

  Using       32 parallel tasks.
  Task        0 on host eos144 reporting.
  Task        1 on host eos144 reporting.
  Task        2 on host eos144 reporting.
  Task        3 on host eos144 reporting.
  Task        4 on host eos144 reporting.
  Task        5 on host eos144 reporting.
  Task        6 on host eos144 reporting.
  Task        7 on host eos144 reporting.
  Task        8 on host eos144 reporting.
  Task        9 on host eos144 reporting.
  Task       10 on host eos144 reporting.
  Task       11 on host eos144 reporting.
  Task       12 on host eos144 reporting.
  Task       13 on host eos144 reporting.
  Task       14 on host eos144 reporting.
  Task       15 on host eos144 reporting.
  Task       16 on host eos144 reporting.
  Task       17 on host eos144 reporting.
  Task       18 on host eos144 reporting.
  Task       19 on host eos144 reporting.
  Task       20 on host eos144 reporting.
  Task       21 on host eos144 reporting.
  Task       22 on host eos144 reporting.
  Task       23 on host eos144 reporting.
  Task       24 on host eos144 reporting.
  Task       25 on host eos144 reporting.
  Task       26 on host eos144 reporting.
  Task       27 on host eos144 reporting.
  Task       28 on host eos144 reporting.
  Task       29 on host eos144 reporting.
  Task       30 on host eos144 reporting.
  Task       31 on host eos144 reporting.

  Performing system and environment tests:
  | Environment variable OMP_NUM_THREADS correctly set to 1.
  | Stacksize not measured: no C compiler
  | Checking for scalapack...
  | Testing pdtran()...
  | All pdtran() tests passed.

  Obtaining array dimensions for all initial allocations:
  
  -----------------------------------------------------------------------
  Parsing control.in (first pass over file, find array dimensions only).
  The contents of control.in will be repeated verbatim below
  unless switched off by setting 'verbatim_writeout .false.' .
  in the first line of control.in .
  -----------------------------------------------------------------------
  
  #########################################################################################
  #
  # Input for System
  #
  #########################################################################################
  #
  #
  #  Physical model
  #
    xc                 pbe
    many_body_dispersion
    spin               none
    charge             0.
  #
  #  SCF convergence
  #
    occupation_type    gaussian 0.05
    mixer              pulay
      n_max_pulay        10
      charge_mix_param   0.5
    sc_accuracy_rho    1E-4
    sc_accuracy_eev    1E-2
    sc_accuracy_etot   1E-5
    sc_accuracy_forces 1E-4
    sc_iter_limit      1000
  #
  #  ESP charge
  #
    output esp
    esp equal_grid_n 80 80 80
  #
  #
  ################################################################################
  #
  #  FHI-aims code project
  # Volker Blum, Fritz Haber Institute Berlin, 2009
  #
  #  Suggested "tight" defaults for H atom (to be pasted into control.in file)
  #
  ################################################################################
    species        H
  #     global species definitions
      nucleus             1
      mass                1.00794
  #
      l_hartree           6
  #
      cut_pot             4.0  2.0  1.0
      basis_dep_cutoff    1e-4
  #
      radial_base         24 7.0
      radial_multiplier   2
      angular_grids       specified
        division   0.1930   50
        division   0.3175  110
        division   0.4293  194
        division   0.5066  302
        division   0.5626  434
  #      division   0.5922  590
  #      division   0.6227  974
  #      division   0.6868 1202
  #      outer_grid  770
        outer_grid  434
  ################################################################################
  #
  #  Definition of "minimal" basis
  #
  ################################################################################
  #     valence basis states
      valence      1  s   1.
  #     ion occupancy
      ion_occ      1  s   0.5
  ################################################################################
  #
  #  Suggested additional basis functions. For production calculations,
  #  uncomment them one after another (the most important basis functions are
  #  listed first).
  #
  #  Basis constructed for dimers: 0.5 A, 0.7 A, 1.0 A, 1.5 A, 2.5 A
  #
  ################################################################################
  #  "First tier" - improvements: -1014.90 meV to -62.69 meV
       hydro 2 s 2.1
       hydro 2 p 3.5
  #  "Second tier" - improvements: -12.89 meV to -1.83 meV
       hydro 1 s 0.85
       hydro 2 p 3.7
       hydro 2 s 1.2
       hydro 3 d 7
  #  "Third tier" - improvements: -0.25 meV to -0.12 meV
  #     hydro 4 f 11.2
  #     hydro 3 p 4.8
  #     hydro 4 d 9
  #     hydro 3 s 3.2
  ################################################################################
  #
  # For methods that use the localized form of the "resolution of identity" for
  # the two-electron Coulomb operator (RI_method LVL), particularly Hartree-Fock and
  # hybrid density functional calculations, the highest accuracy can be obtained by
  # uncommenting the line beginning with "for_aux"  below, thus adding an extra g radial
  # function to the construction of the product basis set for the expansion.
  # See Ref. New J. Phys. 17, 093020 (2015) for more information, particularly Figs. 1 and 6.
  #
  ################################################################################
  #
  # for_aux hydro 5 g 6.0
  ################################################################################
  #
  #  FHI-aims code project
  # Volker Blum, Fritz Haber Institute Berlin, 2009
  #
  #  Suggested "tight" defaults for C atom (to be pasted into control.in file)
  #
  ################################################################################
    species        C
  #     global species definitions
      nucleus             6
      mass                12.0107
  #
      l_hartree           6
  #
      cut_pot             4.0  2.0  1.0
      basis_dep_cutoff    1e-4
  #
      radial_base         34 7.0
      radial_multiplier   2
      angular_grids specified
        division   0.2187   50
        division   0.4416  110
        division   0.6335  194
        division   0.7727  302
        division   0.8772  434
  #      division   0.9334  590
  #      division   0.9924  770
  #      division   1.0230  974
  #      division   1.5020 1202
  #     outer_grid  974
        outer_grid  434
  ################################################################################
  #
  #  Definition of "minimal" basis
  #
  ################################################################################
  #     valence basis states
      valence      2  s   2.
      valence      2  p   2.
  #     ion occupancy
      ion_occ      2  s   1.
      ion_occ      2  p   1.
  ################################################################################
  #
  #  Suggested additional basis functions. For production calculations,
  #  uncomment them one after another (the most important basis functions are
  #  listed first).
  #
  #  Constructed for dimers: 1.0 A, 1.25 A, 1.5 A, 2.0 A, 3.0 A
  #
  ################################################################################
  #  "First tier" - improvements: -1214.57 meV to -155.61 meV
       hydro 2 p 1.7
       hydro 3 d 6
       hydro 2 s 4.9
  #  "Second tier" - improvements: -67.75 meV to -5.23 meV
       hydro 4 f 9.8
       hydro 3 p 5.2
       hydro 3 s 4.3
       hydro 5 g 14.4
       hydro 3 d 6.2
  #  "Third tier" - improvements: -2.43 meV to -0.60 meV
  #     hydro 2 p 5.6
  #     hydro 2 s 1.4
  #     hydro 3 d 4.9
  #     hydro 4 f 11.2
  #  "Fourth tier" - improvements: -0.39 meV to -0.18 meV
  #     hydro 2 p 2.1
  #     hydro 5 g 16.4
  #     hydro 4 d 13.2
  #     hydro 3 s 13.6
  #     hydro 4 f 17.6
  #  Further basis functions - improvements: -0.08 meV and below
  #     hydro 3 s 2
  #     hydro 3 p 6
  #     hydro 4 d 20
  ################################################################################
  #
  # For methods that use the localized form of the "resolution of identity" for
  # the two-electron Coulomb operator (RI_method LVL), particularly Hartree-Fock and
  # hybrid density functional calculations, the highest accuracy can be obtained by
  # uncommenting the line beginning with "for_aux"  below, thus adding an extra g radial
  # function to the construction of the product basis set for the expansion.
  # See Ref. New J. Phys. 17, 093020 (2015) for more information, particularly Figs. 1 and 6.
  #
  ################################################################################
  #
  # for_aux hydro 5 g 6.0
  ################################################################################
  #
  #  FHI-aims code project
  # Volker Blum, Fritz Haber Institute Berlin, 2009
  #
  #  Suggested "tight" defaults for N atom (to be pasted into control.in file)
  #
  ################################################################################
    species        N
  #     global species definitions
      nucleus             7
      mass                14.0067
  #
      l_hartree           6
  #
      cut_pot             4.0  2.0  1.0
      basis_dep_cutoff    1e-4
  #
      radial_base         35 7.0
      radial_multiplier   2
      angular_grids       specified
        division   0.1841   50
        division   0.3514  110
        division   0.5126  194
        division   0.6292  302
        division   0.6939  434
  #      division   0.7396  590
  #      division   0.7632  770
  #      division   0.8122  974
  #      division   1.1604 1202
  #      outer_grid  974
        outer_grid  434
  ################################################################################
  #
  #  Definition of "minimal" basis
  #
  ################################################################################
  #     valence basis states
      valence      2  s   2.
      valence      2  p   3.
  #     ion occupancy
      ion_occ      2  s   1.
      ion_occ      2  p   2.
  ################################################################################
  #
  #  Suggested additional basis functions. For production calculations,
  #  uncomment them one after another (the most important basis functions are
  #  listed first).
  #
  #  Constructed for dimers: 1.0 A, 1.1 A, 1.5 A, 2.0 A, 3.0 A
  #
  ################################################################################
  #  "First tier" - improvements: -1193.42 meV to -220.60 meV
       hydro 2 p 1.8
       hydro 3 d 6.8
       hydro 3 s 5.8
  #  "Second tier" - improvements: -80.21 meV to -6.86 meV
       hydro 4 f 10.8
       hydro 3 p 5.8
       hydro 1 s 0.8
       hydro 5 g 16
       hydro 3 d 4.9
  #  "Third tier" - improvements: -4.29 meV to -0.53 meV
  #     hydro 3 s 16
  #     ionic 2 p auto
  #     hydro 3 d 6.6
  #     hydro 4 f 11.6
  #  "Fourth tier" - improvements: -0.75 meV to -0.25 meV
  #     hydro 2 p 4.5
  #     hydro 2 s 2.4
  #     hydro 5 g 14.4
  #     hydro 4 d 14.4
  #     hydro 4 f 16.8
  # Further basis functions - -0.21 meV and below
  #     hydro 3 p 14.8
  #     hydro 3 s 4.4
  #     hydro 3 d 19.6
  #     hydro 5 g 12.8
  ################################################################################
  #
  # For methods that use the localized form of the "resolution of identity" for
  # the two-electron Coulomb operator (RI_method LVL), particularly Hartree-Fock and
  # hybrid density functional calculations, the highest accuracy can be obtained by
  # uncommenting the line beginning with "for_aux"  below, thus adding an extra g radial
  # function to the construction of the product basis set for the expansion.
  # See Ref. New J. Phys. 17, 093020 (2015) for more information, particularly Figs. 1 and 6.
  #
  ################################################################################
  #
  # for_aux hydro 5 g 6.0
  ################################################################################
  #
  #  FHI-aims code project
  # Volker Blum, Fritz Haber Institute Berlin, 2009
  #
  #  Suggested "tight" defaults for O atom (to be pasted into control.in file)
  #
  ################################################################################
    species        O
  #     global species definitions
      nucleus             8
      mass                15.9994
  #
      l_hartree           6
  #
      cut_pot             4.0  2.0  1.0
      basis_dep_cutoff    1e-4
  #
      radial_base         36 7.0
      radial_multiplier   2
       angular_grids specified
        division   0.1817   50
        division   0.3417  110
        division   0.4949  194
        division   0.6251  302
        division   0.8014  434
  #      division   0.8507  590
  #      division   0.8762  770
  #      division   0.9023  974
  #      division   1.2339 1202
  #      outer_grid 974
        outer_grid  434
  ################################################################################
  #
  #  Definition of "minimal" basis
  #
  ################################################################################
  #     valence basis states
      valence      2  s   2.
      valence      2  p   4.
  #     ion occupancy
      ion_occ      2  s   1.
      ion_occ      2  p   3.
  ################################################################################
  #
  #  Suggested additional basis functions. For production calculations,
  #  uncomment them one after another (the most important basis functions are
  #  listed first).
  #
  #  Constructed for dimers: 1.0 A, 1.208 A, 1.5 A, 2.0 A, 3.0 A
  #
  ################################################################################
  #  "First tier" - improvements: -699.05 meV to -159.38 meV
       hydro 2 p 1.8
       hydro 3 d 7.6
       hydro 3 s 6.4
  #  "Second tier" - improvements: -49.91 meV to -5.39 meV
       hydro 4 f 11.6
       hydro 3 p 6.2
       hydro 3 d 5.6
       hydro 5 g 17.6
       hydro 1 s 0.75
  #  "Third tier" - improvements: -2.83 meV to -0.50 meV
  #     ionic 2 p auto
  #     hydro 4 f 10.8
  #     hydro 4 d 4.7
  #     hydro 2 s 6.8
  #  "Fourth tier" - improvements: -0.40 meV to -0.12 meV
  #     hydro 3 p 5
  #     hydro 3 s 3.3
  #     hydro 5 g 15.6
  #     hydro 4 f 17.6
  #     hydro 4 d 14
  # Further basis functions - -0.08 meV and below
  #     hydro 3 s 2.1
  #     hydro 4 d 11.6
  #     hydro 3 p 16
  #     hydro 2 s 17.2
  ################################################################################
  #
  # For methods that use the localized form of the "resolution of identity" for
  # the two-electron Coulomb operator (RI_method LVL), particularly Hartree-Fock and
  # hybrid density functional calculations, the highest accuracy can be obtained by
  # uncommenting the line beginning with "for_aux"  below, thus adding an extra g radial
  # function to the construction of the product basis set for the expansion.
  # See Ref. New J. Phys. 17, 093020 (2015) for more information, particularly Figs. 1 and 6.
  #
  ################################################################################
  #
  # for_aux hydro 5 g 6.0
  
  -----------------------------------------------------------------------
  Completed first pass over input file control.in .
  -----------------------------------------------------------------------
  
  
  -----------------------------------------------------------------------
  Parsing geometry.in (first pass over file, find array dimensions only).
  The contents of geometry.in will be repeated verbatim below
  unless switched off by setting 'verbatim_writeout .false.' .
  in the first line of geometry.in .
  -----------------------------------------------------------------------
  
  #
  # This is the geometry file that corresponds to the current relaxation step.
  # If you do not want this file to be written, set the "write_restart_geometry" flag to .false.
  #
  atom      -0.54352190     -0.93900835     -0.26408002 C
  atom      -0.49326270      0.11237842      0.83695180 C
  atom       0.22864305      1.10215736      0.75149190 O
  atom       0.23217080     -0.69319678     -0.99404919 H
  atom      -1.52082753     -0.92428495     -0.76915667 H
  atom      -0.37278078     -1.95635520      0.11519628 H
  atom      -1.29621891     -0.09050865      1.92815980 N
  atom      -2.23871916     -1.16844346      2.14505406 C
  atom      -3.52384535     -0.55997541      2.73683997 C
  atom      -3.47459245      0.42740243      3.46354218 O
  atom      -1.33771017      0.67276143      2.60253621 H
  atom      -2.45846987     -1.62899198      1.17494828 H
  atom      -1.69024650     -2.24386270      3.10323302 C
  atom      -2.41357588     -3.05673370      3.26055600 H
  atom      -1.46317959     -1.79509230      4.07866642 H
  atom      -0.76555423     -2.67233996      2.69604314 H
  atom      -4.70235453     -1.20551953      2.47640965 N
  atom      -4.94200602     -2.26168761      1.50721499 C
  atom      -4.70525837     -1.77831805      0.05248715 C
  atom      -5.02013030     -0.65439674     -0.31702592 O
  atom      -5.51634356     -0.70705946      2.82766976 H
  atom      -4.26537890     -3.10628211      1.72256787 H
  atom      -6.38721264     -2.75175129      1.64294893 C
  atom      -6.58592132     -3.57082323      0.94112523 H
  atom      -7.08641198     -1.93543796      1.41591332 H
  atom      -6.57781472     -3.11335040      2.66156927 H
  atom      -4.14384075     -2.72047195     -0.76296608 N
  atom      -3.90501435     -2.49480482     -2.17712304 C
  atom      -3.90871376     -3.62283684     -0.36625972 H
  atom      -4.53273344     -3.14634429     -2.80134138 H
  atom      -2.84995496     -2.66751891     -2.42946158 H
  atom      -4.15728028     -1.45041001     -2.38998761 H
  
  -----------------------------------------------------------------------
  Completed first pass over input file geometry.in .
  -----------------------------------------------------------------------
  

  Basic array size parameters:
  | Number of species                 :        4
  | Number of atoms                   :       32
  | Max. basis fn. angular momentum   :        4
  | Max. atomic/ionic basis occupied n:        2
  | Max. number of basis fn. types    :        2
  | Max. radial fns per species/type  :        8
  | Max. logarithmic grid size        :     1301
  | Max. radial integration grid size :       73
  | Max. angular integration grid size:      434
  | Max. angular grid division number :        8
  | Radial grid for Hartree potential :     1301
  | Number of spin channels           :        1

------------------------------------------------------------
          Reading file control.in.
------------------------------------------------------------
  XC: Using PBE gradient-corrected functionals.
  Self-consistent screening and van der Waals energy (TS, TS+SCS,MBD) module
  Spin treatment: No spin polarisation.
  Charge =   0.000000E+00: Neutral system requested explicitly.
  Occupation type: Gaussian broadening, width =   0.500000E-01 eV.
  Using pulay charge density mixing.
  Pulay mixing - number of memorized iterations:   10
  Charge density mixing - mixing parameter:     0.5000
  Convergence accuracy of self-consistent charge density:  0.1000E-03
  Convergence accuracy of sum of eigenvalues:  0.1000E-01
  Convergence accuracy of total energy:  0.1000E-04
  Convergence accuracy of forces:  0.1000E-03
  Maximum number of s.-c. iterations  :  1000
  Fitting ESP-charges to Potential. 
  | Esp charge output options: 
  | ESP Grid method: 3, cubic grid
  | Number of points in x, ,y, z:  0080 0080 0080
  |
 
  Reading configuration options for species H                   .
  | Found nuclear charge :   1.0000
  | Found atomic mass :    1.00794000000000      amu
  | Found l_max for Hartree potential  :   6
  | Found cutoff potl. onset [A], width [A], scale factor :    4.00000    2.00000    1.00000
  | Threshold for basis-dependent cutoff potential is   0.100000E-03
  | Found data for basic radial integration grid :    24 points, outermost radius =    7.000 A
  | Found multiplier for basic radial grid :   2
  | Found angular grid specification: user-specified.
  | Specified grid contains     6 separate shells.
  | Check grid settings after all constraints further below.
  | Found free-atom valence shell :  1 s   1.000
  | No ionic wave fns used. Skipping ion_occ.
  | Found hydrogenic basis function :  2 s   2.100
  | Found hydrogenic basis function :  2 p   3.500
  | Found hydrogenic basis function :  1 s   0.850
  | Found hydrogenic basis function :  2 p   3.700
  | Found hydrogenic basis function :  2 s   1.200
  | Found hydrogenic basis function :  3 d   7.000
  Species H                   : Missing cutoff potential type.
  Defaulting to exp(1/x)/(1-x)^2 type cutoff potential.
  Species H : No 'logarithmic' tag. Using default grid for free atom:
  | Default logarithmic grid data [bohr] : 0.1000E-03 0.1000E+03 0.1012E+01
  Species H : On-site basis accuracy parameter (for Gram-Schmidt orthonormalisation) not specified.
  Using default value basis_acc =  0.1000000E-03.
  Species H                   : Using default innermost maximum threshold i_radial=  2 for radial functions.
  Species H                   : Default cutoff onset for free atom density etc. : 0.40000000E+01 AA.
  Species H                   : Basic radial grid will be enhanced according to radial_multiplier =   2, to contain    49 grid points.
 
  Reading configuration options for species C                   .
  | Found nuclear charge :   6.0000
  | Found atomic mass :    12.0107000000000      amu
  | Found l_max for Hartree potential  :   6
  | Found cutoff potl. onset [A], width [A], scale factor :    4.00000    2.00000    1.00000
  | Threshold for basis-dependent cutoff potential is   0.100000E-03
  | Found data for basic radial integration grid :    34 points, outermost radius =    7.000 A
  | Found multiplier for basic radial grid :   2
  | Found angular grid specification: user-specified.
  | Specified grid contains     6 separate shells.
  | Check grid settings after all constraints further below.
  | Found free-atom valence shell :  2 s   2.000
  | Found free-atom valence shell :  2 p   2.000
  | No ionic wave fns used. Skipping ion_occ.
  | No ionic wave fns used. Skipping ion_occ.
  | Found hydrogenic basis function :  2 p   1.700
  | Found hydrogenic basis function :  3 d   6.000
  | Found hydrogenic basis function :  2 s   4.900
  | Found hydrogenic basis function :  4 f   9.800
  | Found hydrogenic basis function :  3 p   5.200
  | Found hydrogenic basis function :  3 s   4.300
  | Found hydrogenic basis function :  5 g  14.400
  | Found hydrogenic basis function :  3 d   6.200
  Species C                   : Missing cutoff potential type.
  Defaulting to exp(1/x)/(1-x)^2 type cutoff potential.
  Species C : No 'logarithmic' tag. Using default grid for free atom:
  | Default logarithmic grid data [bohr] : 0.1000E-03 0.1000E+03 0.1012E+01
  Species C : On-site basis accuracy parameter (for Gram-Schmidt orthonormalisation) not specified.
  Using default value basis_acc =  0.1000000E-03.
  Species C                   : Using default innermost maximum threshold i_radial=  2 for radial functions.
  Species C                   : Default cutoff onset for free atom density etc. : 0.40000000E+01 AA.
  Species C                   : Basic radial grid will be enhanced according to radial_multiplier =   2, to contain    69 grid points.
 
  Reading configuration options for species N                   .
  | Found nuclear charge :   7.0000
  | Found atomic mass :    14.0067000000000      amu
  | Found l_max for Hartree potential  :   6
  | Found cutoff potl. onset [A], width [A], scale factor :    4.00000    2.00000    1.00000
  | Threshold for basis-dependent cutoff potential is   0.100000E-03
  | Found data for basic radial integration grid :    35 points, outermost radius =    7.000 A
  | Found multiplier for basic radial grid :   2
  | Found angular grid specification: user-specified.
  | Specified grid contains     6 separate shells.
  | Check grid settings after all constraints further below.
  | Found free-atom valence shell :  2 s   2.000
  | Found free-atom valence shell :  2 p   3.000
  | No ionic wave fns used. Skipping ion_occ.
  | No ionic wave fns used. Skipping ion_occ.
  | Found hydrogenic basis function :  2 p   1.800
  | Found hydrogenic basis function :  3 d   6.800
  | Found hydrogenic basis function :  3 s   5.800
  | Found hydrogenic basis function :  4 f  10.800
  | Found hydrogenic basis function :  3 p   5.800
  | Found hydrogenic basis function :  1 s   0.800
  | Found hydrogenic basis function :  5 g  16.000
  | Found hydrogenic basis function :  3 d   4.900
  Species N                   : Missing cutoff potential type.
  Defaulting to exp(1/x)/(1-x)^2 type cutoff potential.
  Species N : No 'logarithmic' tag. Using default grid for free atom:
  | Default logarithmic grid data [bohr] : 0.1000E-03 0.1000E+03 0.1012E+01
  Species N : On-site basis accuracy parameter (for Gram-Schmidt orthonormalisation) not specified.
  Using default value basis_acc =  0.1000000E-03.
  Species N                   : Using default innermost maximum threshold i_radial=  2 for radial functions.
  Species N                   : Default cutoff onset for free atom density etc. : 0.40000000E+01 AA.
  Species N                   : Basic radial grid will be enhanced according to radial_multiplier =   2, to contain    71 grid points.
 
  Reading configuration options for species O                   .
  | Found nuclear charge :   8.0000
  | Found atomic mass :    15.9994000000000      amu
  | Found l_max for Hartree potential  :   6
  | Found cutoff potl. onset [A], width [A], scale factor :    4.00000    2.00000    1.00000
  | Threshold for basis-dependent cutoff potential is   0.100000E-03
  | Found data for basic radial integration grid :    36 points, outermost radius =    7.000 A
  | Found multiplier for basic radial grid :   2
  | Found angular grid specification: user-specified.
  | Specified grid contains     6 separate shells.
  | Check grid settings after all constraints further below.
  | Found free-atom valence shell :  2 s   2.000
  | Found free-atom valence shell :  2 p   4.000
  | No ionic wave fns used. Skipping ion_occ.
  | No ionic wave fns used. Skipping ion_occ.
  | Found hydrogenic basis function :  2 p   1.800
  | Found hydrogenic basis function :  3 d   7.600
  | Found hydrogenic basis function :  3 s   6.400
  | Found hydrogenic basis function :  4 f  11.600
  | Found hydrogenic basis function :  3 p   6.200
  | Found hydrogenic basis function :  3 d   5.600
  | Found hydrogenic basis function :  5 g  17.600
  | Found hydrogenic basis function :  1 s   0.750
  Species O                   : Missing cutoff potential type.
  Defaulting to exp(1/x)/(1-x)^2 type cutoff potential.
  Species O : No 'logarithmic' tag. Using default grid for free atom:
  | Default logarithmic grid data [bohr] : 0.1000E-03 0.1000E+03 0.1012E+01
  Species O : On-site basis accuracy parameter (for Gram-Schmidt orthonormalisation) not specified.
  Using default value basis_acc =  0.1000000E-03.
  Species O                   : Using default innermost maximum threshold i_radial=  2 for radial functions.
  Species O                   : Default cutoff onset for free atom density etc. : 0.40000000E+01 AA.
  Species O                   : Basic radial grid will be enhanced according to radial_multiplier =   2, to contain    73 grid points.
 
  Finished reading input file 'control.in'. Consistency checks are next.
 
  Target number of points in a grid batch is not set. Defaulting to  100
  Method for grid partitioning is not set. Defaulting to parallel hash+maxmin partitioning.
  Batch size limit is not set. Defaulting to    200
  By default, will store active basis functions for each batch.
  If in need of memory, prune_basis_once .false. can be used to disable this option.
  communication_type for Hartree potential was not specified.
  Defaulting to calc_hartree .
  Pulay mixer: Number of initial linear mixing iterations not set.
  Defaulting to    0 iterations.
  Work space size for distributed Hartree potential not set.
  Defaulting to   0.200000E+03 MB.
  Algorithm-dependent basis array size parameters:
  | n_max_pulay                         :       10
  Geometry relaxation not requested: no relaxation will be performed.
  Handling of forces: Unphysical translation and rotation will be removed from forces.
  No accuracy limit for integral partition fn. given. Defaulting to  0.1000E-14.
  No threshold value for u(r) in integrations given. Defaulting to  0.1000E-05.
  No accuracy for occupation numbers given. Defaulting to  0.1000E-07.
  No threshold value for occupation numbers given. Defaulting to  0.0000E+00.
  No accuracy for fermi level given. Defaulting to  0.1000E-19.
  Maximum # of iterations to find E_F not set. Defaulting to  200.
  Preferred method for the eigenvalue solver ('KS_method') not specified in 'control.in'.
  Calling blacs routine to test compilation state
  Since scalapack support is enabled, defaulting to 'elpa'.
  Preferred method for the MBD eigenvalue solver ('mbd_eigensolver') not specified in 'control.in'.
  Calling blacs routine to test compilation state
  Since scalapack support is enabled, defaulting to 'scaLAPACK'.
  Will not use alltoall communication since running on < 1024 CPUs.
  Threshold for basis singularities not set.
  Default threshold for basis singularities:  0.1000E-04
  partition_type (choice of integration weights) for integrals was not specified.
  | Using a version of the partition function of Stratmann and coworkers ('stratmann_smoother').
  | At each grid point, the set of atoms used to build the partition table is smoothly restricted to
  | only those atoms whose free-atom density would be non-zero at that grid point.
  Partitioning for Hartree potential was not defined. Using partition_type for integrals.
  | Adjusted default value of keyword multip_moments_threshold to:       0.10000000E-11
  | This value may affect high angular momentum components of the Hartree potential in periodic systems.
  No q(lm)/r^(l+1) cutoff set for long-range Hartree potential.
  | Using default value of  0.100000E-09 .
  | Verify using the multipole_threshold keyword.
  Defaulting to new monopole extrapolation.
  Density update method: automatic selection selected.
------------------------------------------------------------


------------------------------------------------------------
          Reading geometry description geometry.in.
------------------------------------------------------------
 * Warning! You did not set the 'relativistic' flag in input file 'control.in'.
 * Since you are not attempting to treat any elements beyond Ca(Z=20), FHI-aims
 * will default to 'relativistic none'.
 * You must ensure that this is really what you want!!
 * For example, DO NOT compute total-energy differences between results from
 * different settings of the 'relativistic' flag.
  Input structure read successfully.
  The structure contains       32 atoms,  and a total of        116.000 electrons.

  Input geometry:
  | No unit cell requested.
  | Atomic structure:
  |       Atom                x [A]            y [A]            z [A]
  |    1: Species C             -0.543522        -0.939008        -0.264080
  |    2: Species C             -0.493263         0.112378         0.836952
  |    3: Species O              0.228643         1.102157         0.751492
  |    4: Species H              0.232171        -0.693197        -0.994049
  |    5: Species H             -1.520828        -0.924285        -0.769157
  |    6: Species H             -0.372781        -1.956355         0.115196
  |    7: Species N             -1.296219        -0.090509         1.928160
  |    8: Species C             -2.238719        -1.168443         2.145054
  |    9: Species C             -3.523845        -0.559975         2.736840
  |   10: Species O             -3.474592         0.427402         3.463542
  |   11: Species H             -1.337710         0.672761         2.602536
  |   12: Species H             -2.458470        -1.628992         1.174948
  |   13: Species C             -1.690247        -2.243863         3.103233
  |   14: Species H             -2.413576        -3.056734         3.260556
  |   15: Species H             -1.463180        -1.795092         4.078666
  |   16: Species H             -0.765554        -2.672340         2.696043
  |   17: Species N             -4.702355        -1.205520         2.476410
  |   18: Species C             -4.942006        -2.261688         1.507215
  |   19: Species C             -4.705258        -1.778318         0.052487
  |   20: Species O             -5.020130        -0.654397        -0.317026
  |   21: Species H             -5.516344        -0.707059         2.827670
  |   22: Species H             -4.265379        -3.106282         1.722568
  |   23: Species C             -6.387213        -2.751751         1.642949
  |   24: Species H             -6.585921        -3.570823         0.941125
  |   25: Species H             -7.086412        -1.935438         1.415913
  |   26: Species H             -6.577815        -3.113350         2.661569
  |   27: Species N             -4.143841        -2.720472        -0.762966
  |   28: Species C             -3.905014        -2.494805        -2.177123
  |   29: Species H             -3.908714        -3.622837        -0.366260
  |   30: Species H             -4.532733        -3.146344        -2.801341
  |   31: Species H             -2.849955        -2.667519        -2.429462
  |   32: Species H             -4.157280        -1.450410        -2.389988
  |

  | The smallest distance between any two atoms is         1.01337211 AA.
  |
  | The first atom of this pair is atom number                     27 .
  | The second atom of this pair is atom number                    29 .

  Number of empty states per atom not set in control.in - providing a guess from actual geometry.
  | Total number of empty states used during s.c.f. cycle:       71
  If you use a very high smearing, use empty_states (per atom!) in control.in to increase this value.

  Structure-dependent array size parameters: 
  | Maximum number of distinct radial functions  :       40
  | Maximum number of basis functions            :      840
  | Number of Kohn-Sham states (occupied + empty):      129
------------------------------------------------------------

------------------------------------------------------------
          Preparing all fixed parts of the calculation.
------------------------------------------------------------
  Determining machine precision:
    2.225073858507201E-308
  Setting up grids for atomic and cluster calculations.

  Creating wave function, potential, and density for free atoms.

  Species: H

  List of occupied orbitals and eigenvalues:
    n    l              occ      energy [Ha]    energy [eV]
    1    0           1.0000        -0.238382        -6.4867


  Species: C

  List of occupied orbitals and eigenvalues:
    n    l              occ      energy [Ha]    energy [eV]
    1    0           2.0000       -10.041232      -273.2358
    2    0           2.0000        -0.504327       -13.7234
    2    1           2.0000        -0.193750        -5.2722


  Species: N

  List of occupied orbitals and eigenvalues:
    n    l              occ      energy [Ha]    energy [eV]
    1    0           2.0000       -14.129007      -384.4699
    2    0           2.0000        -0.681802       -18.5528
    2    1           3.0000        -0.260543        -7.0897


  Species: O

  List of occupied orbitals and eigenvalues:
    n    l              occ      energy [Ha]    energy [eV]
    1    0           2.0000       -18.898576      -514.2564
    2    0           2.0000        -0.878795       -23.9132
    2    1           4.0000        -0.332075        -9.0362

  Creating fixed part of basis set: Ionic, confined, hydrogenic.
 
  H                    hydrogenic:
 
  List of hydrogenic basis orbitals: 
    n    l      effective z      eigenvalue [eV]  inner max. [A]     outer max. [A]     outer radius [A]   
    2    0         2.100000       -14.9965           0.193243           1.317208           5.373006
    2    1         3.500000       -41.6672           0.602369           0.602369           4.056063
    1    0         0.850000        -9.8292           0.624871           0.624871           5.373006
    2    1         3.700000       -46.5653           0.573622           0.573622           3.910002
    2    0         1.200000        -4.5995           0.334980           2.228188           5.505995
    3    2         7.000000       -74.0753           0.680699           0.680699           3.769201
 
 
  C                    hydrogenic:
 
  List of hydrogenic basis orbitals: 
    n    l      effective z      eigenvalue [eV]  inner max. [A]     outer max. [A]     outer radius [A]   
    2    1         1.700000        -9.8152           1.245706           1.245706           5.401630
    3    2         6.000000       -54.4226           0.792453           0.792453           4.178599
    2    0         4.900000       -81.6681           0.082559           0.562749           3.353238
    4    3         9.800000       -81.6681           0.863254           0.863254           4.028125
    3    1         5.200000       -40.8774           0.305389           1.215618           4.898362
    3    0         4.300000       -27.9508           0.091041           1.610311           5.401630
    5    4        14.400000      -112.8510           0.917666           0.917666           3.883070
    3    2         6.200000       -58.1113           0.763917           0.763917           4.077671
 
 
  N                    hydrogenic:
 
  List of hydrogenic basis orbitals: 
    n    l      effective z      eigenvalue [eV]  inner max. [A]     outer max. [A]     outer radius [A]   
    2    1         1.800000       -11.0118           1.177451           1.177451           5.427479
    3    2         6.800000       -69.9029           0.704619           0.704619           3.854246
    3    0         5.800000       -50.8549           0.067388           1.191934           4.629968
    4    3        10.800000       -99.1854           0.786571           0.786571           3.761152
    3    1         5.800000       -50.8549           0.274880           1.094176           4.518138
    1    0         0.800000        -8.7059           0.662839           0.662839           5.361532
    5    4        16.000000      -139.3222           0.825990           0.825990           3.625711
    3    2         4.900000       -36.2967           0.968267           0.968267           4.862000
 
 
  O                    hydrogenic:
 
  List of hydrogenic basis orbitals: 
    n    l      effective z      eigenvalue [eV]  inner max. [A]     outer max. [A]     outer radius [A]   
    2    1         1.800000       -11.0118           1.178562           1.178562           5.432602
    3    2         7.600000       -87.3182           0.624125           0.624125           3.541477
    3    0         6.400000       -61.9209           0.061167           1.081902           4.306578
    4    3        11.600000      -114.4238           0.731631           0.731631           3.585037
    3    1         6.200000       -58.1113           0.255680           1.030270           4.306578
    3    2         5.600000       -47.4081           0.847233           0.847233           4.413171
    5    4        17.600000      -168.5799           0.749740           0.749740           3.372465
    1    0         0.750000        -7.6499           0.705284           0.705284           5.366593
 

  Adding cutoff potential to free-atom effective potential.
  Creating atomic-like basis functions for current effective potential.

  Species H                   :

  List of atomic basis orbitals and eigenvalues:
    n    l      energy [Ha]    energy [eV]    outer radius [A]
    1    0        -0.238382        -6.4867       5.373006


  Species C                   :

  List of atomic basis orbitals and eigenvalues:
    n    l      energy [Ha]    energy [eV]    outer radius [A]
    1    0       -10.041232      -273.2358       1.934409
    2    0        -0.504327       -13.7234       5.271162
    2    1        -0.193750        -5.2722       5.401630


  Species N                   :

  List of atomic basis orbitals and eigenvalues:
    n    l      energy [Ha]    energy [eV]    outer radius [A]
    1    0       -14.129007      -384.4699       1.637919
    2    0        -0.681802       -18.5528       5.168461
    2    1        -0.260543        -7.0897       5.361532


  Species O                   :

  List of atomic basis orbitals and eigenvalues:
    n    l      energy [Ha]    energy [eV]    outer radius [A]
    1    0       -18.898576      -514.2564       1.415765
    2    0        -0.878795       -23.9132       5.048385
    2    1        -0.332075        -9.0362       5.301386

  Assembling full basis from fixed parts.
  | Species H :   atomic orbital   1 s accepted.
  | Species H :    hydro orbital   2 s accepted.
  | Species H :    hydro orbital   1 s accepted.
  | Species H :    hydro orbital   2 s accepted.
  | Species H :    hydro orbital   2 p accepted.
  | Species H :    hydro orbital   2 p accepted.
  | Species H :    hydro orbital   3 d accepted.
  | Species C :   atomic orbital   1 s accepted.
  | Species C :    hydro orbital   2 s accepted.
  | Species C :   atomic orbital   2 s accepted.
  | Species C :    hydro orbital   3 s accepted.
  | Species C :    hydro orbital   3 p accepted.
  | Species C :   atomic orbital   2 p accepted.
  | Species C :    hydro orbital   2 p accepted.
  | Species C :    hydro orbital   3 d accepted.
  | Species C :    hydro orbital   3 d accepted.
  | Species C :    hydro orbital   4 f accepted.
  | Species C :    hydro orbital   5 g accepted.
  | Species N :   atomic orbital   1 s accepted.
  | Species N :    hydro orbital   3 s accepted.
  | Species N :   atomic orbital   2 s accepted.
  | Species N :    hydro orbital   1 s accepted.
  | Species N :    hydro orbital   3 p accepted.
  | Species N :   atomic orbital   2 p accepted.
  | Species N :    hydro orbital   2 p accepted.
  | Species N :    hydro orbital   3 d accepted.
  | Species N :    hydro orbital   3 d accepted.
  | Species N :    hydro orbital   4 f accepted.
  | Species N :    hydro orbital   5 g accepted.
  | Species O :   atomic orbital   1 s accepted.
  | Species O :    hydro orbital   3 s accepted.
  | Species O :   atomic orbital   2 s accepted.
  | Species O :    hydro orbital   1 s accepted.
  | Species O :    hydro orbital   3 p accepted.
  | Species O :   atomic orbital   2 p accepted.
  | Species O :    hydro orbital   2 p accepted.
  | Species O :    hydro orbital   3 d accepted.
  | Species O :    hydro orbital   3 d accepted.
  | Species O :    hydro orbital   4 f accepted.
  | Species O :    hydro orbital   5 g accepted.
 
  Basis size parameters after reduction:
  | Total number of radial functions:       40
  | Total number of basis functions :      840
 
  Testing on-site integration grid accuracy.
  |  Species  Function  <phi|h_atom|phi> (log., in eV)  <phi|h_atom|phi> (rad., in eV)
           1        1                 -6.4869821809                 -6.4870742227
           1        2                 13.5044133542                 13.5041049177
           1        3                 32.7854418792                 32.7779770519
           1        4                 33.7995553101                 33.7152624900 ***
           1        5                 28.8558651799                 28.8558652046
           1        6                 59.6361831893                 59.6362535845
           1        7                 60.2733718049                 60.2733715484
           2        8               -273.2358277112               -273.2358261765
           2        9                -10.7624923123                -10.7625144012
           2       10                 17.4634079027                 17.4634252127
           2       11                 53.0363661832                 53.0366180446
           2       12                 15.0981351967                 15.0981317714
           2       13                  3.8522181899                  3.8522770949
           2       14                 12.1181835661                 12.1206868578
           2       15                 29.4320778347                 29.4320780959
           2       16                 54.8753777694                 54.8752901936
           2       17                 59.3533975461                 59.3533974833
           2       18                 93.4537491195                 93.4537492066
           3       19               -384.4698526889               -384.4698499465
           3       20                 12.5691022037                 12.5690910168
           3       21                -15.7489097511                -15.7489165588
           3       22                 27.0978334940                 27.0985589490
           3       23                 18.5949116966                 18.5949125562
           3       24                  1.2212828291                  1.2212855301
           3       25                 13.4428926797                 13.4434051125
           3       26                 35.9380614500                 35.9380613666
           3       27                 39.9231532098                 39.9231654735
           3       28                 72.9957335806                 72.9957336833
           3       29                116.4231321147                116.4231321431
           4       30               -514.2564144315               -514.2564099626
           4       31                 15.1726678541                 15.1726530877
           4       32                -21.5447785304                -21.5447874973
           4       33                 14.4944558459                 14.4944698284
           4       34                 20.8882174564                 20.8882178906
           4       35                 -2.4850315908                 -2.4850322289
           4       36                 13.8600193195                 13.8599826966
           4       37                 45.8243383616                 45.8243383675
           4       38                 52.1840606465                 52.1840622440
           4       39                 85.4074185510                 85.4074185819
           4       40                142.0983717302                142.0983717339
 * Note: Onsite integrals marked "***" above are less accurate than
 * onsite_accuracy_threshold =    0.03000 eV. Usually, this is harmless.
 * When in doubt, tighten the "radial" and/or "radial_multiplier" flags to check.

  Preparing densities etc. for the partition functions (integrals / Hartree potential).

  Preparations completed.
  max(cpu_time)          :      0.240 s.
  Wall clock time (cpu1) :      0.236 s.
------------------------------------------------------------

------------------------------------------------------------
          Begin self-consistency loop: Initialization.

          Date     :  20170309, Time     :  160657.158
------------------------------------------------------------

  Initializing index lists of integration centers etc. from given atomic structure:
  | Number of centers in hartree potential         :        32
  | Number of centers in hartree multipole         :        32
  | Number of centers in electron density summation:        32
  | Number of centers in basis integrals           :        32
  | Number of centers in integrals                 :        32
  | Number of centers in hamiltonian               :        32
  Using modified Scalapack Eigenvalue solver (ELPA)
  * Using 32 tasks for Scalapack Eigenvalue solver.
  Detailed listing of tasks and assigned k-points:
  (for non-periodic systems, the "k-point" denotes an internal label only)
   Task     0 k-point     1 on eos144
   Task     1 k-point     1 on eos144
   Task     2 k-point     1 on eos144
   Task     3 k-point     1 on eos144
   Task     4 k-point     1 on eos144
   Task     5 k-point     1 on eos144
   Task     6 k-point     1 on eos144
   Task     7 k-point     1 on eos144
   Task     8 k-point     1 on eos144
   Task     9 k-point     1 on eos144
   Task    10 k-point     1 on eos144
   Task    11 k-point     1 on eos144
   Task    12 k-point     1 on eos144
   Task    13 k-point     1 on eos144
   Task    14 k-point     1 on eos144
   Task    15 k-point     1 on eos144
   Task    16 k-point     1 on eos144
   Task    17 k-point     1 on eos144
   Task    18 k-point     1 on eos144
   Task    19 k-point     1 on eos144
   Task    20 k-point     1 on eos144
   Task    21 k-point     1 on eos144
   Task    22 k-point     1 on eos144
   Task    23 k-point     1 on eos144
   Task    24 k-point     1 on eos144
   Task    25 k-point     1 on eos144
   Task    26 k-point     1 on eos144
   Task    27 k-point     1 on eos144
   Task    28 k-point     1 on eos144
   Task    29 k-point     1 on eos144
   Task    30 k-point     1 on eos144
   Task    31 k-point     1 on eos144
  Tasks:    32 split into      8 X      4 BLACS grid
  Calculating blocksize based on n_basis =          840 max_nprow =            8 max_npcol =            4
  Scalapack blocksize set to:           16
  Required Scalapack workspace - INTEGER:            1 REAL:             1
  Partitioning the integration grid into batches with parallel hashing+maxmin method.
  | Number of batches:     4910
  | Maximal batch size:     198
  | Minimal batch size:      47
  | Average batch size:     107.480
  | Standard deviation of batch sizes:      33.402

  Integration load balanced across    32 MPI tasks.
  Work distribution over tasks is as follows:
  Task     0 has      16488 integration points.
  Task     1 has      16502 integration points.
  Task     2 has      16515 integration points.
  Task     3 has      16514 integration points.
  Task     4 has      16498 integration points.
  Task     5 has      16420 integration points.
  Task     6 has      16495 integration points.
  Task     7 has      16506 integration points.
  Task     8 has      16509 integration points.
  Task     9 has      16510 integration points.
  Task    10 has      16443 integration points.
  Task    11 has      16499 integration points.
  Task    12 has      16495 integration points.
  Task    13 has      16427 integration points.
  Task    14 has      16506 integration points.
  Task    15 has      16446 integration points.
  Task    16 has      16489 integration points.
  Task    17 has      16554 integration points.
  Task    18 has      16448 integration points.
  Task    19 has      16503 integration points.
  Task    20 has      16506 integration points.
  Task    21 has      16508 integration points.
  Task    22 has      16510 integration points.
  Task    23 has      16505 integration points.
  Task    24 has      16519 integration points.
  Task    25 has      16500 integration points.
  Task    26 has      16532 integration points.
  Task    27 has      16538 integration points.
  Task    28 has      16419 integration points.
  Task    29 has      16494 integration points.
  Task    30 has      16509 integration points.
  Task    31 has      16421 integration points.
  Initializing partition tables, free-atom densities, potentials, etc. across the integration grid (initialize_grid_storage).
  | initialize_grid_storage: Actual outermost partition radius vs. multipole_radius_free
  | (-- VB: in principle, multipole_radius_free should be larger, hence this output)
  | Species        1: Confinement radius =              6.000000000000000 AA, multipole_radius_free =              6.071692442739658 AA.
  | Species        1: outer_partition_radius set to              6.071692442739658 AA .
  | Species        2: Confinement radius =              6.000000000000000 AA, multipole_radius_free =              6.029870734432609 AA.
  | Species        2: outer_partition_radius set to              6.029870734432609 AA .
  | Species        3: Confinement radius =              6.000000000000000 AA, multipole_radius_free =              6.058726835495003 AA.
  | Species        3: outer_partition_radius set to              6.058726835495003 AA .
  | Species        4: Confinement radius =              6.000000000000000 AA, multipole_radius_free =              6.064445521808699 AA.
  | Species        4: outer_partition_radius set to              6.064445521808699 AA .
  | Original list of interatomic distances with          32 x         32 entries is created.
  | Net number of integration points:   527728
  | of which are non-zero points    :   413462
  Obtaining max. number of non-zero basis functions in each batch (get_n_compute_maxes).
  | Maximal number of non-zero basis functions:      804 in task     0
  | Maximal number of non-zero basis functions:      785 in task     1
  | Maximal number of non-zero basis functions:      806 in task     2
  | Maximal number of non-zero basis functions:      796 in task     3
  | Maximal number of non-zero basis functions:      773 in task     4
  | Maximal number of non-zero basis functions:      794 in task     5
  | Maximal number of non-zero basis functions:      803 in task     6
  | Maximal number of non-zero basis functions:      797 in task     7
  | Maximal number of non-zero basis functions:      799 in task     8
  | Maximal number of non-zero basis functions:      796 in task     9
  | Maximal number of non-zero basis functions:      789 in task    10
  | Maximal number of non-zero basis functions:      780 in task    11
  | Maximal number of non-zero basis functions:      790 in task    12
  | Maximal number of non-zero basis functions:      790 in task    13
  | Maximal number of non-zero basis functions:      790 in task    14
  | Maximal number of non-zero basis functions:      800 in task    15
  | Maximal number of non-zero basis functions:      804 in task    16
  | Maximal number of non-zero basis functions:      791 in task    17
  | Maximal number of non-zero basis functions:      800 in task    18
  | Maximal number of non-zero basis functions:      797 in task    19
  | Maximal number of non-zero basis functions:      773 in task    20
  | Maximal number of non-zero basis functions:      795 in task    21
  | Maximal number of non-zero basis functions:      788 in task    22
  | Maximal number of non-zero basis functions:      803 in task    23
  | Maximal number of non-zero basis functions:      798 in task    24
  | Maximal number of non-zero basis functions:      796 in task    25
  | Maximal number of non-zero basis functions:      778 in task    26
  | Maximal number of non-zero basis functions:      809 in task    27
  | Maximal number of non-zero basis functions:      800 in task    28
  | Maximal number of non-zero basis functions:      808 in task    29
  | Maximal number of non-zero basis functions:      789 in task    30
  | Maximal number of non-zero basis functions:      793 in task    31
  Selecting the method for density update.
  Loop over occupied states selected for charge density update.
  Integrating Hamiltonian matrix: batch-based integration.
  Time summed over all CPUs for integration: real work       22.596 s, elapsed       23.451 s
  Integrating overlap matrix.
  Time summed over all CPUs for integration: real work       13.755 s, elapsed       14.259 s
  Deallocating overlap matrix.

  Updating Kohn-Sham eigenvalues, eigenvectors, occupation numbers, and Fermi level.
  Solving generalized eigenproblem
  Solving real symmetric generalised eigenvalue problem by standard ScaLAPACK.
  Transforming overlap matrix with ScaLAPACK and checking for singularities.
  : Overlap matrix is nonsingular, using Cholesky decomposition
  | Lowest eigenvalue:  0.928356E-04
  Factoring overlap matrix with Cholesky decomposition
  Using Cholesky factor for transformation
  Using 1-stage real ELPA solver
  Determining occupation numbers for Kohn-Sham eigenstates.
  | Chemical potential (Fermi level) in eV                 : -.95890037E+01
  | Error in electron count due to remaining E_F inaccuracy: 0.00000000E+00
  | Maximum occupation number of highest empty state:  0.00E+00

  Writing Kohn-Sham eigenvalues.

  State    Occupation    Eigenvalue [Ha]    Eigenvalue [eV]
      1       2.00000         -18.975348         -516.34550
      2       2.00000         -18.974863         -516.33229
      3       2.00000         -18.974041         -516.30992
      4       2.00000         -14.255709         -387.91758
      5       2.00000         -14.254635         -387.88835
      6       2.00000         -14.254465         -387.88374
      7       2.00000         -10.171010         -276.76727
      8       2.00000         -10.170459         -276.75226
      9       2.00000         -10.169771         -276.73354
     10       2.00000         -10.166743         -276.65117
     11       2.00000         -10.149720         -276.18793
     12       2.00000         -10.148348         -276.15061
     13       2.00000         -10.135671         -275.80563
     14       2.00000         -10.134738         -275.78026
     15       2.00000         -10.134615         -275.77690
     16       2.00000          -1.136049          -30.91348
     17       2.00000          -1.132726          -30.82303
     18       2.00000          -1.129819          -30.74393
     19       2.00000          -1.017751          -27.69441
     20       2.00000          -1.014875          -27.61616
     21       2.00000          -1.011954          -27.53666
     22       2.00000          -0.884631          -24.07205
     23       2.00000          -0.873584          -23.77142
     24       2.00000          -0.846116          -23.02400
     25       2.00000          -0.820039          -22.31440
     26       2.00000          -0.772021          -21.00775
     27       2.00000          -0.756960          -20.59794
     28       2.00000          -0.705603          -19.20044
     29       2.00000          -0.688325          -18.73028
     30       2.00000          -0.680979          -18.53038
     31       2.00000          -0.645672          -17.56962
     32       2.00000          -0.616621          -16.77911
     33       2.00000          -0.610775          -16.62004
     34       2.00000          -0.600277          -16.33437
     35       2.00000          -0.592527          -16.12349
     36       2.00000          -0.583647          -15.88183
     37       2.00000          -0.570789          -15.53196
     38       2.00000          -0.563901          -15.34453
     39       2.00000          -0.558992          -15.21095
     40       2.00000          -0.555850          -15.12544
     41       2.00000          -0.546191          -14.86261
     42       2.00000          -0.539712          -14.68630
     43       2.00000          -0.532963          -14.50265
     44       2.00000          -0.526963          -14.33939
     45       2.00000          -0.522280          -14.21196
     46       2.00000          -0.519439          -14.13467
     47       2.00000          -0.512545          -13.94706
     48       2.00000          -0.501063          -13.63462
     49       2.00000          -0.495414          -13.48089
     50       2.00000          -0.485408          -13.20863
     51       2.00000          -0.482742          -13.13609
     52       2.00000          -0.479694          -13.05315
     53       2.00000          -0.410624          -11.17365
     54       2.00000          -0.405271          -11.02799
     55       2.00000          -0.400420          -10.89599
     56       2.00000          -0.387647          -10.54840
     57       2.00000          -0.385218          -10.48232
     58       2.00000          -0.379507          -10.32691
     59       0.00000          -0.168333           -4.58058
     60       0.00000          -0.160910           -4.37859
     61       0.00000          -0.153166           -4.16786
     62       0.00000          -0.087474           -2.38029
     63       0.00000          -0.061406           -1.67095
     64       0.00000          -0.058010           -1.57853
     65       0.00000          -0.054069           -1.47130
     66       0.00000          -0.043206           -1.17570
     67       0.00000          -0.041822           -1.13803
     68       0.00000          -0.033901           -0.92249
     69       0.00000          -0.027610           -0.75130
     70       0.00000          -0.023990           -0.65280
     71       0.00000          -0.020629           -0.56133
     72       0.00000          -0.013685           -0.37240
     73       0.00000          -0.009888           -0.26907
     74       0.00000          -0.008631           -0.23487
     75       0.00000          -0.004888           -0.13302
     76       0.00000          -0.003666           -0.09975
     77       0.00000          -0.000030           -0.00081
     78       0.00000           0.002980            0.08108
     79       0.00000           0.007489            0.20377
     80       0.00000           0.014807            0.40291
     81       0.00000           0.023246            0.63256
     82       0.00000           0.028867            0.78551
     83       0.00000           0.033499            0.91156
     84       0.00000           0.038508            1.04786
     85       0.00000           0.045364            1.23443
     86       0.00000           0.051175            1.39255
     87       0.00000           0.052614            1.43170
     88       0.00000           0.060991            1.65966
     89       0.00000           0.070413            1.91604
     90       0.00000           0.074949            2.03948
     91       0.00000           0.079940            2.17527
     92       0.00000           0.082615            2.24808
     93       0.00000           0.085905            2.33759
     94       0.00000           0.090409            2.46014
     95       0.00000           0.096842            2.63521
     96       0.00000           0.101380            2.75870
     97       0.00000           0.109512            2.97998
     98       0.00000           0.118527            3.22527
     99       0.00000           0.122286            3.32757
    100       0.00000           0.125691            3.42023
    101       0.00000           0.132702            3.61102
    102       0.00000           0.138579            3.77094
    103       0.00000           0.139833            3.80505
    104       0.00000           0.147195            4.00538
    105       0.00000           0.149720            4.07408
    106       0.00000           0.156652            4.26270
    107       0.00000           0.159622            4.34354
    108       0.00000           0.159793            4.34819
    109       0.00000           0.168342            4.58083
    110       0.00000           0.170116            4.62910
    111       0.00000           0.176362            4.79905
    112       0.00000           0.182761            4.97318
    113       0.00000           0.185391            5.04475
    114       0.00000           0.192340            5.23385
    115       0.00000           0.194502            5.29266
    116       0.00000           0.197770            5.38159
    117       0.00000           0.201104            5.47230
    118       0.00000           0.210078            5.71650
    119       0.00000           0.216021            5.87822
    120       0.00000           0.217965            5.93114
    121       0.00000           0.222725            6.06064
    122       0.00000           0.224798            6.11706
    123       0.00000           0.237607            6.46561
    124       0.00000           0.243268            6.61967
    125       0.00000           0.247401            6.73213
    126       0.00000           0.252468            6.87000
    127       0.00000           0.257153            6.99750
    128       0.00000           0.262324            7.13821
    129       0.00000           0.268451            7.30493

  Highest occupied state (VBM) at    -10.32690553 eV
  | Occupation number:      2.00000000

  Lowest unoccupied state (CBM) at    -4.58058159 eV
  | Occupation number:      0.00000000

  Overall HOMO-LUMO gap:      5.74632394 eV.
  Calculating total energy contributions from superposition of free atom densities.

  Total energy components:
  | Sum of eigenvalues            :        -437.90744343 Ha      -11916.06781846 eV
  | XC energy correction          :         -98.82462533 Ha       -2689.15487797 eV
  | XC potential correction       :         127.02739842 Ha        3456.59138040 eV
  | Free-atom electrostatic energy:        -333.58144287 Ha       -9077.21290405 eV
  | Hartree energy correction     :           0.00000000 Ha           0.00000000 eV
  | MBD@rsSCS energy              :           0.00000000 Ha           0.00000000 eV
  | Entropy correction            :          -0.00000000 Ha          -0.00000000 eV
  | ---------------------------
  | Total energy                  :        -743.28611321 Ha      -20225.84422009 eV
  | Total energy, T -> 0          :        -743.28611321 Ha      -20225.84422009 eV  <-- do not rely on this value for anything but (periodic) metals
  | Electronic free energy        :        -743.28611321 Ha      -20225.84422009 eV

  Derived energy quantities:
  | Kinetic energy                :         735.17545386 Ha       20005.14194996 eV
  | Electrostatic energy          :       -1379.63694174 Ha      -37541.83129208 eV
  | Energy correction for multipole
  | error in Hartree potential    :           0.00000000 Ha           0.00000000 eV
  | Sum of eigenvalues per atom                           :        -372.37711933 eV
  | Total energy (T->0) per atom                          :        -632.05763188 eV  <-- do not rely on this value for anything but (periodic) metals
  | Electronic free energy per atom                       :        -632.05763188 eV
  Initialize hartree_potential_storage
  Max. number of atoms included in rho_multipole:           32

  End scf initialization - timings             :  max(cpu_time)    wall_clock(cpu1)
  | Time for scf. initialization               :        1.920 s           1.916 s
  | Boundary condition initialization          :        0.004 s           0.000 s
  | Integration                                :        1.204 s           1.200 s
  | Solution of K.-S. eqns.                    :        0.076 s           0.074 s
  | Grid partitioning                          :        0.268 s           0.263 s
  | Preloading free-atom quantities on grid    :        0.028 s           0.028 s
  | Free-atom superposition energy             :        0.044 s           0.040 s
  | Total energy evaluation                    :        0.000 s           0.000 s
------------------------------------------------------------

------------------------------------------------------------
          Begin self-consistency iteration #    1

  Date     :  20170309, Time     :  160659.075
------------------------------------------------------------
  Evaluating new KS density.
  Integration grid: deviation in total charge (<rho> - N_e) =   5.684342E-14
  Pulay mixing of updated and previous charge densities.

  Evaluating partitioned Hartree potential by multipole expansion.
  | Analytical far-field extrapolation by fixed multipoles:
  | Hartree multipole sum: apparent total charge =   0.566735E-05
  Summing up the Hartree potential.
  Time summed over all CPUs for potential: real work        9.644 s, elapsed       10.059 s
  | RMS charge density error from multipole expansion :   0.107102E-01

  Integrating Hamiltonian matrix: batch-based integration.
  Time summed over all CPUs for integration: real work       22.366 s, elapsed       23.245 s

  Updating Kohn-Sham eigenvalues, eigenvectors, occupation numbers, and Fermi level.
  Solving generalized eigenproblem
  Solving real symmetric generalised eigenvalue problem by standard ScaLAPACK.
  Using Cholesky factor for transformation
  Using 2-stage real ELPA solver
  K-Point:    1, Trafo times: 1-stage=     0.021 s, 2-stage=     0.020 s ==> Using 2-stage solver
  Determining occupation numbers for Kohn-Sham eigenstates.
  | Chemical potential (Fermi level) in eV                 : -.40092963E+01
  | Error in electron count due to remaining E_F inaccuracy: 0.00000000E+00
  | Maximum occupation number of highest empty state:  0.00E+00

  Writing Kohn-Sham eigenvalues.

  State    Occupation    Eigenvalue [Ha]    Eigenvalue [eV]
      1       2.00000         -18.623639         -506.77500
      2       2.00000         -18.621160         -506.70754
      3       2.00000         -18.594603         -505.98489
      4       2.00000         -14.007797         -381.17154
      5       2.00000         -13.996307         -380.85889
      6       2.00000         -13.970970         -380.16945
      7       2.00000         -10.062480         -273.81400
      8       2.00000         -10.061383         -273.78416
      9       2.00000         -10.039356         -273.18477
     10       2.00000          -9.984207         -271.68409
     11       2.00000          -9.967820         -271.23817
     12       2.00000          -9.894838         -269.25224
     13       2.00000          -9.856275         -268.20288
     14       2.00000          -9.845381         -267.90646
     15       2.00000          -9.845343         -267.90541
     16       2.00000          -0.974584          -26.51979
     17       2.00000          -0.965438          -26.27090
     18       2.00000          -0.941509          -25.61976
     19       2.00000          -0.875905          -23.83457
     20       2.00000          -0.875426          -23.82156
     21       2.00000          -0.854060          -23.24015
     22       2.00000          -0.748136          -20.35782
     23       2.00000          -0.727457          -19.79512
     24       2.00000          -0.691405          -18.81410
     25       2.00000          -0.685664          -18.65787
     26       2.00000          -0.634681          -17.27054
     27       2.00000          -0.628403          -17.09971
     28       2.00000          -0.578434          -15.73999
     29       2.00000          -0.569234          -15.48963
     30       2.00000          -0.549936          -14.96452
     31       2.00000          -0.525467          -14.29867
     32       2.00000          -0.495802          -13.49146
     33       2.00000          -0.475731          -12.94530
     34       2.00000          -0.464830          -12.64868
     35       2.00000          -0.452846          -12.32257
     36       2.00000          -0.440920          -11.99804
     37       2.00000          -0.434048          -11.81104
     38       2.00000          -0.425706          -11.58405
     39       2.00000          -0.413995          -11.26538
     40       2.00000          -0.407606          -11.09153
     41       2.00000          -0.401594          -10.92793
     42       2.00000          -0.395069          -10.75037
     43       2.00000          -0.392825          -10.68932
     44       2.00000          -0.382075          -10.39678
     45       2.00000          -0.381096          -10.37014
     46       2.00000          -0.378548          -10.30081
     47       2.00000          -0.366211           -9.96510
     48       2.00000          -0.357757           -9.73507
     49       2.00000          -0.350317           -9.53262
     50       2.00000          -0.347439           -9.45430
     51       2.00000          -0.342864           -9.32980
     52       2.00000          -0.329348           -8.96200
     53       2.00000          -0.247450           -6.73347
     54       2.00000          -0.243251           -6.61920
     55       2.00000          -0.224470           -6.10814
     56       2.00000          -0.220879           -6.01043
     57       2.00000          -0.212166           -5.77332
     58       2.00000          -0.194172           -5.28368
     59       0.00000          -0.062455           -1.69948
     60       0.00000          -0.056336           -1.53297
     61       0.00000          -0.046113           -1.25481
     62       0.00000          -0.030267           -0.82361
     63       0.00000          -0.023132           -0.62945
     64       0.00000          -0.018060           -0.49142
     65       0.00000          -0.014582           -0.39679
     66       0.00000           0.003332            0.09067
     67       0.00000           0.008096            0.22031
     68       0.00000           0.011816            0.32154
     69       0.00000           0.019011            0.51732
     70       0.00000           0.022854            0.62189
     71       0.00000           0.035084            0.95468
     72       0.00000           0.040306            1.09677
     73       0.00000           0.042771            1.16385
     74       0.00000           0.045018            1.22499
     75       0.00000           0.047551            1.29392
     76       0.00000           0.054725            1.48915
     77       0.00000           0.059798            1.62718
     78       0.00000           0.064273            1.74895
     79       0.00000           0.070413            1.91604
     80       0.00000           0.073725            2.00616
     81       0.00000           0.083719            2.27812
     82       0.00000           0.091721            2.49585
     83       0.00000           0.096398            2.62311
     84       0.00000           0.099468            2.70666
     85       0.00000           0.102274            2.78301
     86       0.00000           0.112480            3.06074
     87       0.00000           0.119576            3.25384
     88       0.00000           0.124006            3.37437
     89       0.00000           0.126080            3.43080
     90       0.00000           0.132046            3.59315
     91       0.00000           0.136539            3.71542
     92       0.00000           0.142590            3.88006
     93       0.00000           0.153728            4.18314
     94       0.00000           0.156767            4.26584
     95       0.00000           0.162875            4.43206
     96       0.00000           0.172903            4.70494
     97       0.00000           0.177589            4.83245
     98       0.00000           0.180221            4.90406
     99       0.00000           0.183529            4.99409
    100       0.00000           0.189837            5.16573
    101       0.00000           0.192612            5.24124
    102       0.00000           0.194479            5.29204
    103       0.00000           0.197967            5.38696
    104       0.00000           0.202772            5.51771
    105       0.00000           0.206422            5.61704
    106       0.00000           0.213832            5.81867
    107       0.00000           0.216668            5.89583
    108       0.00000           0.221109            6.01667
    109       0.00000           0.226262            6.15690
    110       0.00000           0.230355            6.26827
    111       0.00000           0.236779            6.44309
    112       0.00000           0.239211            6.50925
    113       0.00000           0.243637            6.62969
    114       0.00000           0.249003            6.77573
    115       0.00000           0.250775            6.82393
    116       0.00000           0.258604            7.03697
    117       0.00000           0.263303            7.16483
    118       0.00000           0.270889            7.37127
    119       0.00000           0.275962            7.50930
    120       0.00000           0.280396            7.62998
    121       0.00000           0.283422            7.71229
    122       0.00000           0.299117            8.13939
    123       0.00000           0.299857            8.15953
    124       0.00000           0.308308            8.38948
    125       0.00000           0.312940            8.51554
    126       0.00000           0.318496            8.66671
    127       0.00000           0.323222            8.79531
    128       0.00000           0.333018            9.06187
    129       0.00000           0.336972            9.16949

  Highest occupied state (VBM) at     -5.28368080 eV
  | Occupation number:      2.00000000

  Lowest unoccupied state (CBM) at    -1.69948316 eV
  | Occupation number:      0.00000000

  Overall HOMO-LUMO gap:      3.58419764 eV.

  Total energy components:
  | Sum of eigenvalues            :        -417.95262155 Ha      -11373.06948775 eV
  | XC energy correction          :        -100.76002683 Ha       -2741.81983232 eV
  | XC potential correction       :         129.53736190 Ha        3524.89096187 eV
  | Free-atom electrostatic energy:        -333.58144287 Ha       -9077.21290405 eV
  | Hartree energy correction     :         -19.96127582 Ha        -543.17395141 eV
  | MBD@rsSCS energy              :           0.00000000 Ha           0.00000000 eV
  | Entropy correction            :          -0.00000000 Ha          -0.00000000 eV
  | ---------------------------
  | Total energy                  :        -742.71800517 Ha      -20210.38521366 eV
  | Total energy, T -> 0          :        -742.71800517 Ha      -20210.38521366 eV  <-- do not rely on this value for anything but (periodic) metals
  | Electronic free energy        :        -742.71800517 Ha      -20210.38521366 eV

  Derived energy quantities:
  | Kinetic energy                :         744.07361148 Ha       20247.27313825 eV
  | Electrostatic energy          :       -1386.03158981 Ha      -37715.83851959 eV
  | Energy correction for multipole
  | error in Hartree potential    :          -0.04063845 Ha          -1.10582862 eV
  | Sum of eigenvalues per atom                           :        -355.40842149 eV
  | Total energy (T->0) per atom                          :        -631.57453793 eV  <-- do not rely on this value for anything but (periodic) metals
  | Electronic free energy per atom                       :        -631.57453793 eV

  Self-consistency convergence accuracy:
  | Change of charge density      :  0.9033E+00
  | Change of sum of eigenvalues  :  0.5430E+03 eV
  | Change of total energy        :  0.1546E+02 eV

  End self-consistency iteration #     1       :  max(cpu_time)    wall_clock(cpu1)
  | Time for this iteration                    :        1.604 s           1.599 s
[...]
   Multipole                     :  0.155287E+00 -0.511992E+00  0.188122E+00
   Pulay + GGA                   :  0.348728E+01 -0.121523E+02  0.333146E+01
   MBD@rsSCS                     :  0.116578E-01 -0.111527E-01  0.179533E-01
   ----------------------------------------------------------------
   Total forces(  20)            : -0.298701E-02 -0.153279E-01  0.145961E-01
  atom #   21
   Hellmann-Feynman              :  0.667955E-01  0.102470E-01 -0.144470E-01
   Ionic forces                  :  0.000000E+00  0.000000E+00  0.000000E+00
   Multipole                     : -0.147654E-01 -0.310173E-01 -0.878301E-02
   Pulay + GGA                   : -0.639150E-01  0.148072E-01  0.238786E-01
   MBD@rsSCS                     :  0.209178E-03 -0.732409E-02 -0.698594E-02
   ----------------------------------------------------------------
   Total forces(  21)            : -0.116757E-01 -0.132871E-01 -0.633733E-02
  atom #   22
   Hellmann-Feynman              : -0.435013E-01  0.479768E-01  0.276755E-01
   Ionic forces                  :  0.000000E+00  0.000000E+00  0.000000E+00
   Multipole                     :  0.207590E-02  0.952237E-02 -0.597299E-02
   Pulay + GGA                   :  0.467002E-01 -0.527535E-01 -0.157271E-01
   MBD@rsSCS                     :  0.172072E-01  0.108343E-02  0.175353E-02
   ----------------------------------------------------------------
   Total forces(  22)            :  0.224821E-01  0.582914E-02  0.772892E-02
  atom #   23
   Hellmann-Feynman              : -0.105013E+01 -0.273461E+00  0.196354E+00
   Ionic forces                  :  0.000000E+00  0.000000E+00  0.000000E+00
   Multipole                     :  0.230962E+00  0.397486E-01 -0.293687E-01
   Pulay + GGA                   :  0.807458E+00  0.236837E+00 -0.170515E+00
   MBD@rsSCS                     :  0.114469E-01  0.659289E-02 -0.403507E-02
   ----------------------------------------------------------------
   Total forces(  23)            : -0.267197E-03  0.971695E-02 -0.756508E-02
  atom #   24
   Hellmann-Feynman              :  0.243119E-01  0.351770E-01  0.179189E-01
   Ionic forces                  :  0.000000E+00  0.000000E+00  0.000000E+00
   Multipole                     : -0.240366E-01  0.152045E-01  0.225101E-01
   Pulay + GGA                   : -0.189149E-02 -0.517159E-01 -0.379329E-01
   MBD@rsSCS                     :  0.109180E-01  0.368509E-02 -0.513522E-02
   ----------------------------------------------------------------
   Total forces(  24)            :  0.930186E-02  0.235065E-02 -0.263914E-02
  atom #   25
   Hellmann-Feynman              :  0.464700E-01 -0.105818E-01 -0.183862E-01
   Ionic forces                  :  0.000000E+00  0.000000E+00  0.000000E+00
   Multipole                     :  0.165730E-02 -0.258167E-01  0.150363E-01
   Pulay + GGA                   : -0.398975E-01  0.421294E-01  0.608430E-02
   MBD@rsSCS                     :  0.110517E-01  0.568342E-02 -0.157299E-02
   ----------------------------------------------------------------
   Total forces(  25)            :  0.192816E-01  0.114142E-01  0.116136E-02
  atom #   26
   Hellmann-Feynman              :  0.414512E-01  0.205640E-01 -0.256623E-01
   Ionic forces                  :  0.000000E+00  0.000000E+00  0.000000E+00
   Multipole                     : -0.252671E-01  0.459718E-02 -0.251207E-01
   Pulay + GGA                   : -0.117383E-01 -0.202845E-01  0.528369E-01
   MBD@rsSCS                     :  0.955019E-02  0.618284E-02 -0.710473E-03
   ----------------------------------------------------------------
   Total forces(  26)            :  0.139960E-01  0.110595E-01  0.134336E-02
  atom #   27
   Hellmann-Feynman              :  0.399446E-01  0.359568E+00  0.108822E+01
   Ionic forces                  :  0.000000E+00  0.000000E+00  0.000000E+00
   Multipole                     : -0.123588E+00  0.174791E+00  0.235790E-01
   Pulay + GGA                   :  0.746916E-01 -0.547854E+00 -0.112177E+01
   MBD@rsSCS                     :  0.295109E-02  0.149871E-01  0.296120E-01
   ----------------------------------------------------------------
   Total forces(  27)            : -0.600082E-02  0.149134E-02  0.196398E-01
  atom #   28
   Hellmann-Feynman              :  0.213348E+00  0.664207E+00 -0.239548E+01
   Ionic forces                  :  0.000000E+00  0.000000E+00  0.000000E+00
   Multipole                     : -0.755707E-03 -0.196642E-01  0.208809E+00
   Pulay + GGA                   : -0.221003E+00 -0.644416E+00  0.216572E+01
   MBD@rsSCS                     :  0.363964E-02  0.769568E-02  0.156304E-01
   ----------------------------------------------------------------
   Total forces(  28)            : -0.477073E-02  0.782259E-02 -0.532042E-02
  atom #   29
   Hellmann-Feynman              : -0.664638E-02  0.315733E-01 -0.859280E-02
   Ionic forces                  :  0.000000E+00  0.000000E+00  0.000000E+00
   Multipole                     : -0.169839E-02  0.150134E-01 -0.366903E-01
   Pulay + GGA                   :  0.116004E-01 -0.539334E-01  0.325713E-01
   MBD@rsSCS                     :  0.253571E-03  0.487238E-02  0.699156E-02
   ----------------------------------------------------------------
   Total forces(  29)            :  0.350920E-02 -0.247437E-02 -0.572024E-02
  atom #   30
   Hellmann-Feynman              : -0.389184E-02  0.173222E-01  0.437027E-01
   Ionic forces                  :  0.000000E+00  0.000000E+00  0.000000E+00
   Multipole                     :  0.337493E-01  0.212453E-01 -0.337870E-02
   Pulay + GGA                   : -0.281327E-01 -0.420982E-01 -0.418372E-01
   MBD@rsSCS                     : -0.455806E-03  0.151919E-02  0.704403E-02
   ----------------------------------------------------------------
   Total forces(  30)            :  0.126898E-02 -0.201154E-02  0.553083E-02
  atom #   31
   Hellmann-Feynman              : -0.364088E-01  0.669355E-03  0.236572E-01
   Ionic forces                  :  0.000000E+00  0.000000E+00  0.000000E+00
   Multipole                     : -0.278065E-01  0.777572E-02 -0.131080E-01
   Pulay + GGA                   :  0.608549E-01 -0.154008E-01 -0.159675E-01
   MBD@rsSCS                     :  0.390578E-02  0.372391E-02  0.953055E-02
   ----------------------------------------------------------------
   Total forces(  31)            :  0.545446E-03 -0.323187E-02  0.411227E-02
  atom #   32
   Hellmann-Feynman              : -0.183851E-01 -0.175554E-01  0.597133E-01
   Ionic forces                  :  0.000000E+00  0.000000E+00  0.000000E+00
   Multipole                     :  0.156732E-01 -0.319500E-01 -0.357204E-01
   Pulay + GGA                   : -0.321728E-02  0.512271E-01 -0.275874E-01
   MBD@rsSCS                     :  0.129252E-02 -0.395519E-03  0.727532E-02
   ----------------------------------------------------------------
   Total forces(  32)            : -0.463670E-02  0.132623E-02  0.368080E-02

  Removing unitary transformations (pure translations, rotations) from forces on atoms.
  Atomic forces before filtering:
  | Net force on center of mass :   0.184139E-03 -0.811582E-03 -0.307818E-03 eV/A
  | Net torque on center of mass:   0.361276E-03  0.214190E-02 -0.652437E-03 eV
  Atomic forces after filtering:
  | Net force on center of mass :  -0.905969E-17 -0.679476E-17 -0.696899E-17 eV/A
  | Net torque on center of mass:  -0.132762E-16  0.516296E-16  0.317153E-16 eV

  Energy and forces in a compact form:
  | Total energy uncorrected      :         -0.202089562953629E+05 eV
  | Total energy corrected        :         -0.202089562953629E+05 eV  <-- do not rely on this value for anything but (periodic) metals
  | Electronic free energy        :         -0.202089562953629E+05 eV
  Total atomic forces (unitary forces cleaned) [eV/Ang]:
  |   1          0.183716617699362E-02          0.177537861722913E-02          0.446516875161144E-02
  |   2         -0.246679301013233E-03          0.298328569974789E-02          0.495884058240139E-02
  |   3         -0.212656687563563E-02         -0.513753735394793E-02         -0.363687413383483E-02
  |   4          0.439032479622414E-02          0.481272434049235E-02          0.881858892706860E-03
  |   5         -0.452556813523696E-02          0.496791846483379E-03          0.138028084486716E-01
  |   6         -0.105649211669235E-01          0.427782901822113E-02          0.213112276965218E-01
  |   7          0.103636713168971E-01         -0.158199996129078E-01         -0.279855300401157E-02
  |   8         -0.972170448189297E-02         -0.117796988555462E-01         -0.183407584369738E-01
  |   9         -0.397074027667843E-02         -0.155254187564493E-01         -0.330017608998835E-02
  |  10          0.121445349939101E-01         -0.728382377064423E-02         -0.288011932027447E-02
  |  11         -0.544355736776909E-02         -0.787096992918315E-02          0.377046512281007E-02
  |  12         -0.113581642963027E-01         -0.178943653235345E-01         -0.244959174415444E-01
  |  13         -0.158568723808376E-01          0.205840787310091E-01          0.539544997047710E-04
  |  14         -0.180936487849925E-01          0.674138437539150E-02         -0.120452500853714E-01
  |  15         -0.469713470135680E-02          0.129922950786377E-01         -0.589126076002770E-02
  |  16          0.215020085392129E-02          0.697476584024742E-02         -0.101938285113843E-01
  |  17          0.365267033249938E-02         -0.783824451878785E-02         -0.103953550038495E-01
  |  18          0.108352102934250E-01          0.355162860419523E-02         -0.427758166372798E-02
  |  19          0.111549150028811E-02          0.907353610687446E-02          0.188406321271966E-01
  |  20         -0.298375005309496E-02         -0.153133535508920E-01          0.145846164865048E-01
  |  21         -0.117011039663274E-01         -0.132596874289426E-01         -0.635316260393917E-02
  |  22          0.224733874582055E-01          0.585501828522859E-02          0.773542864095401E-02
  |  23         -0.276115431683325E-03          0.973663335596944E-02         -0.757960624985420E-02
  |  24          0.930161807404738E-02          0.236659980038878E-02         -0.265177164276479E-02
  |  25          0.192724677908455E-01          0.114309578889559E-01          0.113672229083303E-02
  |  26          0.139787304394077E-01          0.110833169194307E-01          0.132873184693184E-02
  |  27         -0.598779424645767E-02          0.150626279139193E-02          0.196456715760401E-01
  |  28         -0.474537812293731E-02          0.783175102395512E-02         -0.531338959327021E-02
  |  29          0.352106905756440E-02         -0.245699351580165E-02         -0.570812066164155E-02
  |  30          0.130184406326963E-02         -0.200693451731393E-02          0.553506998697702E-02
  |  31          0.573583790086562E-03         -0.322094660593675E-02          0.412975065357379E-02
  |  32         -0.461227134844530E-02          0.133373541603818E-02          0.368077759901907E-02

  ------------------------------------ 
  Start decomposition of the XC Energy 
  ------------------------------------ 
  Hartree-Fock part   :          0.000000000 Ha              0.000000000 eV
  ------------------------------------ 
  X Energy            :        -96.985780914 Ha          -2639.117375482 eV
  C Energy GGA        :         -3.868264373 Ha           -105.260829212 eV
  Total XC Energy     :       -100.854045287 Ha          -2744.378204694 eV
  LDA X and C from self-consistent density 
  X Energy LDA        :        -88.001400368 Ha          -2394.639941956 eV
  C Energy LDA        :         -7.531675262 Ha           -204.947311487 eV
  ------------------------------------ 
  End decomposition of the XC Energy 
  ------------------------------------ 
   
  ESP charge fitting starts.
  | Calculation :  00000001  of  00000001
  | Full density
  Computing multipole expansion for total density.
  Generating points for esp charges.
  Partitioning the integration grid into batches with parallel hashing+maxmin method.
  | Number of batches:     3929
  | Maximal batch size:     192
  | Minimal batch size:      55
  | Average batch size:     123.911
  | Standard deviation of batch sizes:      16.475

  Integration load balanced across    32 MPI tasks.
  Work distribution over tasks is as follows:
  Initializing partition tables, free-atom densities, potentials, etc. across the integration grid (initialize_grid_storage).
  | Original list of interatomic distances with          32 x         32 entries is created.
  | Net number of integration points:   486848
  | of which are non-zero points    :   486848
  Summing up potential from multipole expanded  density.
  Summing up the Hartree potential.
  Time summed over all CPUs for potential: real work        6.394 s, elapsed        6.780 s
  Fitting esp charges to potential.
  |
  | ESP charges fitted to the electrostatic potential :
  |
  | Atom         1: C, ESP charge:      0.35906706
  |
  | Atom         2: C, ESP charge:     -0.65221903
  |
  | Atom         3: O, ESP charge:      0.55600121
  |
  | Atom         4: H, ESP charge:     -0.11232265
  |
  | Atom         5: H, ESP charge:     -0.09926366
  |
  | Atom         6: H, ESP charge:     -0.08768182
  |
  | Atom         7: N, ESP charge:      0.59863271
  |
  | Atom         8: C, ESP charge:     -0.50670925
  |
  | Atom         9: C, ESP charge:     -0.42915400
  |
  | Atom        10: O, ESP charge:      0.48716388
  |
  | Atom        11: H, ESP charge:     -0.31288426
  |
  | Atom        12: H, ESP charge:      0.06496774
  |
  | Atom        13: C, ESP charge:      0.76079066
  |
  | Atom        14: H, ESP charge:     -0.19537091
  |
  | Atom        15: H, ESP charge:     -0.21238598
  |
  | Atom        16: H, ESP charge:     -0.19756437
  |
  | Atom        17: N, ESP charge:      0.55770146
  |
  | Atom        18: C, ESP charge:     -0.30334562
  |
  | Atom        19: C, ESP charge:     -0.40011366
  |
  | Atom        20: O, ESP charge:      0.48387244
  |
  | Atom        21: H, ESP charge:     -0.32651542
  |
  | Atom        22: H, ESP charge:      0.03767749
  |
  | Atom        23: C, ESP charge:      0.36287397
  |
  | Atom        24: H, ESP charge:     -0.07999561
  |
  | Atom        25: H, ESP charge:     -0.12348475
  |
  | Atom        26: H, ESP charge:     -0.11751430
  |
  | Atom        27: N, ESP charge:      0.20454937
  |
  | Atom        28: C, ESP charge:      0.33963978
  |
  | Atom        29: H, ESP charge:     -0.24024461
  |
  | Atom        30: H, ESP charge:     -0.12512860
  |
  | Atom        31: H, ESP charge:     -0.12108692
  |
  | Atom        32: H, ESP charge:     -0.16995237

  RRMS:       0.00088472

  Done.

------------------------------------------------------------------------------
  Final output of selected total energy values:

  The following output summarizes some interesting total energy values
  at the end of a run (AFTER all relaxation, molecular dynamics, etc.).

  | Total energy of the DFT / Hartree-Fock s.c.f. calculation      :         -20208.956295363 eV
  | Final zero-broadening corrected energy (caution - metals only) :         -20208.956295363 eV
  | For reference only, the value of 1 Hartree used in FHI-aims is :             27.211384500 eV

  Before relying on these values, please be sure to understand exactly which
  total energy value is referred to by a given number. Different objects may
  all carry the same name 'total energy'. Definitions:

  Total energy of the DFT / Hartree-Fock s.c.f. calculation:
  | Note that this energy does not include ANY quantities calculated after the
  | s.c.f. cycle, in particular not ANY RPA, MP2, etc. many-body perturbation terms.

  Final zero-broadening corrected energy:
  | For metallic systems only, a broadening of the occupation numbers at the Fermi
  | level can be extrapolated back to zero broadening by an electron-gas inspired
  | formula. For all systems that are not real metals, this value can be
  | meaningless and should be avoided.

------------------------------------------------------------------------------
  Methods described in the following list of references were used in this FHI-aims run.
  If you publish the results, please make sure to cite these reference if they apply.
  FHI-aims is an academic code, and for our developers (often, Ph.D. students
  and postdocs), scientific credit in the community is essential.
  Thank you for helping us!

  For any use of FHI-aims, please cite:

    Volker Blum, Ralf Gehrke, Felix Hanke, Paula Havu, Ville Havu,
    Xinguo Ren, Karsten Reuter, and Matthias Scheffler
    'Ab initio molecular simulations with numeric atom-centered orbitals'
    Computer Physics Communications 180, 2175-2196 (2009)
    http://dx.doi.org/10.1016/j.cpc.2009.06.022


  The scalable eigensolver library ELPA was used in your run.
  ELPA is essential especially for large systems on hundreds or thousands of CPUs.
  For ELPA, please cite:

    Andreas Marek, Volker Blum, Rainer Johanni, Ville Havu, Bruno Lang,
    Thomas Auckenthaler, Alexander Heinecke, Hans-Joachim Bungartz, and Hermann Lederer,
    'The ELPA Library - Scalable Parallel Eigenvalue Solutions
    for Electronic Structure Theory and Computational Science'
    The Journal of Physics: Condensed Matter 26, 213201 (2014).
    http://dx.doi.org/10.1088/0953-8984/26/21/213201


  For ELPA's efficient two-stage tridiagonalization used in your run, please cite:

    T. Auckenthaler, V. Blum, H.-J. Bungartz, T. Huckle, R. Johanni, L. Kraemer,
    B. Lang, H. Lederer, and P. R. Willems,
    'Parallel solution of partial symmetric eigenvalue problems'
    'from  electronic structure calculations'
    Parallel Computing 37, 783-794 (2011).
    http://dx.doi.org/10.1016/j.parco.2011.05.002


  For the real-space grid partitioning and parallelization used in this calculation, please cite:

    Ville Havu, Volker Blum, Paula Havu, and Matthias Scheffler,
    'Efficient O(N) integration for all-electron electronic structure calculation'
    'using numerically tabulated basis functions'
    Journal of Computational Physics 228, 8367-8379 (2009).
    http://dx.doi.org/10.1016/j.jcp.2009.08.008

  Of course, there are many other important community references, e.g., those cited in the
  above references. Our list is limited to references that describe implementations in the
  FHI-aims code. The reason is purely practical (length of this list) - please credit others as well.

------------------------------------------------------------
          Leaving FHI-aims.
          Date     :  20170309, Time     :  160730.580

          Computational steps:
          | Number of self-consistency cycles          :           14

          Detailed time accounting                     :  max(cpu_time)    wall_clock(cpu1)
          | Total time                                 :       34.282 s          34.470 s
          | Preparation time                           :        0.240 s           0.236 s
          | Grid partitioning                          :        0.268 s           0.263 s
          | Preloading free-atom quantities on grid    :        0.028 s           0.028 s
          | Free-atom superposition energy             :        0.044 s           0.040 s
          | Total time for integrations                :       11.629 s          11.606 s
          | Total time for solution of K.-S. equations :        0.528 s           0.496 s
          | Total time for density & force components  :       10.081 s          10.056 s
          | Total time for mixing                      :        0.124 s           0.108 s
          | Total time for Hartree multipole update    :        0.060 s           0.057 s
          | Total time for Hartree multipole sum       :        6.388 s           6.370 s
          | Total time for total energy evaluation     :        0.024 s           0.016 s

          Have a nice day.
------------------------------------------------------------
