  MPI-parallelism will be employed.
------------------------------------------------------------
          Invoking FHI-aims ...
          Version 150427
          Git rev.: 9dd23e0 BL: Update Version stamp
          Compiled on 2015/11/03 at 22:05:20 on host eos03.

          When using FHI-aims, please cite the following reference:

          Volker Blum, Ralf Gehrke, Felix Hanke, Paula Havu,
          Ville Havu, Xinguo Ren, Karsten Reuter, and Matthias Scheffler,
          'Ab Initio Molecular Simulations with Numeric Atom-Centered Orbitals: FHI-aims',
          Computer Physics Communications 180, 2175-2196 (2009)

          For any questions about FHI-aims, please visit the aimsclub website
          with its forums and wiki. Contributions to both the forums and the
          wiki are warmly encouraged - they are for you, and everyone is welcome there.

------------------------------------------------------------

  Date     :  20170309, Time     :  162025.254
  Time zero on CPU 1             :   0.296018000000000E+00  s.
  Internal wall clock time zero  :           258308425.254  s.

  Using       32 parallel tasks.
  Task        0 on host eos107 reporting.
  Task        1 on host eos107 reporting.
  Task        2 on host eos107 reporting.
  Task        3 on host eos107 reporting.
  Task        4 on host eos107 reporting.
  Task        5 on host eos107 reporting.
  Task        6 on host eos107 reporting.
  Task        7 on host eos107 reporting.
  Task        8 on host eos107 reporting.
  Task        9 on host eos107 reporting.
  Task       10 on host eos107 reporting.
  Task       11 on host eos107 reporting.
  Task       12 on host eos107 reporting.
  Task       13 on host eos107 reporting.
  Task       14 on host eos107 reporting.
  Task       15 on host eos107 reporting.
  Task       16 on host eos107 reporting.
  Task       17 on host eos107 reporting.
  Task       18 on host eos107 reporting.
  Task       19 on host eos107 reporting.
  Task       20 on host eos107 reporting.
  Task       21 on host eos107 reporting.
  Task       22 on host eos107 reporting.
  Task       23 on host eos107 reporting.
  Task       24 on host eos107 reporting.
  Task       25 on host eos107 reporting.
  Task       26 on host eos107 reporting.
  Task       27 on host eos107 reporting.
  Task       28 on host eos107 reporting.
  Task       29 on host eos107 reporting.
  Task       30 on host eos107 reporting.
  Task       31 on host eos107 reporting.

  Performing system and environment tests:
  | Environment variable OMP_NUM_THREADS correctly set to 1.
  | Stacksize not measured: no C compiler
  | Checking for scalapack...
  | Testing pdtran()...
  | All pdtran() tests passed.

  Obtaining array dimensions for all initial allocations:
  
  -----------------------------------------------------------------------
  Parsing control.in (first pass over file, find array dimensions only).
  The contents of control.in will be repeated verbatim below
  unless switched off by setting 'verbatim_writeout .false.' .
  in the first line of control.in .
  -----------------------------------------------------------------------
  
  #########################################################################################
  #
  # Input for System
  #
  #########################################################################################
  #
  #
  #  Physical model
  #
    xc                 pbe
    many_body_dispersion
    spin               none
    charge             0.
  #
  #  SCF convergence
  #
    occupation_type    gaussian 0.05
    mixer              pulay
      n_max_pulay        10
      charge_mix_param   0.5
    sc_accuracy_rho    1E-4
    sc_accuracy_eev    1E-2
    sc_accuracy_etot   1E-5
    sc_accuracy_forces 1E-4
    sc_iter_limit      1000
  #
  #  ESP charge
  #
    output esp
    esp equal_grid_n 80 80 80
  #
  #
  ################################################################################
  #
  #  FHI-aims code project
  # Volker Blum, Fritz Haber Institute Berlin, 2009
  #
  #  Suggested "tight" defaults for H atom (to be pasted into control.in file)
  #
  ################################################################################
    species        H
  #     global species definitions
      nucleus             1
      mass                1.00794
  #
      l_hartree           6
  #
      cut_pot             4.0  2.0  1.0
      basis_dep_cutoff    1e-4
  #
      radial_base         24 7.0
      radial_multiplier   2
      angular_grids       specified
        division   0.1930   50
        division   0.3175  110
        division   0.4293  194
        division   0.5066  302
        division   0.5626  434
  #      division   0.5922  590
  #      division   0.6227  974
  #      division   0.6868 1202
  #      outer_grid  770
        outer_grid  434
  ################################################################################
  #
  #  Definition of "minimal" basis
  #
  ################################################################################
  #     valence basis states
      valence      1  s   1.
  #     ion occupancy
      ion_occ      1  s   0.5
  ################################################################################
  #
  #  Suggested additional basis functions. For production calculations,
  #  uncomment them one after another (the most important basis functions are
  #  listed first).
  #
  #  Basis constructed for dimers: 0.5 A, 0.7 A, 1.0 A, 1.5 A, 2.5 A
  #
  ################################################################################
  #  "First tier" - improvements: -1014.90 meV to -62.69 meV
       hydro 2 s 2.1
       hydro 2 p 3.5
  #  "Second tier" - improvements: -12.89 meV to -1.83 meV
       hydro 1 s 0.85
       hydro 2 p 3.7
       hydro 2 s 1.2
       hydro 3 d 7
  #  "Third tier" - improvements: -0.25 meV to -0.12 meV
  #     hydro 4 f 11.2
  #     hydro 3 p 4.8
  #     hydro 4 d 9
  #     hydro 3 s 3.2
  ################################################################################
  #
  # For methods that use the localized form of the "resolution of identity" for
  # the two-electron Coulomb operator (RI_method LVL), particularly Hartree-Fock and
  # hybrid density functional calculations, the highest accuracy can be obtained by
  # uncommenting the line beginning with "for_aux"  below, thus adding an extra g radial
  # function to the construction of the product basis set for the expansion.
  # See Ref. New J. Phys. 17, 093020 (2015) for more information, particularly Figs. 1 and 6.
  #
  ################################################################################
  #
  # for_aux hydro 5 g 6.0
  ################################################################################
  #
  #  FHI-aims code project
  # Volker Blum, Fritz Haber Institute Berlin, 2009
  #
  #  Suggested "tight" defaults for C atom (to be pasted into control.in file)
  #
  ################################################################################
    species        C
  #     global species definitions
      nucleus             6
      mass                12.0107
  #
      l_hartree           6
  #
      cut_pot             4.0  2.0  1.0
      basis_dep_cutoff    1e-4
  #
      radial_base         34 7.0
      radial_multiplier   2
      angular_grids specified
        division   0.2187   50
        division   0.4416  110
        division   0.6335  194
        division   0.7727  302
        division   0.8772  434
  #      division   0.9334  590
  #      division   0.9924  770
  #      division   1.0230  974
  #      division   1.5020 1202
  #     outer_grid  974
        outer_grid  434
  ################################################################################
  #
  #  Definition of "minimal" basis
  #
  ################################################################################
  #     valence basis states
      valence      2  s   2.
      valence      2  p   2.
  #     ion occupancy
      ion_occ      2  s   1.
      ion_occ      2  p   1.
  ################################################################################
  #
  #  Suggested additional basis functions. For production calculations,
  #  uncomment them one after another (the most important basis functions are
  #  listed first).
  #
  #  Constructed for dimers: 1.0 A, 1.25 A, 1.5 A, 2.0 A, 3.0 A
  #
  ################################################################################
  #  "First tier" - improvements: -1214.57 meV to -155.61 meV
       hydro 2 p 1.7
       hydro 3 d 6
       hydro 2 s 4.9
  #  "Second tier" - improvements: -67.75 meV to -5.23 meV
       hydro 4 f 9.8
       hydro 3 p 5.2
       hydro 3 s 4.3
       hydro 5 g 14.4
       hydro 3 d 6.2
  #  "Third tier" - improvements: -2.43 meV to -0.60 meV
  #     hydro 2 p 5.6
  #     hydro 2 s 1.4
  #     hydro 3 d 4.9
  #     hydro 4 f 11.2
  #  "Fourth tier" - improvements: -0.39 meV to -0.18 meV
  #     hydro 2 p 2.1
  #     hydro 5 g 16.4
  #     hydro 4 d 13.2
  #     hydro 3 s 13.6
  #     hydro 4 f 17.6
  #  Further basis functions - improvements: -0.08 meV and below
  #     hydro 3 s 2
  #     hydro 3 p 6
  #     hydro 4 d 20
  ################################################################################
  #
  # For methods that use the localized form of the "resolution of identity" for
  # the two-electron Coulomb operator (RI_method LVL), particularly Hartree-Fock and
  # hybrid density functional calculations, the highest accuracy can be obtained by
  # uncommenting the line beginning with "for_aux"  below, thus adding an extra g radial
  # function to the construction of the product basis set for the expansion.
  # See Ref. New J. Phys. 17, 093020 (2015) for more information, particularly Figs. 1 and 6.
  #
  ################################################################################
  #
  # for_aux hydro 5 g 6.0
  ################################################################################
  #
  #  FHI-aims code project
  # Volker Blum, Fritz Haber Institute Berlin, 2009
  #
  #  Suggested "tight" defaults for N atom (to be pasted into control.in file)
  #
  ################################################################################
    species        N
  #     global species definitions
      nucleus             7
      mass                14.0067
  #
      l_hartree           6
  #
      cut_pot             4.0  2.0  1.0
      basis_dep_cutoff    1e-4
  #
      radial_base         35 7.0
      radial_multiplier   2
      angular_grids       specified
        division   0.1841   50
        division   0.3514  110
        division   0.5126  194
        division   0.6292  302
        division   0.6939  434
  #      division   0.7396  590
  #      division   0.7632  770
  #      division   0.8122  974
  #      division   1.1604 1202
  #      outer_grid  974
        outer_grid  434
  ################################################################################
  #
  #  Definition of "minimal" basis
  #
  ################################################################################
  #     valence basis states
      valence      2  s   2.
      valence      2  p   3.
  #     ion occupancy
      ion_occ      2  s   1.
      ion_occ      2  p   2.
  ################################################################################
  #
  #  Suggested additional basis functions. For production calculations,
  #  uncomment them one after another (the most important basis functions are
  #  listed first).
  #
  #  Constructed for dimers: 1.0 A, 1.1 A, 1.5 A, 2.0 A, 3.0 A
  #
  ################################################################################
  #  "First tier" - improvements: -1193.42 meV to -220.60 meV
       hydro 2 p 1.8
       hydro 3 d 6.8
       hydro 3 s 5.8
  #  "Second tier" - improvements: -80.21 meV to -6.86 meV
       hydro 4 f 10.8
       hydro 3 p 5.8
       hydro 1 s 0.8
       hydro 5 g 16
       hydro 3 d 4.9
  #  "Third tier" - improvements: -4.29 meV to -0.53 meV
  #     hydro 3 s 16
  #     ionic 2 p auto
  #     hydro 3 d 6.6
  #     hydro 4 f 11.6
  #  "Fourth tier" - improvements: -0.75 meV to -0.25 meV
  #     hydro 2 p 4.5
  #     hydro 2 s 2.4
  #     hydro 5 g 14.4
  #     hydro 4 d 14.4
  #     hydro 4 f 16.8
  # Further basis functions - -0.21 meV and below
  #     hydro 3 p 14.8
  #     hydro 3 s 4.4
  #     hydro 3 d 19.6
  #     hydro 5 g 12.8
  ################################################################################
  #
  # For methods that use the localized form of the "resolution of identity" for
  # the two-electron Coulomb operator (RI_method LVL), particularly Hartree-Fock and
  # hybrid density functional calculations, the highest accuracy can be obtained by
  # uncommenting the line beginning with "for_aux"  below, thus adding an extra g radial
  # function to the construction of the product basis set for the expansion.
  # See Ref. New J. Phys. 17, 093020 (2015) for more information, particularly Figs. 1 and 6.
  #
  ################################################################################
  #
  # for_aux hydro 5 g 6.0
  ################################################################################
  #
  #  FHI-aims code project
  # Volker Blum, Fritz Haber Institute Berlin, 2009
  #
  #  Suggested "tight" defaults for O atom (to be pasted into control.in file)
  #
  ################################################################################
    species        O
  #     global species definitions
      nucleus             8
      mass                15.9994
  #
      l_hartree           6
  #
      cut_pot             4.0  2.0  1.0
      basis_dep_cutoff    1e-4
  #
      radial_base         36 7.0
      radial_multiplier   2
       angular_grids specified
        division   0.1817   50
        division   0.3417  110
        division   0.4949  194
        division   0.6251  302
        division   0.8014  434
  #      division   0.8507  590
  #      division   0.8762  770
  #      division   0.9023  974
  #      division   1.2339 1202
  #      outer_grid 974
        outer_grid  434
  ################################################################################
  #
  #  Definition of "minimal" basis
  #
  ################################################################################
  #     valence basis states
      valence      2  s   2.
      valence      2  p   4.
  #     ion occupancy
      ion_occ      2  s   1.
      ion_occ      2  p   3.
  ################################################################################
  #
  #  Suggested additional basis functions. For production calculations,
  #  uncomment them one after another (the most important basis functions are
  #  listed first).
  #
  #  Constructed for dimers: 1.0 A, 1.208 A, 1.5 A, 2.0 A, 3.0 A
  #
  ################################################################################
  #  "First tier" - improvements: -699.05 meV to -159.38 meV
       hydro 2 p 1.8
       hydro 3 d 7.6
       hydro 3 s 6.4
  #  "Second tier" - improvements: -49.91 meV to -5.39 meV
       hydro 4 f 11.6
       hydro 3 p 6.2
       hydro 3 d 5.6
       hydro 5 g 17.6
       hydro 1 s 0.75
  #  "Third tier" - improvements: -2.83 meV to -0.50 meV
  #     ionic 2 p auto
  #     hydro 4 f 10.8
  #     hydro 4 d 4.7
  #     hydro 2 s 6.8
  #  "Fourth tier" - improvements: -0.40 meV to -0.12 meV
  #     hydro 3 p 5
  #     hydro 3 s 3.3
  #     hydro 5 g 15.6
  #     hydro 4 f 17.6
  #     hydro 4 d 14
  # Further basis functions - -0.08 meV and below
  #     hydro 3 s 2.1
  #     hydro 4 d 11.6
  #     hydro 3 p 16
  #     hydro 2 s 17.2
  ################################################################################
  #
  # For methods that use the localized form of the "resolution of identity" for
  # the two-electron Coulomb operator (RI_method LVL), particularly Hartree-Fock and
  # hybrid density functional calculations, the highest accuracy can be obtained by
  # uncommenting the line beginning with "for_aux"  below, thus adding an extra g radial
  # function to the construction of the product basis set for the expansion.
  # See Ref. New J. Phys. 17, 093020 (2015) for more information, particularly Figs. 1 and 6.
  #
  ################################################################################
  #
  # for_aux hydro 5 g 6.0
  
  -----------------------------------------------------------------------
  Completed first pass over input file control.in .
  -----------------------------------------------------------------------
  
  
  -----------------------------------------------------------------------
  Parsing geometry.in (first pass over file, find array dimensions only).
  The contents of geometry.in will be repeated verbatim below
  unless switched off by setting 'verbatim_writeout .false.' .
  in the first line of geometry.in .
  -----------------------------------------------------------------------
  
  #
  # This is the geometry file that corresponds to the current relaxation step.
  # If you do not want this file to be written, set the "write_restart_geometry" flag to .false.
  #
  atom      -0.00104129     -0.08231110      0.22907681 C
  atom       0.01642740      0.08988954      1.74016614 C
  atom       1.06517743      0.20403455      2.36861464 O
  atom       1.03518434     -0.14815719     -0.11244285 H
  atom      -0.47991232      0.77686881     -0.26318481 H
  atom      -0.53896270     -0.98811937     -0.08271663 H
  atom      -1.19679544      0.13295924      2.37823992 N
  atom      -2.52120174     -0.01808008      1.81022063 C
  atom      -3.49429602      0.77060896      2.70229857 C
  atom      -3.29788816      0.88561883      3.91742445 O
  atom      -1.16916228      0.28350601      3.38608924 H
  atom      -2.53293911      0.41374647      0.79807658 H
  atom      -2.98621695     -1.48785184      1.74556828 C
  atom      -3.98868308     -1.57362119      1.30397192 H
  atom      -3.01178568     -1.91648716      2.75555386 H
  atom      -2.28954250     -2.07958330      1.13916260 H
  atom      -4.58568308      1.27507148      2.07716843 N
  atom      -5.67021325      1.96332613      2.78695616 C
  atom      -6.64873120      0.91841108      3.39416617 C
  atom      -7.73476201      0.66220050      2.87959504 O
  atom      -4.71624806      1.09040072      1.08782253 H
  atom      -5.19117256      2.51143895      3.61121386 H
  atom      -6.38699749      2.92477716      1.85268397 C
  atom      -7.16229832      3.47388532      2.39917403 H
  atom      -6.89124500      2.38209645      1.04224451 H
  atom      -5.67896022      3.64777433      1.42812015 H
  atom      -6.16687056      0.32866093      4.52119797 N
  atom      -6.86081353     -0.75342088      5.19304766 C
  atom      -5.20092119      0.53967844      4.77468551 H
  atom      -6.88092601     -0.58219090      6.27706018 H
  atom      -6.38266068     -1.72559779      4.99882913 H
  atom      -7.88731873     -0.78707213      4.81334636 H
  
  -----------------------------------------------------------------------
  Completed first pass over input file geometry.in .
  -----------------------------------------------------------------------
  

  Basic array size parameters:
  | Number of species                 :        4
  | Number of atoms                   :       32
  | Max. basis fn. angular momentum   :        4
  | Max. atomic/ionic basis occupied n:        2
  | Max. number of basis fn. types    :        2
  | Max. radial fns per species/type  :        8
  | Max. logarithmic grid size        :     1301
  | Max. radial integration grid size :       73
  | Max. angular integration grid size:      434
  | Max. angular grid division number :        8
  | Radial grid for Hartree potential :     1301
  | Number of spin channels           :        1

------------------------------------------------------------
          Reading file control.in.
------------------------------------------------------------
  XC: Using PBE gradient-corrected functionals.
  Self-consistent screening and van der Waals energy (TS, TS+SCS,MBD) module
  Spin treatment: No spin polarisation.
  Charge =   0.000000E+00: Neutral system requested explicitly.
  Occupation type: Gaussian broadening, width =   0.500000E-01 eV.
  Using pulay charge density mixing.
  Pulay mixing - number of memorized iterations:   10
  Charge density mixing - mixing parameter:     0.5000
  Convergence accuracy of self-consistent charge density:  0.1000E-03
  Convergence accuracy of sum of eigenvalues:  0.1000E-01
  Convergence accuracy of total energy:  0.1000E-04
  Convergence accuracy of forces:  0.1000E-03
  Maximum number of s.-c. iterations  :  1000
  Fitting ESP-charges to Potential. 
  | Esp charge output options: 
  | ESP Grid method: 3, cubic grid
  | Number of points in x, ,y, z:  0080 0080 0080
  |
 
  Reading configuration options for species H                   .
  | Found nuclear charge :   1.0000
  | Found atomic mass :    1.00794000000000      amu
  | Found l_max for Hartree potential  :   6
  | Found cutoff potl. onset [A], width [A], scale factor :    4.00000    2.00000    1.00000
  | Threshold for basis-dependent cutoff potential is   0.100000E-03
  | Found data for basic radial integration grid :    24 points, outermost radius =    7.000 A
  | Found multiplier for basic radial grid :   2
  | Found angular grid specification: user-specified.
  | Specified grid contains     6 separate shells.
  | Check grid settings after all constraints further below.
  | Found free-atom valence shell :  1 s   1.000
  | No ionic wave fns used. Skipping ion_occ.
  | Found hydrogenic basis function :  2 s   2.100
  | Found hydrogenic basis function :  2 p   3.500
  | Found hydrogenic basis function :  1 s   0.850
  | Found hydrogenic basis function :  2 p   3.700
  | Found hydrogenic basis function :  2 s   1.200
  | Found hydrogenic basis function :  3 d   7.000
  Species H                   : Missing cutoff potential type.
  Defaulting to exp(1/x)/(1-x)^2 type cutoff potential.
  Species H : No 'logarithmic' tag. Using default grid for free atom:
  | Default logarithmic grid data [bohr] : 0.1000E-03 0.1000E+03 0.1012E+01
  Species H : On-site basis accuracy parameter (for Gram-Schmidt orthonormalisation) not specified.
  Using default value basis_acc =  0.1000000E-03.
  Species H                   : Using default innermost maximum threshold i_radial=  2 for radial functions.
  Species H                   : Default cutoff onset for free atom density etc. : 0.40000000E+01 AA.
  Species H                   : Basic radial grid will be enhanced according to radial_multiplier =   2, to contain    49 grid points.
 
  Reading configuration options for species C                   .
  | Found nuclear charge :   6.0000
  | Found atomic mass :    12.0107000000000      amu
  | Found l_max for Hartree potential  :   6
  | Found cutoff potl. onset [A], width [A], scale factor :    4.00000    2.00000    1.00000
  | Threshold for basis-dependent cutoff potential is   0.100000E-03
  | Found data for basic radial integration grid :    34 points, outermost radius =    7.000 A
  | Found multiplier for basic radial grid :   2
  | Found angular grid specification: user-specified.
  | Specified grid contains     6 separate shells.
  | Check grid settings after all constraints further below.
  | Found free-atom valence shell :  2 s   2.000
  | Found free-atom valence shell :  2 p   2.000
  | No ionic wave fns used. Skipping ion_occ.
  | No ionic wave fns used. Skipping ion_occ.
  | Found hydrogenic basis function :  2 p   1.700
  | Found hydrogenic basis function :  3 d   6.000
  | Found hydrogenic basis function :  2 s   4.900
  | Found hydrogenic basis function :  4 f   9.800
  | Found hydrogenic basis function :  3 p   5.200
  | Found hydrogenic basis function :  3 s   4.300
  | Found hydrogenic basis function :  5 g  14.400
  | Found hydrogenic basis function :  3 d   6.200
  Species C                   : Missing cutoff potential type.
  Defaulting to exp(1/x)/(1-x)^2 type cutoff potential.
  Species C : No 'logarithmic' tag. Using default grid for free atom:
  | Default logarithmic grid data [bohr] : 0.1000E-03 0.1000E+03 0.1012E+01
  Species C : On-site basis accuracy parameter (for Gram-Schmidt orthonormalisation) not specified.
  Using default value basis_acc =  0.1000000E-03.
  Species C                   : Using default innermost maximum threshold i_radial=  2 for radial functions.
  Species C                   : Default cutoff onset for free atom density etc. : 0.40000000E+01 AA.
  Species C                   : Basic radial grid will be enhanced according to radial_multiplier =   2, to contain    69 grid points.
 
  Reading configuration options for species N                   .
  | Found nuclear charge :   7.0000
  | Found atomic mass :    14.0067000000000      amu
  | Found l_max for Hartree potential  :   6
  | Found cutoff potl. onset [A], width [A], scale factor :    4.00000    2.00000    1.00000
  | Threshold for basis-dependent cutoff potential is   0.100000E-03
  | Found data for basic radial integration grid :    35 points, outermost radius =    7.000 A
  | Found multiplier for basic radial grid :   2
  | Found angular grid specification: user-specified.
  | Specified grid contains     6 separate shells.
  | Check grid settings after all constraints further below.
  | Found free-atom valence shell :  2 s   2.000
  | Found free-atom valence shell :  2 p   3.000
  | No ionic wave fns used. Skipping ion_occ.
  | No ionic wave fns used. Skipping ion_occ.
  | Found hydrogenic basis function :  2 p   1.800
  | Found hydrogenic basis function :  3 d   6.800
  | Found hydrogenic basis function :  3 s   5.800
  | Found hydrogenic basis function :  4 f  10.800
  | Found hydrogenic basis function :  3 p   5.800
  | Found hydrogenic basis function :  1 s   0.800
  | Found hydrogenic basis function :  5 g  16.000
  | Found hydrogenic basis function :  3 d   4.900
  Species N                   : Missing cutoff potential type.
  Defaulting to exp(1/x)/(1-x)^2 type cutoff potential.
  Species N : No 'logarithmic' tag. Using default grid for free atom:
  | Default logarithmic grid data [bohr] : 0.1000E-03 0.1000E+03 0.1012E+01
  Species N : On-site basis accuracy parameter (for Gram-Schmidt orthonormalisation) not specified.
  Using default value basis_acc =  0.1000000E-03.
  Species N                   : Using default innermost maximum threshold i_radial=  2 for radial functions.
  Species N                   : Default cutoff onset for free atom density etc. : 0.40000000E+01 AA.
  Species N                   : Basic radial grid will be enhanced according to radial_multiplier =   2, to contain    71 grid points.
 
  Reading configuration options for species O                   .
  | Found nuclear charge :   8.0000
  | Found atomic mass :    15.9994000000000      amu
  | Found l_max for Hartree potential  :   6
  | Found cutoff potl. onset [A], width [A], scale factor :    4.00000    2.00000    1.00000
  | Threshold for basis-dependent cutoff potential is   0.100000E-03
  | Found data for basic radial integration grid :    36 points, outermost radius =    7.000 A
  | Found multiplier for basic radial grid :   2
  | Found angular grid specification: user-specified.
  | Specified grid contains     6 separate shells.
  | Check grid settings after all constraints further below.
  | Found free-atom valence shell :  2 s   2.000
  | Found free-atom valence shell :  2 p   4.000
  | No ionic wave fns used. Skipping ion_occ.
  | No ionic wave fns used. Skipping ion_occ.
  | Found hydrogenic basis function :  2 p   1.800
  | Found hydrogenic basis function :  3 d   7.600
  | Found hydrogenic basis function :  3 s   6.400
  | Found hydrogenic basis function :  4 f  11.600
  | Found hydrogenic basis function :  3 p   6.200
  | Found hydrogenic basis function :  3 d   5.600
  | Found hydrogenic basis function :  5 g  17.600
  | Found hydrogenic basis function :  1 s   0.750
  Species O                   : Missing cutoff potential type.
  Defaulting to exp(1/x)/(1-x)^2 type cutoff potential.
  Species O : No 'logarithmic' tag. Using default grid for free atom:
  | Default logarithmic grid data [bohr] : 0.1000E-03 0.1000E+03 0.1012E+01
  Species O : On-site basis accuracy parameter (for Gram-Schmidt orthonormalisation) not specified.
  Using default value basis_acc =  0.1000000E-03.
  Species O                   : Using default innermost maximum threshold i_radial=  2 for radial functions.
  Species O                   : Default cutoff onset for free atom density etc. : 0.40000000E+01 AA.
  Species O                   : Basic radial grid will be enhanced according to radial_multiplier =   2, to contain    73 grid points.
 
  Finished reading input file 'control.in'. Consistency checks are next.
 
  Target number of points in a grid batch is not set. Defaulting to  100
  Method for grid partitioning is not set. Defaulting to parallel hash+maxmin partitioning.
  Batch size limit is not set. Defaulting to    200
  By default, will store active basis functions for each batch.
  If in need of memory, prune_basis_once .false. can be used to disable this option.
  communication_type for Hartree potential was not specified.
  Defaulting to calc_hartree .
  Pulay mixer: Number of initial linear mixing iterations not set.
  Defaulting to    0 iterations.
  Work space size for distributed Hartree potential not set.
  Defaulting to   0.200000E+03 MB.
  Algorithm-dependent basis array size parameters:
  | n_max_pulay                         :       10
  Geometry relaxation not requested: no relaxation will be performed.
  Handling of forces: Unphysical translation and rotation will be removed from forces.
  No accuracy limit for integral partition fn. given. Defaulting to  0.1000E-14.
  No threshold value for u(r) in integrations given. Defaulting to  0.1000E-05.
  No accuracy for occupation numbers given. Defaulting to  0.1000E-07.
  No threshold value for occupation numbers given. Defaulting to  0.0000E+00.
  No accuracy for fermi level given. Defaulting to  0.1000E-19.
  Maximum # of iterations to find E_F not set. Defaulting to  200.
  Preferred method for the eigenvalue solver ('KS_method') not specified in 'control.in'.
  Calling blacs routine to test compilation state
  Since scalapack support is enabled, defaulting to 'elpa'.
  Preferred method for the MBD eigenvalue solver ('mbd_eigensolver') not specified in 'control.in'.
  Calling blacs routine to test compilation state
  Since scalapack support is enabled, defaulting to 'scaLAPACK'.
  Will not use alltoall communication since running on < 1024 CPUs.
  Threshold for basis singularities not set.
  Default threshold for basis singularities:  0.1000E-04
  partition_type (choice of integration weights) for integrals was not specified.
  | Using a version of the partition function of Stratmann and coworkers ('stratmann_smoother').
  | At each grid point, the set of atoms used to build the partition table is smoothly restricted to
  | only those atoms whose free-atom density would be non-zero at that grid point.
  Partitioning for Hartree potential was not defined. Using partition_type for integrals.
  | Adjusted default value of keyword multip_moments_threshold to:       0.10000000E-11
  | This value may affect high angular momentum components of the Hartree potential in periodic systems.
  No q(lm)/r^(l+1) cutoff set for long-range Hartree potential.
  | Using default value of  0.100000E-09 .
  | Verify using the multipole_threshold keyword.
  Defaulting to new monopole extrapolation.
  Density update method: automatic selection selected.
------------------------------------------------------------


------------------------------------------------------------
          Reading geometry description geometry.in.
------------------------------------------------------------
 * Warning! You did not set the 'relativistic' flag in input file 'control.in'.
 * Since you are not attempting to treat any elements beyond Ca(Z=20), FHI-aims
 * will default to 'relativistic none'.
 * You must ensure that this is really what you want!!
 * For example, DO NOT compute total-energy differences between results from
 * different settings of the 'relativistic' flag.
  Input structure read successfully.
  The structure contains       32 atoms,  and a total of        116.000 electrons.

  Input geometry:
  | No unit cell requested.
  | Atomic structure:
  |       Atom                x [A]            y [A]            z [A]
  |    1: Species C             -0.001041        -0.082311         0.229077
  |    2: Species C              0.016427         0.089890         1.740166
  |    3: Species O              1.065177         0.204035         2.368615
  |    4: Species H              1.035184        -0.148157        -0.112443
  |    5: Species H             -0.479912         0.776869        -0.263185
  |    6: Species H             -0.538963        -0.988119        -0.082717
  |    7: Species N             -1.196795         0.132959         2.378240
  |    8: Species C             -2.521202        -0.018080         1.810221
  |    9: Species C             -3.494296         0.770609         2.702299
  |   10: Species O             -3.297888         0.885619         3.917424
  |   11: Species H             -1.169162         0.283506         3.386089
  |   12: Species H             -2.532939         0.413746         0.798077
  |   13: Species C             -2.986217        -1.487852         1.745568
  |   14: Species H             -3.988683        -1.573621         1.303972
  |   15: Species H             -3.011786        -1.916487         2.755554
  |   16: Species H             -2.289543        -2.079583         1.139163
  |   17: Species N             -4.585683         1.275071         2.077168
  |   18: Species C             -5.670213         1.963326         2.786956
  |   19: Species C             -6.648731         0.918411         3.394166
  |   20: Species O             -7.734762         0.662200         2.879595
  |   21: Species H             -4.716248         1.090401         1.087823
  |   22: Species H             -5.191173         2.511439         3.611214
  |   23: Species C             -6.386997         2.924777         1.852684
  |   24: Species H             -7.162298         3.473885         2.399174
  |   25: Species H             -6.891245         2.382096         1.042245
  |   26: Species H             -5.678960         3.647774         1.428120
  |   27: Species N             -6.166871         0.328661         4.521198
  |   28: Species C             -6.860814        -0.753421         5.193048
  |   29: Species H             -5.200921         0.539678         4.774686
  |   30: Species H             -6.880926        -0.582191         6.277060
  |   31: Species H             -6.382661        -1.725598         4.998829
  |   32: Species H             -7.887319        -0.787072         4.813346
  |

  | The smallest distance between any two atoms is         1.01486739 AA.
  |
  | The first atom of this pair is atom number                     17 .
  | The second atom of this pair is atom number                    21 .

  Number of empty states per atom not set in control.in - providing a guess from actual geometry.
  | Total number of empty states used during s.c.f. cycle:       71
  If you use a very high smearing, use empty_states (per atom!) in control.in to increase this value.

  Structure-dependent array size parameters: 
  | Maximum number of distinct radial functions  :       40
  | Maximum number of basis functions            :      840
  | Number of Kohn-Sham states (occupied + empty):      129
------------------------------------------------------------

------------------------------------------------------------
          Preparing all fixed parts of the calculation.
------------------------------------------------------------
  Determining machine precision:
    2.225073858507201E-308
  Setting up grids for atomic and cluster calculations.

  Creating wave function, potential, and density for free atoms.

  Species: H

  List of occupied orbitals and eigenvalues:
    n    l              occ      energy [Ha]    energy [eV]
    1    0           1.0000        -0.238382        -6.4867


  Species: C

  List of occupied orbitals and eigenvalues:
    n    l              occ      energy [Ha]    energy [eV]
    1    0           2.0000       -10.041232      -273.2358
    2    0           2.0000        -0.504327       -13.7234
    2    1           2.0000        -0.193750        -5.2722


  Species: N

  List of occupied orbitals and eigenvalues:
    n    l              occ      energy [Ha]    energy [eV]
    1    0           2.0000       -14.129007      -384.4699
    2    0           2.0000        -0.681802       -18.5528
    2    1           3.0000        -0.260543        -7.0897


  Species: O

  List of occupied orbitals and eigenvalues:
    n    l              occ      energy [Ha]    energy [eV]
    1    0           2.0000       -18.898576      -514.2564
    2    0           2.0000        -0.878795       -23.9132
    2    1           4.0000        -0.332075        -9.0362

  Creating fixed part of basis set: Ionic, confined, hydrogenic.
 
  H                    hydrogenic:
 
  List of hydrogenic basis orbitals: 
    n    l      effective z      eigenvalue [eV]  inner max. [A]     outer max. [A]     outer radius [A]   
    2    0         2.100000       -14.9965           0.193243           1.317208           5.373006
    2    1         3.500000       -41.6672           0.602369           0.602369           4.056063
    1    0         0.850000        -9.8292           0.624871           0.624871           5.373006
    2    1         3.700000       -46.5653           0.573622           0.573622           3.910002
    2    0         1.200000        -4.5995           0.334980           2.228188           5.505995
    3    2         7.000000       -74.0753           0.680699           0.680699           3.769201
 
 
  C                    hydrogenic:
 
  List of hydrogenic basis orbitals: 
    n    l      effective z      eigenvalue [eV]  inner max. [A]     outer max. [A]     outer radius [A]   
    2    1         1.700000        -9.8152           1.245706           1.245706           5.401630
    3    2         6.000000       -54.4226           0.792453           0.792453           4.178599
    2    0         4.900000       -81.6681           0.082559           0.562749           3.353238
    4    3         9.800000       -81.6681           0.863254           0.863254           4.028125
    3    1         5.200000       -40.8774           0.305389           1.215618           4.898362
    3    0         4.300000       -27.9508           0.091041           1.610311           5.401630
    5    4        14.400000      -112.8510           0.917666           0.917666           3.883070
    3    2         6.200000       -58.1113           0.763917           0.763917           4.077671
 
 
  N                    hydrogenic:
 
  List of hydrogenic basis orbitals: 
    n    l      effective z      eigenvalue [eV]  inner max. [A]     outer max. [A]     outer radius [A]   
    2    1         1.800000       -11.0118           1.177451           1.177451           5.427479
    3    2         6.800000       -69.9029           0.704619           0.704619           3.854246
    3    0         5.800000       -50.8549           0.067388           1.191934           4.629968
    4    3        10.800000       -99.1854           0.786571           0.786571           3.761152
    3    1         5.800000       -50.8549           0.274880           1.094176           4.518138
    1    0         0.800000        -8.7059           0.662839           0.662839           5.361532
    5    4        16.000000      -139.3222           0.825990           0.825990           3.625711
    3    2         4.900000       -36.2967           0.968267           0.968267           4.862000
 
 
  O                    hydrogenic:
 
  List of hydrogenic basis orbitals: 
    n    l      effective z      eigenvalue [eV]  inner max. [A]     outer max. [A]     outer radius [A]   
    2    1         1.800000       -11.0118           1.178562           1.178562           5.432602
    3    2         7.600000       -87.3182           0.624125           0.624125           3.541477
    3    0         6.400000       -61.9209           0.061167           1.081902           4.306578
    4    3        11.600000      -114.4238           0.731631           0.731631           3.585037
    3    1         6.200000       -58.1113           0.255680           1.030270           4.306578
    3    2         5.600000       -47.4081           0.847233           0.847233           4.413171
    5    4        17.600000      -168.5799           0.749740           0.749740           3.372465
    1    0         0.750000        -7.6499           0.705284           0.705284           5.366593
 

  Adding cutoff potential to free-atom effective potential.
  Creating atomic-like basis functions for current effective potential.

  Species H                   :

  List of atomic basis orbitals and eigenvalues:
    n    l      energy [Ha]    energy [eV]    outer radius [A]
    1    0        -0.238382        -6.4867       5.373006


  Species C                   :

  List of atomic basis orbitals and eigenvalues:
    n    l      energy [Ha]    energy [eV]    outer radius [A]
    1    0       -10.041232      -273.2358       1.934409
    2    0        -0.504327       -13.7234       5.271162
    2    1        -0.193750        -5.2722       5.401630


  Species N                   :

  List of atomic basis orbitals and eigenvalues:
    n    l      energy [Ha]    energy [eV]    outer radius [A]
    1    0       -14.129007      -384.4699       1.637919
    2    0        -0.681802       -18.5528       5.168461
    2    1        -0.260543        -7.0897       5.361532


  Species O                   :

  List of atomic basis orbitals and eigenvalues:
    n    l      energy [Ha]    energy [eV]    outer radius [A]
    1    0       -18.898576      -514.2564       1.415765
    2    0        -0.878795       -23.9132       5.048385
    2    1        -0.332075        -9.0362       5.301386

  Assembling full basis from fixed parts.
  | Species H :   atomic orbital   1 s accepted.
  | Species H :    hydro orbital   2 s accepted.
  | Species H :    hydro orbital   1 s accepted.
  | Species H :    hydro orbital   2 s accepted.
  | Species H :    hydro orbital   2 p accepted.
  | Species H :    hydro orbital   2 p accepted.
  | Species H :    hydro orbital   3 d accepted.
  | Species C :   atomic orbital   1 s accepted.
  | Species C :    hydro orbital   2 s accepted.
  | Species C :   atomic orbital   2 s accepted.
  | Species C :    hydro orbital   3 s accepted.
  | Species C :    hydro orbital   3 p accepted.
  | Species C :   atomic orbital   2 p accepted.
  | Species C :    hydro orbital   2 p accepted.
  | Species C :    hydro orbital   3 d accepted.
  | Species C :    hydro orbital   3 d accepted.
  | Species C :    hydro orbital   4 f accepted.
  | Species C :    hydro orbital   5 g accepted.
  | Species N :   atomic orbital   1 s accepted.
  | Species N :    hydro orbital   3 s accepted.
  | Species N :   atomic orbital   2 s accepted.
  | Species N :    hydro orbital   1 s accepted.
  | Species N :    hydro orbital   3 p accepted.
  | Species N :   atomic orbital   2 p accepted.
  | Species N :    hydro orbital   2 p accepted.
  | Species N :    hydro orbital   3 d accepted.
  | Species N :    hydro orbital   3 d accepted.
  | Species N :    hydro orbital   4 f accepted.
  | Species N :    hydro orbital   5 g accepted.
  | Species O :   atomic orbital   1 s accepted.
  | Species O :    hydro orbital   3 s accepted.
  | Species O :   atomic orbital   2 s accepted.
  | Species O :    hydro orbital   1 s accepted.
  | Species O :    hydro orbital   3 p accepted.
  | Species O :   atomic orbital   2 p accepted.
  | Species O :    hydro orbital   2 p accepted.
  | Species O :    hydro orbital   3 d accepted.
  | Species O :    hydro orbital   3 d accepted.
  | Species O :    hydro orbital   4 f accepted.
  | Species O :    hydro orbital   5 g accepted.
 
  Basis size parameters after reduction:
  | Total number of radial functions:       40
  | Total number of basis functions :      840
 
  Testing on-site integration grid accuracy.
  |  Species  Function  <phi|h_atom|phi> (log., in eV)  <phi|h_atom|phi> (rad., in eV)
           1        1                 -6.4869821809                 -6.4870742227
           1        2                 13.5044133542                 13.5041049177
           1        3                 32.7854418792                 32.7779770519
           1        4                 33.7995553101                 33.7152624900 ***
           1        5                 28.8558651799                 28.8558652046
           1        6                 59.6361831893                 59.6362535845
           1        7                 60.2733718049                 60.2733715484
           2        8               -273.2358277112               -273.2358261765
           2        9                -10.7624923123                -10.7625144012
           2       10                 17.4634079027                 17.4634252127
           2       11                 53.0363661832                 53.0366180446
           2       12                 15.0981351967                 15.0981317714
           2       13                  3.8522181899                  3.8522770949
           2       14                 12.1181835661                 12.1206868578
           2       15                 29.4320778347                 29.4320780959
           2       16                 54.8753777694                 54.8752901936
           2       17                 59.3533975461                 59.3533974833
           2       18                 93.4537491195                 93.4537492066
           3       19               -384.4698526889               -384.4698499465
           3       20                 12.5691022037                 12.5690910168
           3       21                -15.7489097511                -15.7489165588
           3       22                 27.0978334940                 27.0985589490
           3       23                 18.5949116966                 18.5949125562
           3       24                  1.2212828291                  1.2212855301
           3       25                 13.4428926797                 13.4434051125
           3       26                 35.9380614500                 35.9380613666
           3       27                 39.9231532098                 39.9231654735
           3       28                 72.9957335806                 72.9957336833
           3       29                116.4231321147                116.4231321431
           4       30               -514.2564144315               -514.2564099626
           4       31                 15.1726678541                 15.1726530877
           4       32                -21.5447785304                -21.5447874973
           4       33                 14.4944558459                 14.4944698284
           4       34                 20.8882174564                 20.8882178906
           4       35                 -2.4850315908                 -2.4850322289
           4       36                 13.8600193195                 13.8599826966
           4       37                 45.8243383616                 45.8243383675
           4       38                 52.1840606465                 52.1840622440
           4       39                 85.4074185510                 85.4074185819
           4       40                142.0983717302                142.0983717339
 * Note: Onsite integrals marked "***" above are less accurate than
 * onsite_accuracy_threshold =    0.03000 eV. Usually, this is harmless.
 * When in doubt, tighten the "radial" and/or "radial_multiplier" flags to check.

  Preparing densities etc. for the partition functions (integrals / Hartree potential).

  Preparations completed.
  max(cpu_time)          :      0.232 s.
  Wall clock time (cpu1) :      0.235 s.
------------------------------------------------------------

------------------------------------------------------------
          Begin self-consistency loop: Initialization.

          Date     :  20170309, Time     :  162026.285
------------------------------------------------------------

  Initializing index lists of integration centers etc. from given atomic structure:
  | Number of centers in hartree potential         :        32
  | Number of centers in hartree multipole         :        32
  | Number of centers in electron density summation:        32
  | Number of centers in basis integrals           :        32
  | Number of centers in integrals                 :        32
  | Number of centers in hamiltonian               :        32
  Using modified Scalapack Eigenvalue solver (ELPA)
  * Using 32 tasks for Scalapack Eigenvalue solver.
  Detailed listing of tasks and assigned k-points:
  (for non-periodic systems, the "k-point" denotes an internal label only)
   Task     0 k-point     1 on eos107
   Task     1 k-point     1 on eos107
   Task     2 k-point     1 on eos107
   Task     3 k-point     1 on eos107
   Task     4 k-point     1 on eos107
   Task     5 k-point     1 on eos107
   Task     6 k-point     1 on eos107
   Task     7 k-point     1 on eos107
   Task     8 k-point     1 on eos107
   Task     9 k-point     1 on eos107
   Task    10 k-point     1 on eos107
   Task    11 k-point     1 on eos107
   Task    12 k-point     1 on eos107
   Task    13 k-point     1 on eos107
   Task    14 k-point     1 on eos107
   Task    15 k-point     1 on eos107
   Task    16 k-point     1 on eos107
   Task    17 k-point     1 on eos107
   Task    18 k-point     1 on eos107
   Task    19 k-point     1 on eos107
   Task    20 k-point     1 on eos107
   Task    21 k-point     1 on eos107
   Task    22 k-point     1 on eos107
   Task    23 k-point     1 on eos107
   Task    24 k-point     1 on eos107
   Task    25 k-point     1 on eos107
   Task    26 k-point     1 on eos107
   Task    27 k-point     1 on eos107
   Task    28 k-point     1 on eos107
   Task    29 k-point     1 on eos107
   Task    30 k-point     1 on eos107
   Task    31 k-point     1 on eos107
  Tasks:    32 split into      8 X      4 BLACS grid
  Calculating blocksize based on n_basis =          840 max_nprow =            8 max_npcol =            4
  Scalapack blocksize set to:           16
  Required Scalapack workspace - INTEGER:            1 REAL:             1
  Partitioning the integration grid into batches with parallel hashing+maxmin method.
  | Number of batches:     4828
  | Maximal batch size:     200
  | Minimal batch size:      11
  | Average batch size:     109.306
  | Standard deviation of batch sizes:      32.777

  Integration load balanced across    32 MPI tasks.
  Work distribution over tasks is as follows:
  Task     0 has      16479 integration points.
  Task     1 has      16490 integration points.
  Task     2 has      16515 integration points.
  Task     3 has      16481 integration points.
  Task     4 has      16528 integration points.
  Task     5 has      16453 integration points.
  Task     6 has      16537 integration points.
  Task     7 has      16468 integration points.
  Task     8 has      16482 integration points.
  Task     9 has      16451 integration points.
  Task    10 has      16528 integration points.
  Task    11 has      16456 integration points.
  Task    12 has      16614 integration points.
  Task    13 has      16483 integration points.
  Task    14 has      16468 integration points.
  Task    15 has      16473 integration points.
  Task    16 has      16575 integration points.
  Task    17 has      16476 integration points.
  Task    18 has      16475 integration points.
  Task    19 has      16514 integration points.
  Task    20 has      16485 integration points.
  Task    21 has      16426 integration points.
  Task    22 has      16518 integration points.
  Task    23 has      16479 integration points.
  Task    24 has      16473 integration points.
  Task    25 has      16500 integration points.
  Task    26 has      16487 integration points.
  Task    27 has      16510 integration points.
  Task    28 has      16473 integration points.
  Task    29 has      16434 integration points.
  Task    30 has      16515 integration points.
  Task    31 has      16482 integration points.
  Initializing partition tables, free-atom densities, potentials, etc. across the integration grid (initialize_grid_storage).
  | initialize_grid_storage: Actual outermost partition radius vs. multipole_radius_free
  | (-- VB: in principle, multipole_radius_free should be larger, hence this output)
  | Species        1: Confinement radius =              6.000000000000000 AA, multipole_radius_free =              6.071692442739658 AA.
  | Species        1: outer_partition_radius set to              6.071692442739658 AA .
  | Species        2: Confinement radius =              6.000000000000000 AA, multipole_radius_free =              6.029870734432609 AA.
  | Species        2: outer_partition_radius set to              6.029870734432609 AA .
  | Species        3: Confinement radius =              6.000000000000000 AA, multipole_radius_free =              6.058726835495003 AA.
  | Species        3: outer_partition_radius set to              6.058726835495003 AA .
  | Species        4: Confinement radius =              6.000000000000000 AA, multipole_radius_free =              6.064445521808699 AA.
  | Species        4: outer_partition_radius set to              6.064445521808699 AA .
  | Original list of interatomic distances with          32 x         32 entries is created.
  | Net number of integration points:   527728
  | of which are non-zero points    :   416538
  Obtaining max. number of non-zero basis functions in each batch (get_n_compute_maxes).
  | Maximal number of non-zero basis functions:      699 in task     0
  | Maximal number of non-zero basis functions:      712 in task     1
  | Maximal number of non-zero basis functions:      707 in task     2
  | Maximal number of non-zero basis functions:      712 in task     3
  | Maximal number of non-zero basis functions:      702 in task     4
  | Maximal number of non-zero basis functions:      722 in task     5
  | Maximal number of non-zero basis functions:      704 in task     6
  | Maximal number of non-zero basis functions:      706 in task     7
  | Maximal number of non-zero basis functions:      703 in task     8
  | Maximal number of non-zero basis functions:      702 in task     9
  | Maximal number of non-zero basis functions:      732 in task    10
  | Maximal number of non-zero basis functions:      703 in task    11
  | Maximal number of non-zero basis functions:      708 in task    12
  | Maximal number of non-zero basis functions:      717 in task    13
  | Maximal number of non-zero basis functions:      701 in task    14
  | Maximal number of non-zero basis functions:      733 in task    15
  | Maximal number of non-zero basis functions:      710 in task    16
  | Maximal number of non-zero basis functions:      707 in task    17
  | Maximal number of non-zero basis functions:      707 in task    18
  | Maximal number of non-zero basis functions:      712 in task    19
  | Maximal number of non-zero basis functions:      707 in task    20
  | Maximal number of non-zero basis functions:      712 in task    21
  | Maximal number of non-zero basis functions:      705 in task    22
  | Maximal number of non-zero basis functions:      704 in task    23
  | Maximal number of non-zero basis functions:      714 in task    24
  | Maximal number of non-zero basis functions:      699 in task    25
  | Maximal number of non-zero basis functions:      701 in task    26
  | Maximal number of non-zero basis functions:      705 in task    27
  | Maximal number of non-zero basis functions:      700 in task    28
  | Maximal number of non-zero basis functions:      712 in task    29
  | Maximal number of non-zero basis functions:      712 in task    30
  | Maximal number of non-zero basis functions:      705 in task    31
  Selecting the method for density update.
  Loop over occupied states selected for charge density update.
  Integrating Hamiltonian matrix: batch-based integration.
  Time summed over all CPUs for integration: real work       19.290 s, elapsed       20.151 s
  Integrating overlap matrix.
  Time summed over all CPUs for integration: real work       11.444 s, elapsed       11.877 s
  Deallocating overlap matrix.

  Updating Kohn-Sham eigenvalues, eigenvectors, occupation numbers, and Fermi level.
  Solving generalized eigenproblem
  Solving real symmetric generalised eigenvalue problem by standard ScaLAPACK.
  Transforming overlap matrix with ScaLAPACK and checking for singularities.
  : Overlap matrix is nonsingular, using Cholesky decomposition
  | Lowest eigenvalue:  0.908218E-04
  Factoring overlap matrix with Cholesky decomposition
  Using Cholesky factor for transformation
  Using 1-stage real ELPA solver
  Determining occupation numbers for Kohn-Sham eigenstates.
  | Chemical potential (Fermi level) in eV                 : -.95879668E+01
  | Error in electron count due to remaining E_F inaccuracy: 0.00000000E+00
  | Maximum occupation number of highest empty state:  0.00E+00

  Writing Kohn-Sham eigenvalues.

  State    Occupation    Eigenvalue [Ha]    Eigenvalue [eV]
      1       2.00000         -18.974190         -516.31398
      2       2.00000         -18.974078         -516.31094
      3       2.00000         -18.973652         -516.29934
      4       2.00000         -14.255803         -387.92013
      5       2.00000         -14.255624         -387.91527
      6       2.00000         -14.254210         -387.87679
      7       2.00000         -10.172034         -276.79512
      8       2.00000         -10.170649         -276.75744
      9       2.00000         -10.169771         -276.73355
     10       2.00000         -10.166780         -276.65216
     11       2.00000         -10.149073         -276.17032
     12       2.00000         -10.148278         -276.14868
     13       2.00000         -10.135644         -275.80490
     14       2.00000         -10.135431         -275.79910
     15       2.00000         -10.134026         -275.76088
     16       2.00000          -1.133641          -30.84794
     17       2.00000          -1.130929          -30.77415
     18       2.00000          -1.127533          -30.68173
     19       2.00000          -1.020303          -27.76385
     20       2.00000          -1.014356          -27.60203
     21       2.00000          -1.009987          -27.48314
     22       2.00000          -0.890999          -24.24532
     23       2.00000          -0.868855          -23.64275
     24       2.00000          -0.846527          -23.03516
     25       2.00000          -0.823906          -22.41962
     26       2.00000          -0.777391          -21.15388
     27       2.00000          -0.748760          -20.37480
     28       2.00000          -0.701121          -19.07847
     29       2.00000          -0.685240          -18.64633
     30       2.00000          -0.681452          -18.54325
     31       2.00000          -0.648317          -17.64160
     32       2.00000          -0.626216          -17.04022
     33       2.00000          -0.610903          -16.62352
     34       2.00000          -0.599317          -16.30825
     35       2.00000          -0.595524          -16.20504
     36       2.00000          -0.581843          -15.83276
     37       2.00000          -0.571581          -15.55350
     38       2.00000          -0.560558          -15.25356
     39       2.00000          -0.558596          -15.20017
     40       2.00000          -0.555766          -15.12315
     41       2.00000          -0.546285          -14.86518
     42       2.00000          -0.539079          -14.66908
     43       2.00000          -0.534155          -14.53509
     44       2.00000          -0.527377          -14.35067
     45       2.00000          -0.518326          -14.10436
     46       2.00000          -0.514020          -13.98720
     47       2.00000          -0.511568          -13.92047
     48       2.00000          -0.503585          -13.70326
     49       2.00000          -0.493828          -13.43773
     50       2.00000          -0.487310          -13.26038
     51       2.00000          -0.482253          -13.12278
     52       2.00000          -0.479482          -13.04738
     53       2.00000          -0.417620          -11.36401
     54       2.00000          -0.405286          -11.02840
     55       2.00000          -0.400821          -10.90689
     56       2.00000          -0.387207          -10.53644
     57       2.00000          -0.384662          -10.46720
     58       2.00000          -0.377694          -10.27759
     59       0.00000          -0.170381           -4.63631
     60       0.00000          -0.158999           -4.32659
     61       0.00000          -0.149606           -4.07100
     62       0.00000          -0.080652           -2.19466
     63       0.00000          -0.063740           -1.73446
     64       0.00000          -0.056104           -1.52668
     65       0.00000          -0.048615           -1.32288
     66       0.00000          -0.046530           -1.26615
     67       0.00000          -0.039725           -1.08096
     68       0.00000          -0.034392           -0.93584
     69       0.00000          -0.029782           -0.81041
     70       0.00000          -0.026224           -0.71359
     71       0.00000          -0.016823           -0.45778
     72       0.00000          -0.012292           -0.33447
     73       0.00000          -0.011266           -0.30657
     74       0.00000          -0.007059           -0.19207
     75       0.00000          -0.004957           -0.13488
     76       0.00000           0.000117            0.00317
     77       0.00000           0.000811            0.02206
     78       0.00000           0.006212            0.16904
     79       0.00000           0.012339            0.33577
     80       0.00000           0.014216            0.38684
     81       0.00000           0.019777            0.53815
     82       0.00000           0.026432            0.71924
     83       0.00000           0.034172            0.92985
     84       0.00000           0.040786            1.10983
     85       0.00000           0.044052            1.19871
     86       0.00000           0.049471            1.34617
     87       0.00000           0.055464            1.50924
     88       0.00000           0.057097            1.55369
     89       0.00000           0.059495            1.61893
     90       0.00000           0.069922            1.90268
     91       0.00000           0.077400            2.10616
     92       0.00000           0.081170            2.20874
     93       0.00000           0.083772            2.27955
     94       0.00000           0.088888            2.41876
     95       0.00000           0.094800            2.57963
     96       0.00000           0.097359            2.64928
     97       0.00000           0.103913            2.82762
     98       0.00000           0.110963            3.01946
     99       0.00000           0.116498            3.17007
    100       0.00000           0.124333            3.38327
    101       0.00000           0.126782            3.44991
    102       0.00000           0.133133            3.62272
    103       0.00000           0.138188            3.76029
    104       0.00000           0.141031            3.83764
    105       0.00000           0.145751            3.96608
    106       0.00000           0.150278            4.08928
    107       0.00000           0.156234            4.25135
    108       0.00000           0.159406            4.33765
    109       0.00000           0.163287            4.44327
    110       0.00000           0.167091            4.54677
    111       0.00000           0.171639            4.67054
    112       0.00000           0.176242            4.79579
    113       0.00000           0.179373            4.88099
    114       0.00000           0.187754            5.10905
    115       0.00000           0.194045            5.28023
    116       0.00000           0.200850            5.46540
    117       0.00000           0.201391            5.48012
    118       0.00000           0.205910            5.60310
    119       0.00000           0.211072            5.74356
    120       0.00000           0.212997            5.79593
    121       0.00000           0.219220            5.96528
    122       0.00000           0.220833            6.00917
    123       0.00000           0.228346            6.21362
    124       0.00000           0.228702            6.22331
    125       0.00000           0.236273            6.42930
    126       0.00000           0.245090            6.66924
    127       0.00000           0.247253            6.72810
    128       0.00000           0.260774            7.09602
    129       0.00000           0.266850            7.26136

  Highest occupied state (VBM) at    -10.27758702 eV
  | Occupation number:      2.00000000

  Lowest unoccupied state (CBM) at    -4.63630788 eV
  | Occupation number:      0.00000000

  Overall HOMO-LUMO gap:      5.64127913 eV.
  Calculating total energy contributions from superposition of free atom densities.

  Total energy components:
  | Sum of eigenvalues            :        -437.89884447 Ha      -11915.83382905 eV
  | XC energy correction          :         -98.81678844 Ha       -2688.94162522 eV
  | XC potential correction       :         127.01605267 Ha        3456.28264696 eV
  | Free-atom electrostatic energy:        -333.59868345 Ha       -9077.68204410 eV
  | Hartree energy correction     :           0.00000000 Ha           0.00000000 eV
  | MBD@rsSCS energy              :           0.00000000 Ha           0.00000000 eV
  | Entropy correction            :          -0.00000000 Ha          -0.00000000 eV
  | ---------------------------
  | Total energy                  :        -743.29826369 Ha      -20226.17485141 eV
  | Total energy, T -> 0          :        -743.29826369 Ha      -20226.17485141 eV  <-- do not rely on this value for anything but (periodic) metals
  | Electronic free energy        :        -743.29826369 Ha      -20226.17485141 eV

  Derived energy quantities:
  | Kinetic energy                :         735.15081619 Ha       20004.47152486 eV
  | Electrostatic energy          :       -1379.63229144 Ha      -37541.70475105 eV
  | Energy correction for multipole
  | error in Hartree potential    :           0.00000000 Ha           0.00000000 eV
  | Sum of eigenvalues per atom                           :        -372.36980716 eV
  | Total energy (T->0) per atom                          :        -632.06796411 eV  <-- do not rely on this value for anything but (periodic) metals
  | Electronic free energy per atom                       :        -632.06796411 eV
  Initialize hartree_potential_storage
  Max. number of atoms included in rho_multipole:           32

  End scf initialization - timings             :  max(cpu_time)    wall_clock(cpu1)
  | Time for scf. initialization               :        1.808 s           1.804 s
  | Boundary condition initialization          :        0.004 s           0.000 s
  | Integration                                :        1.020 s           1.021 s
  | Solution of K.-S. eqns.                    :        0.076 s           0.075 s
  | Grid partitioning                          :        0.372 s           0.367 s
  | Preloading free-atom quantities on grid    :        0.032 s           0.027 s
  | Free-atom superposition energy             :        0.044 s           0.041 s
  | Total energy evaluation                    :        0.000 s           0.001 s
------------------------------------------------------------

------------------------------------------------------------
          Begin self-consistency iteration #    1

  Date     :  20170309, Time     :  162028.090
------------------------------------------------------------
  Evaluating new KS density.
  Integration grid: deviation in total charge (<rho> - N_e) =   1.421085E-14
  Pulay mixing of updated and previous charge densities.

  Evaluating partitioned Hartree potential by multipole expansion.
  | Analytical far-field extrapolation by fixed multipoles:
  | Hartree multipole sum: apparent total charge =  -0.234203E-04
  Summing up the Hartree potential.
  Time summed over all CPUs for potential: real work        9.438 s, elapsed        9.719 s
  | RMS charge density error from multipole expansion :   0.106512E-01

  Integrating Hamiltonian matrix: batch-based integration.
  Time summed over all CPUs for integration: real work       19.081 s, elapsed       20.047 s

  Updating Kohn-Sham eigenvalues, eigenvectors, occupation numbers, and Fermi level.
  Solving generalized eigenproblem
  Solving real symmetric generalised eigenvalue problem by standard ScaLAPACK.
  Using Cholesky factor for transformation
  Using 2-stage real ELPA solver
  K-Point:    1, Trafo times: 1-stage=     0.021 s, 2-stage=     0.019 s ==> Using 2-stage solver
  Determining occupation numbers for Kohn-Sham eigenstates.
  | Chemical potential (Fermi level) in eV                 : -.25192586E+01
  | Error in electron count due to remaining E_F inaccuracy: 0.00000000E+00
  | Maximum occupation number of highest empty state:  0.00E+00

  Writing Kohn-Sham eigenvalues.

  State    Occupation    Eigenvalue [Ha]    Eigenvalue [eV]
      1       2.00000         -18.652216         -507.55261
      2       2.00000         -18.614024         -506.51335
      3       2.00000         -18.600853         -506.15495
      4       2.00000         -14.018014         -381.44956
      5       2.00000         -13.980386         -380.42566
      6       2.00000         -13.977597         -380.34978
      7       2.00000         -10.077840         -274.23197
      8       2.00000         -10.046489         -273.37886
      9       2.00000         -10.046208         -273.37122
     10       2.00000          -9.979384         -271.55286
     11       2.00000          -9.967216         -271.22174
     12       2.00000          -9.877550         -268.78182
     13       2.00000          -9.848868         -268.00135
     14       2.00000          -9.848241         -267.98428
     15       2.00000          -9.838047         -267.70687
     16       2.00000          -0.988848          -26.90792
     17       2.00000          -0.954299          -25.96780
     18       2.00000          -0.948737          -25.81646
     19       2.00000          -0.888951          -24.18960
     20       2.00000          -0.862791          -23.47774
     21       2.00000          -0.853253          -23.21820
     22       2.00000          -0.754370          -20.52744
     23       2.00000          -0.720957          -19.61825
     24       2.00000          -0.696424          -18.95067
     25       2.00000          -0.672861          -18.30948
     26       2.00000          -0.641080          -17.44468
     27       2.00000          -0.610230          -16.60519
     28       2.00000          -0.586159          -15.95019
     29       2.00000          -0.558041          -15.18506
     30       2.00000          -0.548603          -14.92826
     31       2.00000          -0.523738          -14.25162
     32       2.00000          -0.492171          -13.39264
     33       2.00000          -0.484131          -13.17388
     34       2.00000          -0.468014          -12.73532
     35       2.00000          -0.444608          -12.09840
     36       2.00000          -0.441710          -12.01953
     37       2.00000          -0.431206          -11.73371
     38       2.00000          -0.424153          -11.54179
     39       2.00000          -0.420681          -11.44732
     40       2.00000          -0.397826          -10.82538
     41       2.00000          -0.396114          -10.77882
     42       2.00000          -0.392773          -10.68790
     43       2.00000          -0.386902          -10.52814
     44       2.00000          -0.379909          -10.33785
     45       2.00000          -0.376906          -10.25613
     46       2.00000          -0.367807          -10.00854
     47       2.00000          -0.365170           -9.93678
     48       2.00000          -0.360099           -9.79880
     49       2.00000          -0.352151           -9.58252
     50       2.00000          -0.349534           -9.51130
     51       2.00000          -0.344212           -9.36648
     52       2.00000          -0.335584           -9.13172
     53       2.00000          -0.265174           -7.21576
     54       2.00000          -0.245263           -6.67394
     55       2.00000          -0.226739           -6.16989
     56       2.00000          -0.222827           -6.06344
     57       2.00000          -0.208492           -5.67336
     58       2.00000          -0.200635           -5.45956
     59       0.00000          -0.068576           -1.86606
     60       0.00000          -0.049340           -1.34260
     61       0.00000          -0.037888           -1.03098
     62       0.00000          -0.035435           -0.96423
     63       0.00000          -0.022906           -0.62330
     64       0.00000          -0.015828           -0.43069
     65       0.00000          -0.010631           -0.28929
     66       0.00000           0.002706            0.07364
     67       0.00000           0.009877            0.26877
     68       0.00000           0.016518            0.44948
     69       0.00000           0.022586            0.61460
     70       0.00000           0.026706            0.72672
     71       0.00000           0.033609            0.91453
     72       0.00000           0.038043            1.03521
     73       0.00000           0.042514            1.15687
     74       0.00000           0.046131            1.25529
     75       0.00000           0.050059            1.36218
     76       0.00000           0.055495            1.51009
     77       0.00000           0.059211            1.61122
     78       0.00000           0.061698            1.67889
     79       0.00000           0.072940            1.98479
     80       0.00000           0.079266            2.15692
     81       0.00000           0.083872            2.28227
     82       0.00000           0.093802            2.55249
     83       0.00000           0.095599            2.60139
     84       0.00000           0.100473            2.73401
     85       0.00000           0.106907            2.90908
     86       0.00000           0.116054            3.15800
     87       0.00000           0.118777            3.23209
     88       0.00000           0.123427            3.35861
     89       0.00000           0.124218            3.38014
     90       0.00000           0.130480            3.55054
     91       0.00000           0.139522            3.79659
     92       0.00000           0.145218            3.95159
     93       0.00000           0.150196            4.08703
     94       0.00000           0.155503            4.23145
     95       0.00000           0.155821            4.24012
     96       0.00000           0.167303            4.55256
     97       0.00000           0.171332            4.66219
     98       0.00000           0.174669            4.75297
     99       0.00000           0.178456            4.85602
    100       0.00000           0.184023            5.00751
    101       0.00000           0.189561            5.15823
    102       0.00000           0.192671            5.24286
    103       0.00000           0.195924            5.33137
    104       0.00000           0.199940            5.44065
    105       0.00000           0.205415            5.58964
    106       0.00000           0.211491            5.75496
    107       0.00000           0.214680            5.84174
    108       0.00000           0.218070            5.93400
    109       0.00000           0.222793            6.06250
    110       0.00000           0.226422            6.16124
    111       0.00000           0.230522            6.27283
    112       0.00000           0.235140            6.39850
    113       0.00000           0.238142            6.48016
    114       0.00000           0.250347            6.81230
    115       0.00000           0.251274            6.83751
    116       0.00000           0.259577            7.06345
    117       0.00000           0.260759            7.09562
    118       0.00000           0.270484            7.36026
    119       0.00000           0.272592            7.41762
    120       0.00000           0.276979            7.53698
    121       0.00000           0.278783            7.58607
    122       0.00000           0.284697            7.74701
    123       0.00000           0.286789            7.80392
    124       0.00000           0.291536            7.93309
    125       0.00000           0.299614            8.15291
    126       0.00000           0.305910            8.32425
    127       0.00000           0.313309            8.52558
    128       0.00000           0.330814            9.00192
    129       0.00000           0.334903            9.11317

  Highest occupied state (VBM) at     -5.45956253 eV
  | Occupation number:      2.00000000

  Lowest unoccupied state (CBM) at    -1.86605672 eV
  | Occupation number:      0.00000000

  Overall HOMO-LUMO gap:      3.59350581 eV.

  Total energy components:
  | Sum of eigenvalues            :        -417.92613452 Ha      -11372.34873912 eV
  | XC energy correction          :        -100.75572214 Ha       -2741.70269585 eV
  | XC potential correction       :         129.53133067 Ha        3524.72684370 eV
  | Free-atom electrostatic energy:        -333.59868345 Ha       -9077.68204410 eV
  | Hartree energy correction     :         -19.97716703 Ha        -543.60637337 eV
  | MBD@rsSCS energy              :           0.00000000 Ha           0.00000000 eV
  | Entropy correction            :          -0.00000000 Ha          -0.00000000 eV
  | ---------------------------
  | Total energy                  :        -742.72637648 Ha      -20210.61300873 eV
  | Total energy, T -> 0          :        -742.72637648 Ha      -20210.61300873 eV  <-- do not rely on this value for anything but (periodic) metals
  | Electronic free energy        :        -742.72637648 Ha      -20210.61300873 eV

  Derived energy quantities:
  | Kinetic energy                :         744.04828269 Ha       20246.58390695 eV
  | Electrostatic energy          :       -1386.01893703 Ha      -37715.49421983 eV
  | Energy correction for multipole
  | error in Hartree potential    :          -0.04061235 Ha          -1.10511820 eV
  | Sum of eigenvalues per atom                           :        -355.38589810 eV
  | Total energy (T->0) per atom                          :        -631.58165652 eV  <-- do not rely on this value for anything but (periodic) metals
  | Electronic free energy per atom                       :        -631.58165652 eV

  Self-consistency convergence accuracy:
  | Change of charge density      :  0.9019E+00
  | Change of sum of eigenvalues  :  0.5435E+03 eV
  | Change of total energy        :  0.1556E+02 eV

  End self-consistency iteration #     1       :  max(cpu_time)    wall_clock(cpu1)
  | Time for this iteration                    :        1.444 s           1.441 s
[...]
   Multipole                     :  0.531755E+00  0.780292E-01  0.249864E+00
   Pulay + GGA                   :  0.116206E+02  0.238501E+01  0.579014E+01
   MBD@rsSCS                     :  0.197262E-01  0.762311E-02  0.180820E-02
   ----------------------------------------------------------------
   Total forces(  20)            :  0.910838E-02  0.148296E-01 -0.111366E-02
  atom #   21
   Hellmann-Feynman              : -0.261821E-02  0.826218E-02  0.394682E-01
   Ionic forces                  :  0.000000E+00  0.000000E+00  0.000000E+00
   Multipole                     : -0.712636E-02  0.122787E-01  0.160215E-01
   Pulay + GGA                   :  0.346824E-02 -0.129826E-01 -0.627358E-01
   MBD@rsSCS                     : -0.120451E-02 -0.228300E-02  0.242641E-02
   ----------------------------------------------------------------
   Total forces(  21)            : -0.748083E-02  0.527534E-02 -0.481975E-02
  atom #   22
   Hellmann-Feynman              :  0.377269E-02 -0.306547E-01 -0.481427E-01
   Ionic forces                  :  0.000000E+00  0.000000E+00  0.000000E+00
   Multipole                     : -0.215432E-01  0.337462E-02  0.129366E-02
   Pulay + GGA                   :  0.199675E-01  0.285929E-01  0.474924E-01
   MBD@rsSCS                     :  0.102716E-02 -0.659572E-02 -0.492298E-03
   ----------------------------------------------------------------
   Total forces(  22)            :  0.322417E-02 -0.528296E-02  0.151160E-03
  atom #   23
   Hellmann-Feynman              : -0.513934E+00  0.604898E+00 -0.726959E+00
   Ionic forces                  :  0.000000E+00  0.000000E+00  0.000000E+00
   Multipole                     :  0.129905E+00 -0.919544E-01  0.226656E+00
   Pulay + GGA                   :  0.375157E+00 -0.508662E+00  0.493286E+00
   MBD@rsSCS                     :  0.473057E-02 -0.875290E-02  0.128863E-02
   ----------------------------------------------------------------
   Total forces(  23)            : -0.414149E-02 -0.447200E-02 -0.572825E-02
  atom #   24
   Hellmann-Feynman              :  0.301489E-01 -0.607430E-01  0.374633E-02
   Ionic forces                  :  0.000000E+00  0.000000E+00  0.000000E+00
   Multipole                     :  0.506077E-02  0.852326E-02 -0.340885E-01
   Pulay + GGA                   : -0.350877E-01  0.464505E-01  0.355329E-01
   MBD@rsSCS                     :  0.311492E-02 -0.866215E-02  0.479944E-02
   ----------------------------------------------------------------
   Total forces(  24)            :  0.323693E-02 -0.144313E-01  0.999016E-02
  atom #   25
   Hellmann-Feynman              : -0.155501E-01 -0.923692E-02  0.709850E-01
   Ionic forces                  :  0.000000E+00  0.000000E+00  0.000000E+00
   Multipole                     :  0.120534E-01  0.238185E-01  0.154491E-02
   Pulay + GGA                   :  0.763135E-02 -0.259161E-01 -0.642748E-01
   MBD@rsSCS                     :  0.590689E-02 -0.877646E-02  0.680677E-02
   ----------------------------------------------------------------
   Total forces(  25)            :  0.100416E-01 -0.201110E-01  0.150619E-01
  atom #   26
   Hellmann-Feynman              :  0.390392E-03 -0.333486E-01  0.446354E-01
   Ionic forces                  :  0.000000E+00  0.000000E+00  0.000000E+00
   Multipole                     : -0.342261E-01 -0.633249E-03 -0.162416E-01
   Pulay + GGA                   :  0.374857E-01  0.334637E-01 -0.265727E-01
   MBD@rsSCS                     :  0.522560E-02 -0.888544E-02  0.442872E-02
   ----------------------------------------------------------------
   Total forces(  26)            :  0.887560E-02 -0.940353E-02  0.624977E-02
  atom #   27
   Hellmann-Feynman              :  0.969689E-01  0.210748E+01  0.317973E+00
   Ionic forces                  :  0.000000E+00  0.000000E+00  0.000000E+00
   Multipole                     : -0.662773E-01  0.199132E-01 -0.180430E+00
   Pulay + GGA                   : -0.141373E-01 -0.212454E+01 -0.141787E+00
   MBD@rsSCS                     :  0.167845E-01  0.122010E-01 -0.215014E-01
   ----------------------------------------------------------------
   Total forces(  27)            :  0.333387E-01  0.150553E-01 -0.257448E-01
  atom #   28
   Hellmann-Feynman              : -0.137919E+01 -0.158077E+01  0.947522E+00
   Ionic forces                  :  0.000000E+00  0.000000E+00  0.000000E+00
   Multipole                     :  0.839842E-01  0.128815E+00 -0.526635E-01
   Pulay + GGA                   :  0.128131E+01  0.144641E+01 -0.888572E+00
   MBD@rsSCS                     :  0.362128E-02  0.662586E-02 -0.895929E-02
   ----------------------------------------------------------------
   Total forces(  28)            : -0.102747E-01  0.108176E-02 -0.267258E-02
  atom #   29
   Hellmann-Feynman              : -0.153823E-01  0.258480E-02 -0.332506E-01
   Ionic forces                  :  0.000000E+00  0.000000E+00  0.000000E+00
   Multipole                     : -0.329785E-01 -0.244449E-01  0.292968E-01
   Pulay + GGA                   :  0.480270E-01  0.222953E-01  0.439613E-02
   MBD@rsSCS                     : -0.325947E-02 -0.704901E-03 -0.865758E-02
   ----------------------------------------------------------------
   Total forces(  29)            : -0.359330E-02 -0.269713E-03 -0.821529E-02
  atom #   30
   Hellmann-Feynman              :  0.158862E-01  0.259026E-01 -0.461867E-01
   Ionic forces                  :  0.000000E+00  0.000000E+00  0.000000E+00
   Multipole                     : -0.980009E-02 -0.262228E-01 -0.188314E-01
   Pulay + GGA                   : -0.337557E-02 -0.638435E-03  0.686052E-01
   MBD@rsSCS                     :  0.254703E-02  0.400603E-02 -0.478866E-02
   ----------------------------------------------------------------
   Total forces(  30)            :  0.525757E-02  0.304742E-02 -0.120147E-02
  atom #   31
   Hellmann-Feynman              : -0.831928E-03  0.514165E-01 -0.164726E-01
   Ionic forces                  :  0.000000E+00  0.000000E+00  0.000000E+00
   Multipole                     : -0.227641E-01  0.147250E-01  0.233047E-01
   Pulay + GGA                   :  0.244272E-01 -0.663588E-01 -0.281160E-02
   MBD@rsSCS                     :  0.355278E-02  0.523392E-02 -0.520345E-02
   ----------------------------------------------------------------
   Total forces(  31)            :  0.438395E-02  0.501665E-02 -0.118299E-02
  atom #   32
   Hellmann-Feynman              :  0.387850E-01  0.498875E-01 -0.352405E-01
   Ionic forces                  :  0.000000E+00  0.000000E+00  0.000000E+00
   Multipole                     :  0.177020E-01 -0.330495E-01  0.340392E-01
   Pulay + GGA                   : -0.596670E-01 -0.164138E-01 -0.846815E-03
   MBD@rsSCS                     :  0.500583E-02  0.410463E-02 -0.303248E-02
   ----------------------------------------------------------------
   Total forces(  32)            :  0.182579E-02  0.452879E-02 -0.508061E-02

  Removing unitary transformations (pure translations, rotations) from forces on atoms.
  Atomic forces before filtering:
  | Net force on center of mass :  -0.299836E-03 -0.315449E-03 -0.538203E-03 eV/A
  | Net torque on center of mass:   0.826351E-03  0.384349E-02 -0.646455E-04 eV
  Atomic forces after filtering:
  | Net force on center of mass :   0.627209E-17  0.139380E-17 -0.146349E-16 eV/A
  | Net torque on center of mass:   0.442540E-17 -0.413037E-16  0.578989E-16 eV

  Energy and forces in a compact form:
  | Total energy uncorrected      :         -0.202092256913137E+05 eV
  | Total energy corrected        :         -0.202092256913137E+05 eV  <-- do not rely on this value for anything but (periodic) metals
  | Electronic free energy        :         -0.202092256913137E+05 eV
  Total atomic forces (unitary forces cleaned) [eV/Ang]:
  |   1         -0.127998402799658E-01          0.193887384766714E-02          0.146383911120191E-02
  |   2         -0.140754785759789E-01         -0.125608819944892E-02          0.155541607248026E-02
  |   3          0.225487505621134E-02         -0.688535965261363E-03         -0.237655644793839E-02
  |   4          0.339659764826577E-02          0.162587391122453E-02          0.413890123617268E-02
  |   5         -0.127132042090575E-01         -0.258708510077372E-02          0.151320700687146E-01
  |   6         -0.229407697146958E-01          0.424247773077998E-02          0.220560639797418E-01
  |   7         -0.271475148498099E-02         -0.159582320944749E-01         -0.208133898819878E-01
  |   8          0.172407756500536E-01         -0.493871297246896E-02         -0.132565211567684E-01
  |   9         -0.365425490314976E-01         -0.631134739291415E-02          0.207011488108965E-01
  |  10         -0.168553685290083E-01         -0.509168064156452E-02         -0.911247921941472E-02
  |  11         -0.681290441693576E-02         -0.186554891836382E-02          0.150763573093294E-02
  |  12          0.122731531575216E-01         -0.929594415876024E-02         -0.137890888384526E-01
  |  13          0.775714845170914E-02          0.219445624759658E-01          0.953935543257239E-02
  |  14         -0.190644020757782E-02          0.152431710768292E-01         -0.522341323968559E-03
  |  15          0.535986337924900E-02          0.100279172024742E-01          0.573569415956114E-02
  |  16          0.141713619661920E-01          0.138641991794517E-01         -0.527059194735897E-02
  |  17         -0.651512313826010E-02         -0.155824955926764E-01          0.116781372315854E-01
  |  18          0.516052679263585E-02         -0.130672982294260E-02          0.541166929991671E-02
  |  19          0.125005448608532E-01          0.100881736953912E-02         -0.928658023279393E-02
  |  20          0.911254111591909E-02          0.148354204960802E-01         -0.114254724666992E-02
  |  21         -0.745616114665354E-02          0.527987956345851E-02         -0.481438134018166E-02
  |  22          0.321711978317747E-02         -0.527139520594960E-02          0.146605309300912E-03
  |  23         -0.412840018488861E-02         -0.446747195919390E-02         -0.574814762947532E-02
  |  24          0.324281506630396E-02         -0.144261897277295E-01          0.995945458436884E-02
  |  25          0.100649458950555E-01         -0.201096296563395E-01          0.150377007163549E-01
  |  26          0.889268002923590E-02         -0.939930386804189E-02          0.623601142549784E-02
  |  27          0.333240399462798E-01          0.150682696990173E-01         -0.257542098117897E-01
  |  28         -0.102958499188593E-01          0.109580213067008E-02         -0.268685608905858E-02
  |  29         -0.361129323941501E-02         -0.254621226188580E-03         -0.821395796859912E-02
  |  30          0.522345533649318E-02          0.306473799017134E-02         -0.121650418249726E-02
  |  31          0.436648796719453E-02          0.503077018441579E-02         -0.118867434147804E-02
  |  32          0.180920197542404E-02          0.454023964534762E-02         -0.510687551086573E-02

  ------------------------------------ 
  Start decomposition of the XC Energy 
  ------------------------------------ 
  Hartree-Fock part   :          0.000000000 Ha              0.000000000 eV
  ------------------------------------ 
  X Energy            :        -96.989122842 Ha          -2639.208313975 eV
  C Energy GGA        :         -3.868404958 Ha           -105.264654709 eV
  Total XC Energy     :       -100.857527800 Ha          -2744.472968684 eV
  LDA X and C from self-consistent density 
  X Energy LDA        :        -88.005001404 Ha          -2394.737931139 eV
  C Energy LDA        :         -7.531834200 Ha           -204.951636395 eV
  ------------------------------------ 
  End decomposition of the XC Energy 
  ------------------------------------ 
   
  ESP charge fitting starts.
  | Calculation :  00000001  of  00000001
  | Full density
  Computing multipole expansion for total density.
  Generating points for esp charges.
  Partitioning the integration grid into batches with parallel hashing+maxmin method.
  | Number of batches:     3858
  | Maximal batch size:     197
  | Minimal batch size:      51
  | Average batch size:     126.321
  | Standard deviation of batch sizes:      17.787

  Integration load balanced across    32 MPI tasks.
  Work distribution over tasks is as follows:
  Initializing partition tables, free-atom densities, potentials, etc. across the integration grid (initialize_grid_storage).
  | Original list of interatomic distances with          32 x         32 entries is created.
  | Net number of integration points:   487345
  | of which are non-zero points    :   487345
  Summing up potential from multipole expanded  density.
  Summing up the Hartree potential.
  Time summed over all CPUs for potential: real work        6.350 s, elapsed        6.760 s
  Fitting esp charges to potential.
  |
  | ESP charges fitted to the electrostatic potential :
  |
  | Atom         1: C, ESP charge:      0.66390613
  |
  | Atom         2: C, ESP charge:     -0.80530727
  |
  | Atom         3: O, ESP charge:      0.56394826
  |
  | Atom         4: H, ESP charge:     -0.17661589
  |
  | Atom         5: H, ESP charge:     -0.19130509
  |
  | Atom         6: H, ESP charge:     -0.19233042
  |
  | Atom         7: N, ESP charge:      0.76676163
  |
  | Atom         8: C, ESP charge:     -0.39255303
  |
  | Atom         9: C, ESP charge:     -0.59770198
  |
  | Atom        10: O, ESP charge:      0.52545830
  |
  | Atom        11: H, ESP charge:     -0.32462004
  |
  | Atom        12: H, ESP charge:      0.11215949
  |
  | Atom        13: C, ESP charge:      0.17080859
  |
  | Atom        14: H, ESP charge:     -0.01431990
  |
  | Atom        15: H, ESP charge:     -0.07071552
  |
  | Atom        16: H, ESP charge:     -0.05406735
  |
  | Atom        17: N, ESP charge:      0.55058245
  |
  | Atom        18: C, ESP charge:     -0.25945742
  |
  | Atom        19: C, ESP charge:     -0.44013377
  |
  | Atom        20: O, ESP charge:      0.50152590
  |
  | Atom        21: H, ESP charge:     -0.33187237
  |
  | Atom        22: H, ESP charge:      0.01524961
  |
  | Atom        23: C, ESP charge:      0.21072130
  |
  | Atom        24: H, ESP charge:     -0.08431307
  |
  | Atom        25: H, ESP charge:     -0.04778906
  |
  | Atom        26: H, ESP charge:     -0.05530694
  |
  | Atom        27: N, ESP charge:      0.33441016
  |
  | Atom        28: C, ESP charge:      0.35530584
  |
  | Atom        29: H, ESP charge:     -0.28923897
  |
  | Atom        30: H, ESP charge:     -0.14869983
  |
  | Atom        31: H, ESP charge:     -0.12492042
  |
  | Atom        32: H, ESP charge:     -0.16956931

  RRMS:       0.00526340

  Done.

------------------------------------------------------------------------------
  Final output of selected total energy values:

  The following output summarizes some interesting total energy values
  at the end of a run (AFTER all relaxation, molecular dynamics, etc.).

  | Total energy of the DFT / Hartree-Fock s.c.f. calculation      :         -20209.225691314 eV
  | Final zero-broadening corrected energy (caution - metals only) :         -20209.225691314 eV
  | For reference only, the value of 1 Hartree used in FHI-aims is :             27.211384500 eV

  Before relying on these values, please be sure to understand exactly which
  total energy value is referred to by a given number. Different objects may
  all carry the same name 'total energy'. Definitions:

  Total energy of the DFT / Hartree-Fock s.c.f. calculation:
  | Note that this energy does not include ANY quantities calculated after the
  | s.c.f. cycle, in particular not ANY RPA, MP2, etc. many-body perturbation terms.

  Final zero-broadening corrected energy:
  | For metallic systems only, a broadening of the occupation numbers at the Fermi
  | level can be extrapolated back to zero broadening by an electron-gas inspired
  | formula. For all systems that are not real metals, this value can be
  | meaningless and should be avoided.

------------------------------------------------------------------------------
  Methods described in the following list of references were used in this FHI-aims run.
  If you publish the results, please make sure to cite these reference if they apply.
  FHI-aims is an academic code, and for our developers (often, Ph.D. students
  and postdocs), scientific credit in the community is essential.
  Thank you for helping us!

  For any use of FHI-aims, please cite:

    Volker Blum, Ralf Gehrke, Felix Hanke, Paula Havu, Ville Havu,
    Xinguo Ren, Karsten Reuter, and Matthias Scheffler
    'Ab initio molecular simulations with numeric atom-centered orbitals'
    Computer Physics Communications 180, 2175-2196 (2009)
    http://dx.doi.org/10.1016/j.cpc.2009.06.022


  The scalable eigensolver library ELPA was used in your run.
  ELPA is essential especially for large systems on hundreds or thousands of CPUs.
  For ELPA, please cite:

    Andreas Marek, Volker Blum, Rainer Johanni, Ville Havu, Bruno Lang,
    Thomas Auckenthaler, Alexander Heinecke, Hans-Joachim Bungartz, and Hermann Lederer,
    'The ELPA Library - Scalable Parallel Eigenvalue Solutions
    for Electronic Structure Theory and Computational Science'
    The Journal of Physics: Condensed Matter 26, 213201 (2014).
    http://dx.doi.org/10.1088/0953-8984/26/21/213201


  For ELPA's efficient two-stage tridiagonalization used in your run, please cite:

    T. Auckenthaler, V. Blum, H.-J. Bungartz, T. Huckle, R. Johanni, L. Kraemer,
    B. Lang, H. Lederer, and P. R. Willems,
    'Parallel solution of partial symmetric eigenvalue problems'
    'from  electronic structure calculations'
    Parallel Computing 37, 783-794 (2011).
    http://dx.doi.org/10.1016/j.parco.2011.05.002


  For the real-space grid partitioning and parallelization used in this calculation, please cite:

    Ville Havu, Volker Blum, Paula Havu, and Matthias Scheffler,
    'Efficient O(N) integration for all-electron electronic structure calculation'
    'using numerically tabulated basis functions'
    Journal of Computational Physics 228, 8367-8379 (2009).
    http://dx.doi.org/10.1016/j.jcp.2009.08.008

  Of course, there are many other important community references, e.g., those cited in the
  above references. Our list is limited to references that describe implementations in the
  FHI-aims code. The reason is purely practical (length of this list) - please credit others as well.

------------------------------------------------------------
          Leaving FHI-aims.
          Date     :  20170309, Time     :  162057.333

          Computational steps:
          | Number of self-consistency cycles          :           14

          Detailed time accounting                     :  max(cpu_time)    wall_clock(cpu1)
          | Total time                                 :       31.878 s          32.079 s
          | Preparation time                           :        0.232 s           0.235 s
          | Grid partitioning                          :        0.372 s           0.367 s
          | Preloading free-atom quantities on grid    :        0.032 s           0.027 s
          | Free-atom superposition energy             :        0.044 s           0.041 s
          | Total time for integrations                :        9.969 s           9.947 s
          | Total time for solution of K.-S. equations :        0.532 s           0.502 s
          | Total time for density & force components  :        9.169 s           9.136 s
          | Total time for mixing                      :        0.120 s           0.106 s
          | Total time for Hartree multipole update    :        0.068 s           0.057 s
          | Total time for Hartree multipole sum       :        6.492 s           6.457 s
          | Total time for total energy evaluation     :        0.020 s           0.024 s

          Have a nice day.
------------------------------------------------------------
