  MPI-parallelism will be employed.
------------------------------------------------------------
          Invoking FHI-aims ...
          Version 150427
          Git rev.: 9dd23e0 BL: Update Version stamp
          Compiled on 2015/11/03 at 22:05:20 on host eos03.

          When using FHI-aims, please cite the following reference:

          Volker Blum, Ralf Gehrke, Felix Hanke, Paula Havu,
          Ville Havu, Xinguo Ren, Karsten Reuter, and Matthias Scheffler,
          'Ab Initio Molecular Simulations with Numeric Atom-Centered Orbitals: FHI-aims',
          Computer Physics Communications 180, 2175-2196 (2009)

          For any questions about FHI-aims, please visit the aimsclub website
          with its forums and wiki. Contributions to both the forums and the
          wiki are warmly encouraged - they are for you, and everyone is welcome there.

------------------------------------------------------------

  Date     :  20170309, Time     :  183240.528
  Time zero on CPU 1             :   0.396024000000000E+00  s.
  Internal wall clock time zero  :           258316360.528  s.

  Using       32 parallel tasks.
  Task        0 on host eos366 reporting.
  Task        1 on host eos366 reporting.
  Task        2 on host eos366 reporting.
  Task        3 on host eos366 reporting.
  Task        4 on host eos366 reporting.
  Task        5 on host eos366 reporting.
  Task        6 on host eos366 reporting.
  Task        7 on host eos366 reporting.
  Task        8 on host eos366 reporting.
  Task        9 on host eos366 reporting.
  Task       10 on host eos366 reporting.
  Task       11 on host eos366 reporting.
  Task       12 on host eos366 reporting.
  Task       13 on host eos366 reporting.
  Task       14 on host eos366 reporting.
  Task       15 on host eos366 reporting.
  Task       16 on host eos366 reporting.
  Task       17 on host eos366 reporting.
  Task       18 on host eos366 reporting.
  Task       19 on host eos366 reporting.
  Task       20 on host eos366 reporting.
  Task       21 on host eos366 reporting.
  Task       22 on host eos366 reporting.
  Task       23 on host eos366 reporting.
  Task       24 on host eos366 reporting.
  Task       25 on host eos366 reporting.
  Task       26 on host eos366 reporting.
  Task       27 on host eos366 reporting.
  Task       28 on host eos366 reporting.
  Task       29 on host eos366 reporting.
  Task       30 on host eos366 reporting.
  Task       31 on host eos366 reporting.

  Performing system and environment tests:
  | Environment variable OMP_NUM_THREADS correctly set to 1.
  | Stacksize not measured: no C compiler
  | Checking for scalapack...
  | Testing pdtran()...
  | All pdtran() tests passed.

  Obtaining array dimensions for all initial allocations:
  
  -----------------------------------------------------------------------
  Parsing control.in (first pass over file, find array dimensions only).
  The contents of control.in will be repeated verbatim below
  unless switched off by setting 'verbatim_writeout .false.' .
  in the first line of control.in .
  -----------------------------------------------------------------------
  
  #########################################################################################
  #
  # Input for System
  #
  #########################################################################################
  #
  #
  #  Physical model
  #
    xc                 pbe
    many_body_dispersion
    spin               none
    charge             0.
  #
  #  SCF convergence
  #
    occupation_type    gaussian 0.05
    mixer              pulay
      n_max_pulay        10
      charge_mix_param   0.5
    sc_accuracy_rho    1E-4
    sc_accuracy_eev    1E-2
    sc_accuracy_etot   1E-5
    sc_accuracy_forces 1E-4
    sc_iter_limit      1000
  #
  #  ESP charge
  #
    output esp
    esp equal_grid_n 80 80 80
  #
  #
  ################################################################################
  #
  #  FHI-aims code project
  # Volker Blum, Fritz Haber Institute Berlin, 2009
  #
  #  Suggested "tight" defaults for H atom (to be pasted into control.in file)
  #
  ################################################################################
    species        H
  #     global species definitions
      nucleus             1
      mass                1.00794
  #
      l_hartree           6
  #
      cut_pot             4.0  2.0  1.0
      basis_dep_cutoff    1e-4
  #
      radial_base         24 7.0
      radial_multiplier   2
      angular_grids       specified
        division   0.1930   50
        division   0.3175  110
        division   0.4293  194
        division   0.5066  302
        division   0.5626  434
  #      division   0.5922  590
  #      division   0.6227  974
  #      division   0.6868 1202
  #      outer_grid  770
        outer_grid  434
  ################################################################################
  #
  #  Definition of "minimal" basis
  #
  ################################################################################
  #     valence basis states
      valence      1  s   1.
  #     ion occupancy
      ion_occ      1  s   0.5
  ################################################################################
  #
  #  Suggested additional basis functions. For production calculations,
  #  uncomment them one after another (the most important basis functions are
  #  listed first).
  #
  #  Basis constructed for dimers: 0.5 A, 0.7 A, 1.0 A, 1.5 A, 2.5 A
  #
  ################################################################################
  #  "First tier" - improvements: -1014.90 meV to -62.69 meV
       hydro 2 s 2.1
       hydro 2 p 3.5
  #  "Second tier" - improvements: -12.89 meV to -1.83 meV
       hydro 1 s 0.85
       hydro 2 p 3.7
       hydro 2 s 1.2
       hydro 3 d 7
  #  "Third tier" - improvements: -0.25 meV to -0.12 meV
  #     hydro 4 f 11.2
  #     hydro 3 p 4.8
  #     hydro 4 d 9
  #     hydro 3 s 3.2
  ################################################################################
  #
  # For methods that use the localized form of the "resolution of identity" for
  # the two-electron Coulomb operator (RI_method LVL), particularly Hartree-Fock and
  # hybrid density functional calculations, the highest accuracy can be obtained by
  # uncommenting the line beginning with "for_aux"  below, thus adding an extra g radial
  # function to the construction of the product basis set for the expansion.
  # See Ref. New J. Phys. 17, 093020 (2015) for more information, particularly Figs. 1 and 6.
  #
  ################################################################################
  #
  # for_aux hydro 5 g 6.0
  ################################################################################
  #
  #  FHI-aims code project
  # Volker Blum, Fritz Haber Institute Berlin, 2009
  #
  #  Suggested "tight" defaults for C atom (to be pasted into control.in file)
  #
  ################################################################################
    species        C
  #     global species definitions
      nucleus             6
      mass                12.0107
  #
      l_hartree           6
  #
      cut_pot             4.0  2.0  1.0
      basis_dep_cutoff    1e-4
  #
      radial_base         34 7.0
      radial_multiplier   2
      angular_grids specified
        division   0.2187   50
        division   0.4416  110
        division   0.6335  194
        division   0.7727  302
        division   0.8772  434
  #      division   0.9334  590
  #      division   0.9924  770
  #      division   1.0230  974
  #      division   1.5020 1202
  #     outer_grid  974
        outer_grid  434
  ################################################################################
  #
  #  Definition of "minimal" basis
  #
  ################################################################################
  #     valence basis states
      valence      2  s   2.
      valence      2  p   2.
  #     ion occupancy
      ion_occ      2  s   1.
      ion_occ      2  p   1.
  ################################################################################
  #
  #  Suggested additional basis functions. For production calculations,
  #  uncomment them one after another (the most important basis functions are
  #  listed first).
  #
  #  Constructed for dimers: 1.0 A, 1.25 A, 1.5 A, 2.0 A, 3.0 A
  #
  ################################################################################
  #  "First tier" - improvements: -1214.57 meV to -155.61 meV
       hydro 2 p 1.7
       hydro 3 d 6
       hydro 2 s 4.9
  #  "Second tier" - improvements: -67.75 meV to -5.23 meV
       hydro 4 f 9.8
       hydro 3 p 5.2
       hydro 3 s 4.3
       hydro 5 g 14.4
       hydro 3 d 6.2
  #  "Third tier" - improvements: -2.43 meV to -0.60 meV
  #     hydro 2 p 5.6
  #     hydro 2 s 1.4
  #     hydro 3 d 4.9
  #     hydro 4 f 11.2
  #  "Fourth tier" - improvements: -0.39 meV to -0.18 meV
  #     hydro 2 p 2.1
  #     hydro 5 g 16.4
  #     hydro 4 d 13.2
  #     hydro 3 s 13.6
  #     hydro 4 f 17.6
  #  Further basis functions - improvements: -0.08 meV and below
  #     hydro 3 s 2
  #     hydro 3 p 6
  #     hydro 4 d 20
  ################################################################################
  #
  # For methods that use the localized form of the "resolution of identity" for
  # the two-electron Coulomb operator (RI_method LVL), particularly Hartree-Fock and
  # hybrid density functional calculations, the highest accuracy can be obtained by
  # uncommenting the line beginning with "for_aux"  below, thus adding an extra g radial
  # function to the construction of the product basis set for the expansion.
  # See Ref. New J. Phys. 17, 093020 (2015) for more information, particularly Figs. 1 and 6.
  #
  ################################################################################
  #
  # for_aux hydro 5 g 6.0
  ################################################################################
  #
  #  FHI-aims code project
  # Volker Blum, Fritz Haber Institute Berlin, 2009
  #
  #  Suggested "tight" defaults for N atom (to be pasted into control.in file)
  #
  ################################################################################
    species        N
  #     global species definitions
      nucleus             7
      mass                14.0067
  #
      l_hartree           6
  #
      cut_pot             4.0  2.0  1.0
      basis_dep_cutoff    1e-4
  #
      radial_base         35 7.0
      radial_multiplier   2
      angular_grids       specified
        division   0.1841   50
        division   0.3514  110
        division   0.5126  194
        division   0.6292  302
        division   0.6939  434
  #      division   0.7396  590
  #      division   0.7632  770
  #      division   0.8122  974
  #      division   1.1604 1202
  #      outer_grid  974
        outer_grid  434
  ################################################################################
  #
  #  Definition of "minimal" basis
  #
  ################################################################################
  #     valence basis states
      valence      2  s   2.
      valence      2  p   3.
  #     ion occupancy
      ion_occ      2  s   1.
      ion_occ      2  p   2.
  ################################################################################
  #
  #  Suggested additional basis functions. For production calculations,
  #  uncomment them one after another (the most important basis functions are
  #  listed first).
  #
  #  Constructed for dimers: 1.0 A, 1.1 A, 1.5 A, 2.0 A, 3.0 A
  #
  ################################################################################
  #  "First tier" - improvements: -1193.42 meV to -220.60 meV
       hydro 2 p 1.8
       hydro 3 d 6.8
       hydro 3 s 5.8
  #  "Second tier" - improvements: -80.21 meV to -6.86 meV
       hydro 4 f 10.8
       hydro 3 p 5.8
       hydro 1 s 0.8
       hydro 5 g 16
       hydro 3 d 4.9
  #  "Third tier" - improvements: -4.29 meV to -0.53 meV
  #     hydro 3 s 16
  #     ionic 2 p auto
  #     hydro 3 d 6.6
  #     hydro 4 f 11.6
  #  "Fourth tier" - improvements: -0.75 meV to -0.25 meV
  #     hydro 2 p 4.5
  #     hydro 2 s 2.4
  #     hydro 5 g 14.4
  #     hydro 4 d 14.4
  #     hydro 4 f 16.8
  # Further basis functions - -0.21 meV and below
  #     hydro 3 p 14.8
  #     hydro 3 s 4.4
  #     hydro 3 d 19.6
  #     hydro 5 g 12.8
  ################################################################################
  #
  # For methods that use the localized form of the "resolution of identity" for
  # the two-electron Coulomb operator (RI_method LVL), particularly Hartree-Fock and
  # hybrid density functional calculations, the highest accuracy can be obtained by
  # uncommenting the line beginning with "for_aux"  below, thus adding an extra g radial
  # function to the construction of the product basis set for the expansion.
  # See Ref. New J. Phys. 17, 093020 (2015) for more information, particularly Figs. 1 and 6.
  #
  ################################################################################
  #
  # for_aux hydro 5 g 6.0
  ################################################################################
  #
  #  FHI-aims code project
  # Volker Blum, Fritz Haber Institute Berlin, 2009
  #
  #  Suggested "tight" defaults for O atom (to be pasted into control.in file)
  #
  ################################################################################
    species        O
  #     global species definitions
      nucleus             8
      mass                15.9994
  #
      l_hartree           6
  #
      cut_pot             4.0  2.0  1.0
      basis_dep_cutoff    1e-4
  #
      radial_base         36 7.0
      radial_multiplier   2
       angular_grids specified
        division   0.1817   50
        division   0.3417  110
        division   0.4949  194
        division   0.6251  302
        division   0.8014  434
  #      division   0.8507  590
  #      division   0.8762  770
  #      division   0.9023  974
  #      division   1.2339 1202
  #      outer_grid 974
        outer_grid  434
  ################################################################################
  #
  #  Definition of "minimal" basis
  #
  ################################################################################
  #     valence basis states
      valence      2  s   2.
      valence      2  p   4.
  #     ion occupancy
      ion_occ      2  s   1.
      ion_occ      2  p   3.
  ################################################################################
  #
  #  Suggested additional basis functions. For production calculations,
  #  uncomment them one after another (the most important basis functions are
  #  listed first).
  #
  #  Constructed for dimers: 1.0 A, 1.208 A, 1.5 A, 2.0 A, 3.0 A
  #
  ################################################################################
  #  "First tier" - improvements: -699.05 meV to -159.38 meV
       hydro 2 p 1.8
       hydro 3 d 7.6
       hydro 3 s 6.4
  #  "Second tier" - improvements: -49.91 meV to -5.39 meV
       hydro 4 f 11.6
       hydro 3 p 6.2
       hydro 3 d 5.6
       hydro 5 g 17.6
       hydro 1 s 0.75
  #  "Third tier" - improvements: -2.83 meV to -0.50 meV
  #     ionic 2 p auto
  #     hydro 4 f 10.8
  #     hydro 4 d 4.7
  #     hydro 2 s 6.8
  #  "Fourth tier" - improvements: -0.40 meV to -0.12 meV
  #     hydro 3 p 5
  #     hydro 3 s 3.3
  #     hydro 5 g 15.6
  #     hydro 4 f 17.6
  #     hydro 4 d 14
  # Further basis functions - -0.08 meV and below
  #     hydro 3 s 2.1
  #     hydro 4 d 11.6
  #     hydro 3 p 16
  #     hydro 2 s 17.2
  ################################################################################
  #
  # For methods that use the localized form of the "resolution of identity" for
  # the two-electron Coulomb operator (RI_method LVL), particularly Hartree-Fock and
  # hybrid density functional calculations, the highest accuracy can be obtained by
  # uncommenting the line beginning with "for_aux"  below, thus adding an extra g radial
  # function to the construction of the product basis set for the expansion.
  # See Ref. New J. Phys. 17, 093020 (2015) for more information, particularly Figs. 1 and 6.
  #
  ################################################################################
  #
  # for_aux hydro 5 g 6.0
  
  -----------------------------------------------------------------------
  Completed first pass over input file control.in .
  -----------------------------------------------------------------------
  
  
  -----------------------------------------------------------------------
  Parsing geometry.in (first pass over file, find array dimensions only).
  The contents of geometry.in will be repeated verbatim below
  unless switched off by setting 'verbatim_writeout .false.' .
  in the first line of geometry.in .
  -----------------------------------------------------------------------
  
  #
  # This is the geometry file that corresponds to the current relaxation step.
  # If you do not want this file to be written, set the "write_restart_geometry" flag to .false.
  #
  atom      -1.00945822     -1.94111920      0.37109370 C
  atom      -0.66486605     -0.49779445      0.70663831 C
  atom       0.21163354      0.11513321      0.09950113 O
  atom      -0.30317162     -2.28317099     -0.38995996 H
  atom      -2.02855588     -2.03006558     -0.03209507 H
  atom      -0.94538668     -2.59928475      1.24793500 H
  atom      -1.38441061      0.10399471      1.70597584 N
  atom      -2.36182357     -0.50812229      2.60351662 C
  atom      -3.33736433      0.61018724      3.00076668 C
  atom      -2.91823211      1.58922126      3.61713180 O
  atom      -1.06853050      1.03903060      1.95705861 H
  atom      -2.88490178     -1.30806396      2.07475424 H
  atom      -1.73330712     -1.09701406      3.87434183 C
  atom      -2.50471488     -1.57859429      4.48788502 H
  atom      -1.24852049     -0.30598407      4.45895977 H
  atom      -0.98200940     -1.85044286      3.60511021 H
  atom      -4.67258238      0.52814843      2.68933408 N
  atom      -5.44612157     -0.34092941      1.80729785 C
  atom      -5.64542322     -1.76003485      2.38909885 C
  atom      -4.78215409     -2.32836852      3.05149323 O
  atom      -5.17008970      1.33895085      3.04677128 H
  atom      -6.43219426      0.14190047      1.76065303 H
  atom      -4.91164576     -0.41370475      0.36484307 C
  atom      -5.60515112     -0.96934316     -0.27986840 H
  atom      -3.93992138     -0.91535353      0.31634106 H
  atom      -4.79390886      0.59850999     -0.04025280 H
  atom      -6.82884883     -2.37551760      2.08952308 N
  atom      -7.99103854     -1.83307138      1.40291644 C
  atom      -6.89601798     -3.31394488      2.47142708 H
  atom      -8.75049820     -2.61938466      1.34046029 H
  atom      -7.76070538     -1.51772955      0.37533811 H
  atom      -8.43714303     -0.98342396      1.94174298 H
  
  -----------------------------------------------------------------------
  Completed first pass over input file geometry.in .
  -----------------------------------------------------------------------
  

  Basic array size parameters:
  | Number of species                 :        4
  | Number of atoms                   :       32
  | Max. basis fn. angular momentum   :        4
  | Max. atomic/ionic basis occupied n:        2
  | Max. number of basis fn. types    :        2
  | Max. radial fns per species/type  :        8
  | Max. logarithmic grid size        :     1301
  | Max. radial integration grid size :       73
  | Max. angular integration grid size:      434
  | Max. angular grid division number :        8
  | Radial grid for Hartree potential :     1301
  | Number of spin channels           :        1

------------------------------------------------------------
          Reading file control.in.
------------------------------------------------------------
  XC: Using PBE gradient-corrected functionals.
  Self-consistent screening and van der Waals energy (TS, TS+SCS,MBD) module
  Spin treatment: No spin polarisation.
  Charge =   0.000000E+00: Neutral system requested explicitly.
  Occupation type: Gaussian broadening, width =   0.500000E-01 eV.
  Using pulay charge density mixing.
  Pulay mixing - number of memorized iterations:   10
  Charge density mixing - mixing parameter:     0.5000
  Convergence accuracy of self-consistent charge density:  0.1000E-03
  Convergence accuracy of sum of eigenvalues:  0.1000E-01
  Convergence accuracy of total energy:  0.1000E-04
  Convergence accuracy of forces:  0.1000E-03
  Maximum number of s.-c. iterations  :  1000
  Fitting ESP-charges to Potential. 
  | Esp charge output options: 
  | ESP Grid method: 3, cubic grid
  | Number of points in x, ,y, z:  0080 0080 0080
  |
 
  Reading configuration options for species H                   .
  | Found nuclear charge :   1.0000
  | Found atomic mass :    1.00794000000000      amu
  | Found l_max for Hartree potential  :   6
  | Found cutoff potl. onset [A], width [A], scale factor :    4.00000    2.00000    1.00000
  | Threshold for basis-dependent cutoff potential is   0.100000E-03
  | Found data for basic radial integration grid :    24 points, outermost radius =    7.000 A
  | Found multiplier for basic radial grid :   2
  | Found angular grid specification: user-specified.
  | Specified grid contains     6 separate shells.
  | Check grid settings after all constraints further below.
  | Found free-atom valence shell :  1 s   1.000
  | No ionic wave fns used. Skipping ion_occ.
  | Found hydrogenic basis function :  2 s   2.100
  | Found hydrogenic basis function :  2 p   3.500
  | Found hydrogenic basis function :  1 s   0.850
  | Found hydrogenic basis function :  2 p   3.700
  | Found hydrogenic basis function :  2 s   1.200
  | Found hydrogenic basis function :  3 d   7.000
  Species H                   : Missing cutoff potential type.
  Defaulting to exp(1/x)/(1-x)^2 type cutoff potential.
  Species H : No 'logarithmic' tag. Using default grid for free atom:
  | Default logarithmic grid data [bohr] : 0.1000E-03 0.1000E+03 0.1012E+01
  Species H : On-site basis accuracy parameter (for Gram-Schmidt orthonormalisation) not specified.
  Using default value basis_acc =  0.1000000E-03.
  Species H                   : Using default innermost maximum threshold i_radial=  2 for radial functions.
  Species H                   : Default cutoff onset for free atom density etc. : 0.40000000E+01 AA.
  Species H                   : Basic radial grid will be enhanced according to radial_multiplier =   2, to contain    49 grid points.
 
  Reading configuration options for species C                   .
  | Found nuclear charge :   6.0000
  | Found atomic mass :    12.0107000000000      amu
  | Found l_max for Hartree potential  :   6
  | Found cutoff potl. onset [A], width [A], scale factor :    4.00000    2.00000    1.00000
  | Threshold for basis-dependent cutoff potential is   0.100000E-03
  | Found data for basic radial integration grid :    34 points, outermost radius =    7.000 A
  | Found multiplier for basic radial grid :   2
  | Found angular grid specification: user-specified.
  | Specified grid contains     6 separate shells.
  | Check grid settings after all constraints further below.
  | Found free-atom valence shell :  2 s   2.000
  | Found free-atom valence shell :  2 p   2.000
  | No ionic wave fns used. Skipping ion_occ.
  | No ionic wave fns used. Skipping ion_occ.
  | Found hydrogenic basis function :  2 p   1.700
  | Found hydrogenic basis function :  3 d   6.000
  | Found hydrogenic basis function :  2 s   4.900
  | Found hydrogenic basis function :  4 f   9.800
  | Found hydrogenic basis function :  3 p   5.200
  | Found hydrogenic basis function :  3 s   4.300
  | Found hydrogenic basis function :  5 g  14.400
  | Found hydrogenic basis function :  3 d   6.200
  Species C                   : Missing cutoff potential type.
  Defaulting to exp(1/x)/(1-x)^2 type cutoff potential.
  Species C : No 'logarithmic' tag. Using default grid for free atom:
  | Default logarithmic grid data [bohr] : 0.1000E-03 0.1000E+03 0.1012E+01
  Species C : On-site basis accuracy parameter (for Gram-Schmidt orthonormalisation) not specified.
  Using default value basis_acc =  0.1000000E-03.
  Species C                   : Using default innermost maximum threshold i_radial=  2 for radial functions.
  Species C                   : Default cutoff onset for free atom density etc. : 0.40000000E+01 AA.
  Species C                   : Basic radial grid will be enhanced according to radial_multiplier =   2, to contain    69 grid points.
 
  Reading configuration options for species N                   .
  | Found nuclear charge :   7.0000
  | Found atomic mass :    14.0067000000000      amu
  | Found l_max for Hartree potential  :   6
  | Found cutoff potl. onset [A], width [A], scale factor :    4.00000    2.00000    1.00000
  | Threshold for basis-dependent cutoff potential is   0.100000E-03
  | Found data for basic radial integration grid :    35 points, outermost radius =    7.000 A
  | Found multiplier for basic radial grid :   2
  | Found angular grid specification: user-specified.
  | Specified grid contains     6 separate shells.
  | Check grid settings after all constraints further below.
  | Found free-atom valence shell :  2 s   2.000
  | Found free-atom valence shell :  2 p   3.000
  | No ionic wave fns used. Skipping ion_occ.
  | No ionic wave fns used. Skipping ion_occ.
  | Found hydrogenic basis function :  2 p   1.800
  | Found hydrogenic basis function :  3 d   6.800
  | Found hydrogenic basis function :  3 s   5.800
  | Found hydrogenic basis function :  4 f  10.800
  | Found hydrogenic basis function :  3 p   5.800
  | Found hydrogenic basis function :  1 s   0.800
  | Found hydrogenic basis function :  5 g  16.000
  | Found hydrogenic basis function :  3 d   4.900
  Species N                   : Missing cutoff potential type.
  Defaulting to exp(1/x)/(1-x)^2 type cutoff potential.
  Species N : No 'logarithmic' tag. Using default grid for free atom:
  | Default logarithmic grid data [bohr] : 0.1000E-03 0.1000E+03 0.1012E+01
  Species N : On-site basis accuracy parameter (for Gram-Schmidt orthonormalisation) not specified.
  Using default value basis_acc =  0.1000000E-03.
  Species N                   : Using default innermost maximum threshold i_radial=  2 for radial functions.
  Species N                   : Default cutoff onset for free atom density etc. : 0.40000000E+01 AA.
  Species N                   : Basic radial grid will be enhanced according to radial_multiplier =   2, to contain    71 grid points.
 
  Reading configuration options for species O                   .
  | Found nuclear charge :   8.0000
  | Found atomic mass :    15.9994000000000      amu
  | Found l_max for Hartree potential  :   6
  | Found cutoff potl. onset [A], width [A], scale factor :    4.00000    2.00000    1.00000
  | Threshold for basis-dependent cutoff potential is   0.100000E-03
  | Found data for basic radial integration grid :    36 points, outermost radius =    7.000 A
  | Found multiplier for basic radial grid :   2
  | Found angular grid specification: user-specified.
  | Specified grid contains     6 separate shells.
  | Check grid settings after all constraints further below.
  | Found free-atom valence shell :  2 s   2.000
  | Found free-atom valence shell :  2 p   4.000
  | No ionic wave fns used. Skipping ion_occ.
  | No ionic wave fns used. Skipping ion_occ.
  | Found hydrogenic basis function :  2 p   1.800
  | Found hydrogenic basis function :  3 d   7.600
  | Found hydrogenic basis function :  3 s   6.400
  | Found hydrogenic basis function :  4 f  11.600
  | Found hydrogenic basis function :  3 p   6.200
  | Found hydrogenic basis function :  3 d   5.600
  | Found hydrogenic basis function :  5 g  17.600
  | Found hydrogenic basis function :  1 s   0.750
  Species O                   : Missing cutoff potential type.
  Defaulting to exp(1/x)/(1-x)^2 type cutoff potential.
  Species O : No 'logarithmic' tag. Using default grid for free atom:
  | Default logarithmic grid data [bohr] : 0.1000E-03 0.1000E+03 0.1012E+01
  Species O : On-site basis accuracy parameter (for Gram-Schmidt orthonormalisation) not specified.
  Using default value basis_acc =  0.1000000E-03.
  Species O                   : Using default innermost maximum threshold i_radial=  2 for radial functions.
  Species O                   : Default cutoff onset for free atom density etc. : 0.40000000E+01 AA.
  Species O                   : Basic radial grid will be enhanced according to radial_multiplier =   2, to contain    73 grid points.
 
  Finished reading input file 'control.in'. Consistency checks are next.
 
  Target number of points in a grid batch is not set. Defaulting to  100
  Method for grid partitioning is not set. Defaulting to parallel hash+maxmin partitioning.
  Batch size limit is not set. Defaulting to    200
  By default, will store active basis functions for each batch.
  If in need of memory, prune_basis_once .false. can be used to disable this option.
  communication_type for Hartree potential was not specified.
  Defaulting to calc_hartree .
  Pulay mixer: Number of initial linear mixing iterations not set.
  Defaulting to    0 iterations.
  Work space size for distributed Hartree potential not set.
  Defaulting to   0.200000E+03 MB.
  Algorithm-dependent basis array size parameters:
  | n_max_pulay                         :       10
  Geometry relaxation not requested: no relaxation will be performed.
  Handling of forces: Unphysical translation and rotation will be removed from forces.
  No accuracy limit for integral partition fn. given. Defaulting to  0.1000E-14.
  No threshold value for u(r) in integrations given. Defaulting to  0.1000E-05.
  No accuracy for occupation numbers given. Defaulting to  0.1000E-07.
  No threshold value for occupation numbers given. Defaulting to  0.0000E+00.
  No accuracy for fermi level given. Defaulting to  0.1000E-19.
  Maximum # of iterations to find E_F not set. Defaulting to  200.
  Preferred method for the eigenvalue solver ('KS_method') not specified in 'control.in'.
  Calling blacs routine to test compilation state
  Since scalapack support is enabled, defaulting to 'elpa'.
  Preferred method for the MBD eigenvalue solver ('mbd_eigensolver') not specified in 'control.in'.
  Calling blacs routine to test compilation state
  Since scalapack support is enabled, defaulting to 'scaLAPACK'.
  Will not use alltoall communication since running on < 1024 CPUs.
  Threshold for basis singularities not set.
  Default threshold for basis singularities:  0.1000E-04
  partition_type (choice of integration weights) for integrals was not specified.
  | Using a version of the partition function of Stratmann and coworkers ('stratmann_smoother').
  | At each grid point, the set of atoms used to build the partition table is smoothly restricted to
  | only those atoms whose free-atom density would be non-zero at that grid point.
  Partitioning for Hartree potential was not defined. Using partition_type for integrals.
  | Adjusted default value of keyword multip_moments_threshold to:       0.10000000E-11
  | This value may affect high angular momentum components of the Hartree potential in periodic systems.
  No q(lm)/r^(l+1) cutoff set for long-range Hartree potential.
  | Using default value of  0.100000E-09 .
  | Verify using the multipole_threshold keyword.
  Defaulting to new monopole extrapolation.
  Density update method: automatic selection selected.
------------------------------------------------------------


------------------------------------------------------------
          Reading geometry description geometry.in.
------------------------------------------------------------
 * Warning! You did not set the 'relativistic' flag in input file 'control.in'.
 * Since you are not attempting to treat any elements beyond Ca(Z=20), FHI-aims
 * will default to 'relativistic none'.
 * You must ensure that this is really what you want!!
 * For example, DO NOT compute total-energy differences between results from
 * different settings of the 'relativistic' flag.
  Input structure read successfully.
  The structure contains       32 atoms,  and a total of        116.000 electrons.

  Input geometry:
  | No unit cell requested.
  | Atomic structure:
  |       Atom                x [A]            y [A]            z [A]
  |    1: Species C             -1.009458        -1.941119         0.371094
  |    2: Species C             -0.664866        -0.497794         0.706638
  |    3: Species O              0.211634         0.115133         0.099501
  |    4: Species H             -0.303172        -2.283171        -0.389960
  |    5: Species H             -2.028556        -2.030066        -0.032095
  |    6: Species H             -0.945387        -2.599285         1.247935
  |    7: Species N             -1.384411         0.103995         1.705976
  |    8: Species C             -2.361824        -0.508122         2.603517
  |    9: Species C             -3.337364         0.610187         3.000767
  |   10: Species O             -2.918232         1.589221         3.617132
  |   11: Species H             -1.068531         1.039031         1.957059
  |   12: Species H             -2.884902        -1.308064         2.074754
  |   13: Species C             -1.733307        -1.097014         3.874342
  |   14: Species H             -2.504715        -1.578594         4.487885
  |   15: Species H             -1.248520        -0.305984         4.458960
  |   16: Species H             -0.982009        -1.850443         3.605110
  |   17: Species N             -4.672582         0.528148         2.689334
  |   18: Species C             -5.446122        -0.340929         1.807298
  |   19: Species C             -5.645423        -1.760035         2.389099
  |   20: Species O             -4.782154        -2.328369         3.051493
  |   21: Species H             -5.170090         1.338951         3.046771
  |   22: Species H             -6.432194         0.141900         1.760653
  |   23: Species C             -4.911646        -0.413705         0.364843
  |   24: Species H             -5.605151        -0.969343        -0.279868
  |   25: Species H             -3.939921        -0.915354         0.316341
  |   26: Species H             -4.793909         0.598510        -0.040253
  |   27: Species N             -6.828849        -2.375518         2.089523
  |   28: Species C             -7.991039        -1.833071         1.402916
  |   29: Species H             -6.896018        -3.313945         2.471427
  |   30: Species H             -8.750498        -2.619385         1.340460
  |   31: Species H             -7.760705        -1.517730         0.375338
  |   32: Species H             -8.437143        -0.983424         1.941743
  |

  | The smallest distance between any two atoms is         1.01538570 AA.
  |
  | The first atom of this pair is atom number                     27 .
  | The second atom of this pair is atom number                    29 .

  Number of empty states per atom not set in control.in - providing a guess from actual geometry.
  | Total number of empty states used during s.c.f. cycle:       71
  If you use a very high smearing, use empty_states (per atom!) in control.in to increase this value.

  Structure-dependent array size parameters: 
  | Maximum number of distinct radial functions  :       40
  | Maximum number of basis functions            :      840
  | Number of Kohn-Sham states (occupied + empty):      129
------------------------------------------------------------

------------------------------------------------------------
          Preparing all fixed parts of the calculation.
------------------------------------------------------------
  Determining machine precision:
    2.225073858507201E-308
  Setting up grids for atomic and cluster calculations.

  Creating wave function, potential, and density for free atoms.

  Species: H

  List of occupied orbitals and eigenvalues:
    n    l              occ      energy [Ha]    energy [eV]
    1    0           1.0000        -0.238382        -6.4867


  Species: C

  List of occupied orbitals and eigenvalues:
    n    l              occ      energy [Ha]    energy [eV]
    1    0           2.0000       -10.041232      -273.2358
    2    0           2.0000        -0.504327       -13.7234
    2    1           2.0000        -0.193750        -5.2722


  Species: N

  List of occupied orbitals and eigenvalues:
    n    l              occ      energy [Ha]    energy [eV]
    1    0           2.0000       -14.129007      -384.4699
    2    0           2.0000        -0.681802       -18.5528
    2    1           3.0000        -0.260543        -7.0897


  Species: O

  List of occupied orbitals and eigenvalues:
    n    l              occ      energy [Ha]    energy [eV]
    1    0           2.0000       -18.898576      -514.2564
    2    0           2.0000        -0.878795       -23.9132
    2    1           4.0000        -0.332075        -9.0362

  Creating fixed part of basis set: Ionic, confined, hydrogenic.
 
  H                    hydrogenic:
 
  List of hydrogenic basis orbitals: 
    n    l      effective z      eigenvalue [eV]  inner max. [A]     outer max. [A]     outer radius [A]   
    2    0         2.100000       -14.9965           0.193243           1.317208           5.373006
    2    1         3.500000       -41.6672           0.602369           0.602369           4.056063
    1    0         0.850000        -9.8292           0.624871           0.624871           5.373006
    2    1         3.700000       -46.5653           0.573622           0.573622           3.910002
    2    0         1.200000        -4.5995           0.334980           2.228188           5.505995
    3    2         7.000000       -74.0753           0.680699           0.680699           3.769201
 
 
  C                    hydrogenic:
 
  List of hydrogenic basis orbitals: 
    n    l      effective z      eigenvalue [eV]  inner max. [A]     outer max. [A]     outer radius [A]   
    2    1         1.700000        -9.8152           1.245706           1.245706           5.401630
    3    2         6.000000       -54.4226           0.792453           0.792453           4.178599
    2    0         4.900000       -81.6681           0.082559           0.562749           3.353238
    4    3         9.800000       -81.6681           0.863254           0.863254           4.028125
    3    1         5.200000       -40.8774           0.305389           1.215618           4.898362
    3    0         4.300000       -27.9508           0.091041           1.610311           5.401630
    5    4        14.400000      -112.8510           0.917666           0.917666           3.883070
    3    2         6.200000       -58.1113           0.763917           0.763917           4.077671
 
 
  N                    hydrogenic:
 
  List of hydrogenic basis orbitals: 
    n    l      effective z      eigenvalue [eV]  inner max. [A]     outer max. [A]     outer radius [A]   
    2    1         1.800000       -11.0118           1.177451           1.177451           5.427479
    3    2         6.800000       -69.9029           0.704619           0.704619           3.854246
    3    0         5.800000       -50.8549           0.067388           1.191934           4.629968
    4    3        10.800000       -99.1854           0.786571           0.786571           3.761152
    3    1         5.800000       -50.8549           0.274880           1.094176           4.518138
    1    0         0.800000        -8.7059           0.662839           0.662839           5.361532
    5    4        16.000000      -139.3222           0.825990           0.825990           3.625711
    3    2         4.900000       -36.2967           0.968267           0.968267           4.862000
 
 
  O                    hydrogenic:
 
  List of hydrogenic basis orbitals: 
    n    l      effective z      eigenvalue [eV]  inner max. [A]     outer max. [A]     outer radius [A]   
    2    1         1.800000       -11.0118           1.178562           1.178562           5.432602
    3    2         7.600000       -87.3182           0.624125           0.624125           3.541477
    3    0         6.400000       -61.9209           0.061167           1.081902           4.306578
    4    3        11.600000      -114.4238           0.731631           0.731631           3.585037
    3    1         6.200000       -58.1113           0.255680           1.030270           4.306578
    3    2         5.600000       -47.4081           0.847233           0.847233           4.413171
    5    4        17.600000      -168.5799           0.749740           0.749740           3.372465
    1    0         0.750000        -7.6499           0.705284           0.705284           5.366593
 

  Adding cutoff potential to free-atom effective potential.
  Creating atomic-like basis functions for current effective potential.

  Species H                   :

  List of atomic basis orbitals and eigenvalues:
    n    l      energy [Ha]    energy [eV]    outer radius [A]
    1    0        -0.238382        -6.4867       5.373006


  Species C                   :

  List of atomic basis orbitals and eigenvalues:
    n    l      energy [Ha]    energy [eV]    outer radius [A]
    1    0       -10.041232      -273.2358       1.934409
    2    0        -0.504327       -13.7234       5.271162
    2    1        -0.193750        -5.2722       5.401630


  Species N                   :

  List of atomic basis orbitals and eigenvalues:
    n    l      energy [Ha]    energy [eV]    outer radius [A]
    1    0       -14.129007      -384.4699       1.637919
    2    0        -0.681802       -18.5528       5.168461
    2    1        -0.260543        -7.0897       5.361532


  Species O                   :

  List of atomic basis orbitals and eigenvalues:
    n    l      energy [Ha]    energy [eV]    outer radius [A]
    1    0       -18.898576      -514.2564       1.415765
    2    0        -0.878795       -23.9132       5.048385
    2    1        -0.332075        -9.0362       5.301386

  Assembling full basis from fixed parts.
  | Species H :   atomic orbital   1 s accepted.
  | Species H :    hydro orbital   2 s accepted.
  | Species H :    hydro orbital   1 s accepted.
  | Species H :    hydro orbital   2 s accepted.
  | Species H :    hydro orbital   2 p accepted.
  | Species H :    hydro orbital   2 p accepted.
  | Species H :    hydro orbital   3 d accepted.
  | Species C :   atomic orbital   1 s accepted.
  | Species C :    hydro orbital   2 s accepted.
  | Species C :   atomic orbital   2 s accepted.
  | Species C :    hydro orbital   3 s accepted.
  | Species C :    hydro orbital   3 p accepted.
  | Species C :   atomic orbital   2 p accepted.
  | Species C :    hydro orbital   2 p accepted.
  | Species C :    hydro orbital   3 d accepted.
  | Species C :    hydro orbital   3 d accepted.
  | Species C :    hydro orbital   4 f accepted.
  | Species C :    hydro orbital   5 g accepted.
  | Species N :   atomic orbital   1 s accepted.
  | Species N :    hydro orbital   3 s accepted.
  | Species N :   atomic orbital   2 s accepted.
  | Species N :    hydro orbital   1 s accepted.
  | Species N :    hydro orbital   3 p accepted.
  | Species N :   atomic orbital   2 p accepted.
  | Species N :    hydro orbital   2 p accepted.
  | Species N :    hydro orbital   3 d accepted.
  | Species N :    hydro orbital   3 d accepted.
  | Species N :    hydro orbital   4 f accepted.
  | Species N :    hydro orbital   5 g accepted.
  | Species O :   atomic orbital   1 s accepted.
  | Species O :    hydro orbital   3 s accepted.
  | Species O :   atomic orbital   2 s accepted.
  | Species O :    hydro orbital   1 s accepted.
  | Species O :    hydro orbital   3 p accepted.
  | Species O :   atomic orbital   2 p accepted.
  | Species O :    hydro orbital   2 p accepted.
  | Species O :    hydro orbital   3 d accepted.
  | Species O :    hydro orbital   3 d accepted.
  | Species O :    hydro orbital   4 f accepted.
  | Species O :    hydro orbital   5 g accepted.
 
  Basis size parameters after reduction:
  | Total number of radial functions:       40
  | Total number of basis functions :      840
 
  Testing on-site integration grid accuracy.
  |  Species  Function  <phi|h_atom|phi> (log., in eV)  <phi|h_atom|phi> (rad., in eV)
           1        1                 -6.4869821809                 -6.4870742227
           1        2                 13.5044133542                 13.5041049177
           1        3                 32.7854418792                 32.7779770519
           1        4                 33.7995553101                 33.7152624900 ***
           1        5                 28.8558651799                 28.8558652046
           1        6                 59.6361831893                 59.6362535845
           1        7                 60.2733718049                 60.2733715484
           2        8               -273.2358277112               -273.2358261765
           2        9                -10.7624923123                -10.7625144012
           2       10                 17.4634079027                 17.4634252127
           2       11                 53.0363661832                 53.0366180446
           2       12                 15.0981351967                 15.0981317714
           2       13                  3.8522181899                  3.8522770949
           2       14                 12.1181835661                 12.1206868578
           2       15                 29.4320778347                 29.4320780959
           2       16                 54.8753777694                 54.8752901936
           2       17                 59.3533975461                 59.3533974833
           2       18                 93.4537491195                 93.4537492066
           3       19               -384.4698526889               -384.4698499465
           3       20                 12.5691022037                 12.5690910168
           3       21                -15.7489097511                -15.7489165588
           3       22                 27.0978334940                 27.0985589490
           3       23                 18.5949116966                 18.5949125562
           3       24                  1.2212828291                  1.2212855301
           3       25                 13.4428926797                 13.4434051125
           3       26                 35.9380614500                 35.9380613666
           3       27                 39.9231532098                 39.9231654735
           3       28                 72.9957335806                 72.9957336833
           3       29                116.4231321147                116.4231321431
           4       30               -514.2564144315               -514.2564099626
           4       31                 15.1726678541                 15.1726530877
           4       32                -21.5447785304                -21.5447874973
           4       33                 14.4944558459                 14.4944698284
           4       34                 20.8882174564                 20.8882178906
           4       35                 -2.4850315908                 -2.4850322289
           4       36                 13.8600193195                 13.8599826966
           4       37                 45.8243383616                 45.8243383675
           4       38                 52.1840606465                 52.1840622440
           4       39                 85.4074185510                 85.4074185819
           4       40                142.0983717302                142.0983717339
 * Note: Onsite integrals marked "***" above are less accurate than
 * onsite_accuracy_threshold =    0.03000 eV. Usually, this is harmless.
 * When in doubt, tighten the "radial" and/or "radial_multiplier" flags to check.

  Preparing densities etc. for the partition functions (integrals / Hartree potential).

  Preparations completed.
  max(cpu_time)          :      0.240 s.
  Wall clock time (cpu1) :      0.237 s.
------------------------------------------------------------

------------------------------------------------------------
          Begin self-consistency loop: Initialization.

          Date     :  20170309, Time     :  183241.588
------------------------------------------------------------

  Initializing index lists of integration centers etc. from given atomic structure:
  | Number of centers in hartree potential         :        32
  | Number of centers in hartree multipole         :        32
  | Number of centers in electron density summation:        32
  | Number of centers in basis integrals           :        32
  | Number of centers in integrals                 :        32
  | Number of centers in hamiltonian               :        32
  Using modified Scalapack Eigenvalue solver (ELPA)
  * Using 32 tasks for Scalapack Eigenvalue solver.
  Detailed listing of tasks and assigned k-points:
  (for non-periodic systems, the "k-point" denotes an internal label only)
   Task     0 k-point     1 on eos366
   Task     1 k-point     1 on eos366
   Task     2 k-point     1 on eos366
   Task     3 k-point     1 on eos366
   Task     4 k-point     1 on eos366
   Task     5 k-point     1 on eos366
   Task     6 k-point     1 on eos366
   Task     7 k-point     1 on eos366
   Task     8 k-point     1 on eos366
   Task     9 k-point     1 on eos366
   Task    10 k-point     1 on eos366
   Task    11 k-point     1 on eos366
   Task    12 k-point     1 on eos366
   Task    13 k-point     1 on eos366
   Task    14 k-point     1 on eos366
   Task    15 k-point     1 on eos366
   Task    16 k-point     1 on eos366
   Task    17 k-point     1 on eos366
   Task    18 k-point     1 on eos366
   Task    19 k-point     1 on eos366
   Task    20 k-point     1 on eos366
   Task    21 k-point     1 on eos366
   Task    22 k-point     1 on eos366
   Task    23 k-point     1 on eos366
   Task    24 k-point     1 on eos366
   Task    25 k-point     1 on eos366
   Task    26 k-point     1 on eos366
   Task    27 k-point     1 on eos366
   Task    28 k-point     1 on eos366
   Task    29 k-point     1 on eos366
   Task    30 k-point     1 on eos366
   Task    31 k-point     1 on eos366
  Tasks:    32 split into      8 X      4 BLACS grid
  Calculating blocksize based on n_basis =          840 max_nprow =            8 max_npcol =            4
  Scalapack blocksize set to:           16
  Required Scalapack workspace - INTEGER:            1 REAL:             1
  Partitioning the integration grid into batches with parallel hashing+maxmin method.
  | Number of batches:     5055
  | Maximal batch size:     198
  | Minimal batch size:      46
  | Average batch size:     104.397
  | Standard deviation of batch sizes:      29.158

  Integration load balanced across    32 MPI tasks.
  Work distribution over tasks is as follows:
  Task     0 has      16496 integration points.
  Task     1 has      16480 integration points.
  Task     2 has      16523 integration points.
  Task     3 has      16458 integration points.
  Task     4 has      16470 integration points.
  Task     5 has      16509 integration points.
  Task     6 has      16464 integration points.
  Task     7 has      16455 integration points.
  Task     8 has      16514 integration points.
  Task     9 has      16507 integration points.
  Task    10 has      16505 integration points.
  Task    11 has      16464 integration points.
  Task    12 has      16472 integration points.
  Task    13 has      16513 integration points.
  Task    14 has      16473 integration points.
  Task    15 has      16495 integration points.
  Task    16 has      16487 integration points.
  Task    17 has      16519 integration points.
  Task    18 has      16469 integration points.
  Task    19 has      16482 integration points.
  Task    20 has      16495 integration points.
  Task    21 has      16555 integration points.
  Task    22 has      16467 integration points.
  Task    23 has      16486 integration points.
  Task    24 has      16480 integration points.
  Task    25 has      16604 integration points.
  Task    26 has      16463 integration points.
  Task    27 has      16479 integration points.
  Task    28 has      16475 integration points.
  Task    29 has      16481 integration points.
  Task    30 has      16508 integration points.
  Task    31 has      16480 integration points.
  Initializing partition tables, free-atom densities, potentials, etc. across the integration grid (initialize_grid_storage).
  | initialize_grid_storage: Actual outermost partition radius vs. multipole_radius_free
  | (-- VB: in principle, multipole_radius_free should be larger, hence this output)
  | Species        1: Confinement radius =              6.000000000000000 AA, multipole_radius_free =              6.071692442739658 AA.
  | Species        1: outer_partition_radius set to              6.071692442739658 AA .
  | Species        2: Confinement radius =              6.000000000000000 AA, multipole_radius_free =              6.029870734432609 AA.
  | Species        2: outer_partition_radius set to              6.029870734432609 AA .
  | Species        3: Confinement radius =              6.000000000000000 AA, multipole_radius_free =              6.058726835495003 AA.
  | Species        3: outer_partition_radius set to              6.058726835495003 AA .
  | Species        4: Confinement radius =              6.000000000000000 AA, multipole_radius_free =              6.064445521808699 AA.
  | Species        4: outer_partition_radius set to              6.064445521808699 AA .
  | Original list of interatomic distances with          32 x         32 entries is created.
  | Net number of integration points:   527728
  | of which are non-zero points    :   415095
  Obtaining max. number of non-zero basis functions in each batch (get_n_compute_maxes).
  | Maximal number of non-zero basis functions:      768 in task     0
  | Maximal number of non-zero basis functions:      774 in task     1
  | Maximal number of non-zero basis functions:      782 in task     2
  | Maximal number of non-zero basis functions:      775 in task     3
  | Maximal number of non-zero basis functions:      781 in task     4
  | Maximal number of non-zero basis functions:      770 in task     5
  | Maximal number of non-zero basis functions:      781 in task     6
  | Maximal number of non-zero basis functions:      756 in task     7
  | Maximal number of non-zero basis functions:      764 in task     8
  | Maximal number of non-zero basis functions:      780 in task     9
  | Maximal number of non-zero basis functions:      765 in task    10
  | Maximal number of non-zero basis functions:      782 in task    11
  | Maximal number of non-zero basis functions:      771 in task    12
  | Maximal number of non-zero basis functions:      772 in task    13
  | Maximal number of non-zero basis functions:      772 in task    14
  | Maximal number of non-zero basis functions:      763 in task    15
  | Maximal number of non-zero basis functions:      789 in task    16
  | Maximal number of non-zero basis functions:      778 in task    17
  | Maximal number of non-zero basis functions:      777 in task    18
  | Maximal number of non-zero basis functions:      754 in task    19
  | Maximal number of non-zero basis functions:      773 in task    20
  | Maximal number of non-zero basis functions:      760 in task    21
  | Maximal number of non-zero basis functions:      776 in task    22
  | Maximal number of non-zero basis functions:      782 in task    23
  | Maximal number of non-zero basis functions:      764 in task    24
  | Maximal number of non-zero basis functions:      766 in task    25
  | Maximal number of non-zero basis functions:      772 in task    26
  | Maximal number of non-zero basis functions:      783 in task    27
  | Maximal number of non-zero basis functions:      773 in task    28
  | Maximal number of non-zero basis functions:      758 in task    29
  | Maximal number of non-zero basis functions:      772 in task    30
  | Maximal number of non-zero basis functions:      775 in task    31
  Selecting the method for density update.
  Loop over occupied states selected for charge density update.
  Integrating Hamiltonian matrix: batch-based integration.
  Time summed over all CPUs for integration: real work       22.131 s, elapsed       22.874 s
  Integrating overlap matrix.
  Time summed over all CPUs for integration: real work       13.460 s, elapsed       13.948 s
  Deallocating overlap matrix.

  Updating Kohn-Sham eigenvalues, eigenvectors, occupation numbers, and Fermi level.
  Solving generalized eigenproblem
  Solving real symmetric generalised eigenvalue problem by standard ScaLAPACK.
  Transforming overlap matrix with ScaLAPACK and checking for singularities.
  : Overlap matrix is nonsingular, using Cholesky decomposition
  | Lowest eigenvalue:  0.966870E-04
  Factoring overlap matrix with Cholesky decomposition
  Using Cholesky factor for transformation
  Using 1-stage real ELPA solver
  Determining occupation numbers for Kohn-Sham eigenstates.
  | Chemical potential (Fermi level) in eV                 : -.95357009E+01
  | Error in electron count due to remaining E_F inaccuracy: 0.00000000E+00
  | Maximum occupation number of highest empty state:  0.00E+00

  Writing Kohn-Sham eigenvalues.

  State    Occupation    Eigenvalue [Ha]    Eigenvalue [eV]
      1       2.00000         -18.974771         -516.32980
      2       2.00000         -18.974032         -516.30967
      3       2.00000         -18.973574         -516.29721
      4       2.00000         -14.254583         -387.88695
      5       2.00000         -14.253081         -387.84608
      6       2.00000         -14.252763         -387.83742
      7       2.00000         -10.170747         -276.76010
      8       2.00000         -10.170737         -276.75982
      9       2.00000         -10.170646         -276.75736
     10       2.00000         -10.166500         -276.64453
     11       2.00000         -10.149838         -276.19115
     12       2.00000         -10.147582         -276.12976
     13       2.00000         -10.135476         -275.80034
     14       2.00000         -10.133983         -275.75970
     15       2.00000         -10.133935         -275.75841
     16       2.00000          -1.134731          -30.87760
     17       2.00000          -1.131471          -30.78890
     18       2.00000          -1.129123          -30.72499
     19       2.00000          -1.013159          -27.56946
     20       2.00000          -1.012013          -27.53826
     21       2.00000          -1.006792          -27.39620
     22       2.00000          -0.881028          -23.97400
     23       2.00000          -0.875096          -23.81257
     24       2.00000          -0.846760          -23.04151
     25       2.00000          -0.816399          -22.21535
     26       2.00000          -0.782672          -21.29760
     27       2.00000          -0.764812          -20.81158
     28       2.00000          -0.706306          -19.21957
     29       2.00000          -0.687543          -18.70899
     30       2.00000          -0.669410          -18.21558
     31       2.00000          -0.626598          -17.05060
     32       2.00000          -0.620870          -16.89474
     33       2.00000          -0.612144          -16.65729
     34       2.00000          -0.604531          -16.45014
     35       2.00000          -0.596352          -16.22757
     36       2.00000          -0.584025          -15.89214
     37       2.00000          -0.567313          -15.43738
     38       2.00000          -0.562870          -15.31647
     39       2.00000          -0.557503          -15.17043
     40       2.00000          -0.553024          -15.04854
     41       2.00000          -0.548282          -14.91952
     42       2.00000          -0.542796          -14.77024
     43       2.00000          -0.539981          -14.69363
     44       2.00000          -0.527071          -14.34232
     45       2.00000          -0.523729          -14.25139
     46       2.00000          -0.514358          -13.99640
     47       2.00000          -0.510335          -13.88693
     48       2.00000          -0.497135          -13.52774
     49       2.00000          -0.491169          -13.36538
     50       2.00000          -0.490576          -13.34926
     51       2.00000          -0.483414          -13.15435
     52       2.00000          -0.478180          -13.01195
     53       2.00000          -0.407137          -11.07877
     54       2.00000          -0.406020          -11.04836
     55       2.00000          -0.400803          -10.90641
     56       2.00000          -0.385053          -10.47783
     57       2.00000          -0.383755          -10.44251
     58       2.00000          -0.380310          -10.34877
     59       0.00000          -0.173575           -4.72322
     60       0.00000          -0.160126           -4.35724
     61       0.00000          -0.152623           -4.15309
     62       0.00000          -0.084414           -2.29703
     63       0.00000          -0.072885           -1.98330
     64       0.00000          -0.062797           -1.70878
     65       0.00000          -0.055098           -1.49929
     66       0.00000          -0.044620           -1.21416
     67       0.00000          -0.039792           -1.08280
     68       0.00000          -0.033962           -0.92415
     69       0.00000          -0.027748           -0.75507
     70       0.00000          -0.023659           -0.64379
     71       0.00000          -0.019373           -0.52715
     72       0.00000          -0.016499           -0.44896
     73       0.00000          -0.013337           -0.36292
     74       0.00000          -0.008637           -0.23501
     75       0.00000          -0.007065           -0.19226
     76       0.00000          -0.005934           -0.16147
     77       0.00000           0.003844            0.10459
     78       0.00000           0.006561            0.17853
     79       0.00000           0.011336            0.30846
     80       0.00000           0.018890            0.51403
     81       0.00000           0.021832            0.59409
     82       0.00000           0.032274            0.87823
     83       0.00000           0.039047            1.06251
     84       0.00000           0.043090            1.17253
     85       0.00000           0.047262            1.28606
     86       0.00000           0.053607            1.45873
     87       0.00000           0.056837            1.54661
     88       0.00000           0.062501            1.70073
     89       0.00000           0.067820            1.84547
     90       0.00000           0.073832            2.00906
     91       0.00000           0.081405            2.21516
     92       0.00000           0.087683            2.38597
     93       0.00000           0.088982            2.42131
     94       0.00000           0.094861            2.58129
     95       0.00000           0.096001            2.61231
     96       0.00000           0.106840            2.90728
     97       0.00000           0.110720            3.01284
     98       0.00000           0.115190            3.13449
     99       0.00000           0.120779            3.28657
    100       0.00000           0.127314            3.46440
    101       0.00000           0.132315            3.60047
    102       0.00000           0.137174            3.73269
    103       0.00000           0.139716            3.80185
    104       0.00000           0.146068            3.97472
    105       0.00000           0.152557            4.15128
    106       0.00000           0.154577            4.20625
    107       0.00000           0.155732            4.23767
    108       0.00000           0.156919            4.26999
    109       0.00000           0.165682            4.50843
    110       0.00000           0.169153            4.60288
    111       0.00000           0.173508            4.72140
    112       0.00000           0.178822            4.86600
    113       0.00000           0.188590            5.13181
    114       0.00000           0.189355            5.15262
    115       0.00000           0.196093            5.33597
    116       0.00000           0.197541            5.37535
    117       0.00000           0.208398            5.67079
    118       0.00000           0.210992            5.74139
    119       0.00000           0.215747            5.87077
    120       0.00000           0.220282            5.99418
    121       0.00000           0.224652            6.11309
    122       0.00000           0.232705            6.33222
    123       0.00000           0.240555            6.54584
    124       0.00000           0.245545            6.68162
    125       0.00000           0.248111            6.75144
    126       0.00000           0.251270            6.83739
    127       0.00000           0.255970            6.96530
    128       0.00000           0.259179            7.05262
    129       0.00000           0.270242            7.35366

  Highest occupied state (VBM) at    -10.34877234 eV
  | Occupation number:      2.00000000

  Lowest unoccupied state (CBM) at    -4.72321557 eV
  | Occupation number:      0.00000000

  Overall HOMO-LUMO gap:      5.62555677 eV.
  Calculating total energy contributions from superposition of free atom densities.

  Total energy components:
  | Sum of eigenvalues            :        -437.82980192 Ha      -11913.95508548 eV
  | XC energy correction          :         -98.81837324 Ha       -2688.98474994 eV
  | XC potential correction       :         127.01923059 Ha        3456.36912251 eV
  | Free-atom electrostatic energy:        -333.64560156 Ha       -9078.95875081 eV
  | Hartree energy correction     :           0.00000000 Ha           0.00000000 eV
  | MBD@rsSCS energy              :           0.00000000 Ha           0.00000000 eV
  | Entropy correction            :          -0.00000000 Ha          -0.00000000 eV
  | ---------------------------
  | Total energy                  :        -743.27454613 Ha      -20225.52946371 eV
  | Total energy, T -> 0          :        -743.27454613 Ha      -20225.52946371 eV  <-- do not rely on this value for anything but (periodic) metals
  | Electronic free energy        :        -743.27454613 Ha      -20225.52946371 eV

  Derived energy quantities:
  | Kinetic energy                :         735.15763935 Ha       20004.65719252 eV
  | Electrostatic energy          :       -1379.61381224 Ha      -37541.20190630 eV
  | Energy correction for multipole
  | error in Hartree potential    :           0.00000000 Ha           0.00000000 eV
  | Sum of eigenvalues per atom                           :        -372.31109642 eV
  | Total energy (T->0) per atom                          :        -632.04779574 eV  <-- do not rely on this value for anything but (periodic) metals
  | Electronic free energy per atom                       :        -632.04779574 eV
  Initialize hartree_potential_storage
  Max. number of atoms included in rho_multipole:           32

  End scf initialization - timings             :  max(cpu_time)    wall_clock(cpu1)
  | Time for scf. initialization               :        1.856 s           1.853 s
  | Boundary condition initialization          :        0.004 s           0.001 s
  | Integration                                :        1.176 s           1.172 s
  | Solution of K.-S. eqns.                    :        0.076 s           0.075 s
  | Grid partitioning                          :        0.264 s           0.254 s
  | Preloading free-atom quantities on grid    :        0.028 s           0.028 s
  | Free-atom superposition energy             :        0.040 s           0.039 s
  | Total energy evaluation                    :        0.004 s           0.000 s
------------------------------------------------------------

------------------------------------------------------------
          Begin self-consistency iteration #    1

  Date     :  20170309, Time     :  183243.442
------------------------------------------------------------
  Evaluating new KS density.
  Integration grid: deviation in total charge (<rho> - N_e) =   4.263256E-14
  Pulay mixing of updated and previous charge densities.

  Evaluating partitioned Hartree potential by multipole expansion.
  | Analytical far-field extrapolation by fixed multipoles:
  | Hartree multipole sum: apparent total charge =   0.236266E-04
  Summing up the Hartree potential.
  Time summed over all CPUs for potential: real work        9.600 s, elapsed        9.895 s
  | RMS charge density error from multipole expansion :   0.105013E-01

  Integrating Hamiltonian matrix: batch-based integration.
  Time summed over all CPUs for integration: real work       21.883 s, elapsed       22.644 s

  Updating Kohn-Sham eigenvalues, eigenvectors, occupation numbers, and Fermi level.
  Solving generalized eigenproblem
  Solving real symmetric generalised eigenvalue problem by standard ScaLAPACK.
  Using Cholesky factor for transformation
  Using 2-stage real ELPA solver
  K-Point:    1, Trafo times: 1-stage=     0.021 s, 2-stage=     0.019 s ==> Using 2-stage solver
  Determining occupation numbers for Kohn-Sham eigenstates.
  | Chemical potential (Fermi level) in eV                 : -.22262282E+01
  | Error in electron count due to remaining E_F inaccuracy: 0.00000000E+00
  | Maximum occupation number of highest empty state:  0.00E+00

  Writing Kohn-Sham eigenvalues.

  State    Occupation    Eigenvalue [Ha]    Eigenvalue [eV]
      1       2.00000         -18.628211         -506.89942
      2       2.00000         -18.616743         -506.58734
      3       2.00000         -18.596628         -506.03999
      4       2.00000         -13.998710         -380.92429
      5       2.00000         -13.996451         -380.86280
      6       2.00000         -13.973545         -380.23952
      7       2.00000         -10.065379         -273.89288
      8       2.00000         -10.054399         -273.59412
      9       2.00000         -10.039314         -273.18364
     10       2.00000          -9.982061         -271.62569
     11       2.00000          -9.950191         -270.75848
     12       2.00000          -9.912087         -269.72160
     13       2.00000          -9.853916         -268.13871
     14       2.00000          -9.841204         -267.79278
     15       2.00000          -9.817266         -267.14139
     16       2.00000          -0.974620          -26.52076
     17       2.00000          -0.962268          -26.18465
     18       2.00000          -0.941933          -25.63130
     19       2.00000          -0.871360          -23.71092
     20       2.00000          -0.868182          -23.62444
     21       2.00000          -0.849366          -23.11243
     22       2.00000          -0.740614          -20.15313
     23       2.00000          -0.714043          -19.43011
     24       2.00000          -0.689140          -18.75246
     25       2.00000          -0.687606          -18.71070
     26       2.00000          -0.646665          -17.59665
     27       2.00000          -0.618401          -16.82755
     28       2.00000          -0.583474          -15.87712
     29       2.00000          -0.551279          -15.00107
     30       2.00000          -0.540201          -14.69962
     31       2.00000          -0.496655          -13.51467
     32       2.00000          -0.488718          -13.29869
     33       2.00000          -0.473655          -12.88880
     34       2.00000          -0.463426          -12.61045
     35       2.00000          -0.461208          -12.55012
     36       2.00000          -0.452262          -12.30668
     37       2.00000          -0.427397          -11.63006
     38       2.00000          -0.421872          -11.47972
     39       2.00000          -0.416318          -11.32859
     40       2.00000          -0.410337          -11.16584
     41       2.00000          -0.394931          -10.74661
     42       2.00000          -0.391983          -10.66639
     43       2.00000          -0.385745          -10.49664
     44       2.00000          -0.377221          -10.26472
     45       2.00000          -0.375569          -10.21976
     46       2.00000          -0.368736          -10.03383
     47       2.00000          -0.360486           -9.80932
     48       2.00000          -0.355564           -9.67539
     49       2.00000          -0.343624           -9.35048
     50       2.00000          -0.341592           -9.29519
     51       2.00000          -0.336818           -9.16528
     52       2.00000          -0.324576           -8.83216
     53       2.00000          -0.243353           -6.62197
     54       2.00000          -0.238971           -6.50272
     55       2.00000          -0.226137           -6.15350
     56       2.00000          -0.218065           -5.93384
     57       2.00000          -0.208219           -5.66592
     58       2.00000          -0.194723           -5.29868
     59       0.00000          -0.061350           -1.66942
     60       0.00000          -0.048640           -1.32357
     61       0.00000          -0.046406           -1.26277
     62       0.00000          -0.030138           -0.82011
     63       0.00000          -0.026725           -0.72723
     64       0.00000          -0.020208           -0.54990
     65       0.00000          -0.011670           -0.31756
     66       0.00000           0.004008            0.10906
     67       0.00000           0.012473            0.33942
     68       0.00000           0.016518            0.44947
     69       0.00000           0.024618            0.66989
     70       0.00000           0.027002            0.73476
     71       0.00000           0.035203            0.95792
     72       0.00000           0.042022            1.14346
     73       0.00000           0.046785            1.27308
     74       0.00000           0.048917            1.33111
     75       0.00000           0.054908            1.49413
     76       0.00000           0.060491            1.64605
     77       0.00000           0.064385            1.75200
     78       0.00000           0.071340            1.94126
     79       0.00000           0.078355            2.13215
     80       0.00000           0.087518            2.38147
     81       0.00000           0.089861            2.44523
     82       0.00000           0.094888            2.58203
     83       0.00000           0.099328            2.70285
     84       0.00000           0.105450            2.86945
     85       0.00000           0.114470            3.11489
     86       0.00000           0.116944            3.18222
     87       0.00000           0.121145            3.29652
     88       0.00000           0.131806            3.58663
     89       0.00000           0.134379            3.65664
     90       0.00000           0.142909            3.88876
     91       0.00000           0.146126            3.97628
     92       0.00000           0.153959            4.18945
     93       0.00000           0.158622            4.31632
     94       0.00000           0.161322            4.38980
     95       0.00000           0.164227            4.46886
     96       0.00000           0.170542            4.64068
     97       0.00000           0.172651            4.69808
     98       0.00000           0.183061            4.98135
     99       0.00000           0.184857            5.03021
    100       0.00000           0.189094            5.14550
    101       0.00000           0.194620            5.29587
    102       0.00000           0.199482            5.42819
    103       0.00000           0.206008            5.60577
    104       0.00000           0.207205            5.63834
    105       0.00000           0.210166            5.71892
    106       0.00000           0.213707            5.81526
    107       0.00000           0.216656            5.89550
    108       0.00000           0.222929            6.06620
    109       0.00000           0.223482            6.08124
    110       0.00000           0.227337            6.18615
    111       0.00000           0.234866            6.39104
    112       0.00000           0.236904            6.44649
    113       0.00000           0.243572            6.62794
    114       0.00000           0.255466            6.95159
    115       0.00000           0.261777            7.12330
    116       0.00000           0.265755            7.23157
    117       0.00000           0.272498            7.41506
    118       0.00000           0.276992            7.53733
    119       0.00000           0.279207            7.59760
    120       0.00000           0.285693            7.77410
    121       0.00000           0.290657            7.90917
    122       0.00000           0.300892            8.18770
    123       0.00000           0.306315            8.33525
    124       0.00000           0.311884            8.48681
    125       0.00000           0.314905            8.56900
    126       0.00000           0.321246            8.74155
    127       0.00000           0.327217            8.90402
    128       0.00000           0.330393            8.99046
    129       0.00000           0.338141            9.20130

  Highest occupied state (VBM) at     -5.29868177 eV
  | Occupation number:      2.00000000

  Lowest unoccupied state (CBM) at    -1.66942275 eV
  | Occupation number:      0.00000000

  Overall HOMO-LUMO gap:      3.62925903 eV.

  Total energy components:
  | Sum of eigenvalues            :        -417.52683016 Ha      -11361.48311464 eV
  | XC energy correction          :        -100.74837205 Ha       -2741.50268949 eV
  | XC potential correction       :         129.52190869 Ha        3524.47045862 eV
  | Free-atom electrostatic energy:        -333.64560156 Ha       -9078.95875081 eV
  | Hartree energy correction     :         -20.30645367 Ha        -552.56671859 eV
  | MBD@rsSCS energy              :           0.00000000 Ha           0.00000000 eV
  | Entropy correction            :          -0.00000000 Ha          -0.00000000 eV
  | ---------------------------
  | Total energy                  :        -742.70534875 Ha      -20210.04081491 eV
  | Total energy, T -> 0          :        -742.70534875 Ha      -20210.04081491 eV  <-- do not rely on this value for anything but (periodic) metals
  | Electronic free energy        :        -742.70534875 Ha      -20210.04081491 eV

  Derived energy quantities:
  | Kinetic energy                :         744.02622616 Ha       20245.98371824 eV
  | Electrostatic energy          :       -1385.98320286 Ha      -37714.52184366 eV
  | Energy correction for multipole
  | error in Hartree potential    :          -0.04063299 Ha          -1.10567983 eV
  | Sum of eigenvalues per atom                           :        -355.04634733 eV
  | Total energy (T->0) per atom                          :        -631.56377547 eV  <-- do not rely on this value for anything but (periodic) metals
  | Electronic free energy per atom                       :        -631.56377547 eV

  Self-consistency convergence accuracy:
  | Change of charge density      :  0.9040E+00
  | Change of sum of eigenvalues  :  0.5525E+03 eV
  | Change of total energy        :  0.1549E+02 eV

  End self-consistency iteration #     1       :  max(cpu_time)    wall_clock(cpu1)
  | Time for this iteration                    :        1.564 s           1.562 s
[...]
   Multipole                     : -0.340926E+00  0.365422E+00 -0.327494E+00
   Pulay + GGA                   : -0.924841E+01  0.581013E+01 -0.743978E+01
   MBD@rsSCS                     :  0.133042E-01  0.221699E-01 -0.102936E-01
   ----------------------------------------------------------------
   Total forces(  20)            :  0.285388E-01  0.311298E-01 -0.368031E-03
  atom #   21
   Hellmann-Feynman              :  0.696671E-01 -0.461119E-02  0.114163E-01
   Ionic forces                  :  0.000000E+00  0.000000E+00  0.000000E+00
   Multipole                     : -0.300828E-01 -0.264183E-01 -0.210284E-01
   Pulay + GGA                   : -0.459018E-01  0.445893E-01  0.172336E-01
   MBD@rsSCS                     :  0.214384E-03 -0.772514E-02 -0.490914E-02
   ----------------------------------------------------------------
   Total forces(  21)            : -0.610321E-02  0.583459E-02  0.271242E-02
  atom #   22
   Hellmann-Feynman              :  0.474772E-01 -0.146957E-01 -0.114388E-01
   Ionic forces                  :  0.000000E+00  0.000000E+00  0.000000E+00
   Multipole                     :  0.305133E-03 -0.133306E-01 -0.656837E-02
   Pulay + GGA                   : -0.615592E-01  0.195672E-01  0.600608E-02
   MBD@rsSCS                     : -0.411075E-02 -0.652356E-02 -0.328226E-02
   ----------------------------------------------------------------
   Total forces(  22)            : -0.178876E-01 -0.149826E-01 -0.152834E-01
  atom #   23
   Hellmann-Feynman              :  0.404248E+00  0.119198E+00 -0.105951E+01
   Ionic forces                  :  0.000000E+00  0.000000E+00  0.000000E+00
   Multipole                     : -0.175980E+00  0.772778E-01  0.295558E+00
   Pulay + GGA                   : -0.234384E+00 -0.195746E+00  0.777232E+00
   MBD@rsSCS                     :  0.130398E-01 -0.115271E-01  0.200885E-01
   ----------------------------------------------------------------
   Total forces(  23)            :  0.692367E-02 -0.107982E-01  0.333714E-01
  atom #   24
   Hellmann-Feynman              :  0.818405E-02  0.174124E-01  0.378614E-01
   Ionic forces                  :  0.000000E+00  0.000000E+00  0.000000E+00
   Multipole                     :  0.299781E-01  0.862708E-02 -0.687597E-02
   Pulay + GGA                   : -0.488231E-01 -0.271199E-01 -0.280826E-01
   MBD@rsSCS                     : -0.852691E-02 -0.425964E-02  0.120709E-01
   ----------------------------------------------------------------
   Total forces(  24)            : -0.191878E-01 -0.534007E-02  0.149737E-01
  atom #   25
   Hellmann-Feynman              : -0.360002E-01  0.253534E-01  0.225140E-01
   Ionic forces                  :  0.000000E+00  0.000000E+00  0.000000E+00
   Multipole                     : -0.178756E-01  0.154716E-01 -0.133194E-01
   Pulay + GGA                   :  0.541864E-01 -0.390056E-01 -0.147454E-02
   MBD@rsSCS                     :  0.151082E-01 -0.207858E-02  0.180548E-01
   ----------------------------------------------------------------
   Total forces(  25)            :  0.154187E-01 -0.259197E-03  0.257749E-01
  atom #   26
   Hellmann-Feynman              : -0.142412E-01 -0.122555E-01  0.419620E-01
   Ionic forces                  :  0.000000E+00  0.000000E+00  0.000000E+00
   Multipole                     :  0.976244E-02 -0.364580E-01 -0.180112E-01
   Pulay + GGA                   : -0.452859E-02  0.551355E-01 -0.287775E-01
   MBD@rsSCS                     :  0.235645E-02  0.136340E-02  0.110189E-01
   ----------------------------------------------------------------
   Total forces(  26)            : -0.665086E-02  0.778539E-02  0.619215E-02
  atom #   27
   Hellmann-Feynman              :  0.143649E+01 -0.650163E+00  0.350481E+00
   Ionic forces                  :  0.000000E+00  0.000000E+00  0.000000E+00
   Multipole                     :  0.172839E+00 -0.171542E-01  0.790878E-01
   Pulay + GGA                   : -0.161778E+01  0.668843E+00 -0.435167E+00
   MBD@rsSCS                     :  0.160863E-01  0.156501E-01 -0.414797E-02
   ----------------------------------------------------------------
   Total forces(  27)            :  0.763456E-02  0.171755E-01 -0.974647E-02
  atom #   28
   Hellmann-Feynman              : -0.182292E+01  0.611617E+00 -0.992301E+00
   Ionic forces                  :  0.000000E+00  0.000000E+00  0.000000E+00
   Multipole                     :  0.980015E-01 -0.544940E-01  0.585778E-01
   Pulay + GGA                   :  0.172448E+01 -0.554687E+00  0.935971E+00
   MBD@rsSCS                     :  0.127166E-01  0.604962E-02 -0.170713E-02
   ----------------------------------------------------------------
   Total forces(  28)            :  0.122741E-01  0.848619E-02  0.540237E-03
  atom #   29
   Hellmann-Feynman              :  0.474145E-01  0.429039E-01  0.648630E-02
   Ionic forces                  :  0.000000E+00  0.000000E+00  0.000000E+00
   Multipole                     : -0.344342E-01  0.118498E-01 -0.208967E-01
   Pulay + GGA                   : -0.167709E-01 -0.634784E-01  0.180049E-01
   MBD@rsSCS                     : -0.226259E-03  0.669263E-02 -0.357223E-02
   ----------------------------------------------------------------
   Total forces(  29)            : -0.401687E-02 -0.203202E-02  0.223079E-04
  atom #   30
   Hellmann-Feynman              :  0.484972E-01  0.680591E-02  0.169366E-01
   Ionic forces                  :  0.000000E+00  0.000000E+00  0.000000E+00
   Multipole                     : -0.871170E-02  0.390715E-01 -0.144214E-01
   Pulay + GGA                   : -0.443233E-01 -0.501146E-01 -0.160488E-02
   MBD@rsSCS                     :  0.617252E-02  0.745778E-03  0.219541E-02
   ----------------------------------------------------------------
   Total forces(  30)            :  0.163478E-02 -0.349148E-02  0.310566E-02
  atom #   31
   Hellmann-Feynman              :  0.155663E-01 -0.263331E-01  0.426810E-01
   Ionic forces                  :  0.000000E+00  0.000000E+00  0.000000E+00
   Multipole                     : -0.129446E-01  0.641405E-02  0.253696E-01
   Pulay + GGA                   :  0.882862E-02  0.264315E-01 -0.621147E-01
   MBD@rsSCS                     :  0.150248E-01  0.524657E-02  0.347057E-02
   ----------------------------------------------------------------
   Total forces(  31)            :  0.264752E-01  0.117590E-01  0.940649E-02
  atom #   32
   Hellmann-Feynman              :  0.232219E-01 -0.479300E-01  0.127918E-01
   Ionic forces                  :  0.000000E+00  0.000000E+00  0.000000E+00
   Multipole                     :  0.118811E-01 -0.112373E-01 -0.287969E-01
   Pulay + GGA                   : -0.314358E-01  0.603743E-01  0.169885E-01
   MBD@rsSCS                     :  0.120908E-01  0.246807E-02  0.121784E-02
   ----------------------------------------------------------------
   Total forces(  32)            :  0.157580E-01  0.367509E-02  0.220131E-02

  Removing unitary transformations (pure translations, rotations) from forces on atoms.
  Atomic forces before filtering:
  | Net force on center of mass :  -0.166040E-03  0.214349E-03 -0.776656E-04 eV/A
  | Net torque on center of mass:   0.236686E-03  0.330074E-03 -0.598881E-03 eV
  Atomic forces after filtering:
  | Net force on center of mass :  -0.473891E-16  0.696899E-18  0.383294E-17 eV/A
  | Net torque on center of mass:   0.353110E-16  0.177016E-16  0.206518E-16 eV

  Energy and forces in a compact form:
  | Total energy uncorrected      :         -0.202087182193742E+05 eV
  | Total energy corrected        :         -0.202087182193742E+05 eV  <-- do not rely on this value for anything but (periodic) metals
  | Electronic free energy        :         -0.202087182193742E+05 eV
  Total atomic forces (unitary forces cleaned) [eV/Ang]:
  |   1         -0.908997735357476E-02          0.564188478426516E-02          0.546224480760518E-02
  |   2         -0.515669779636040E-02         -0.208011162424822E-03          0.131796117850676E-01
  |   3          0.142623713221162E-02         -0.285043824991495E-02         -0.263963784853766E-02
  |   4          0.341833917236033E-02          0.305929159590580E-02         -0.143379001329371E-02
  |   5         -0.504122376596442E-02          0.124434993199603E-01          0.138457875210153E-01
  |   6         -0.111032302615910E-01          0.202668318709686E-01          0.222190516724134E-01
  |   7          0.146616438126878E-02         -0.225151182855525E-01          0.140819000138857E-01
  |   8         -0.260148027594367E-01         -0.166286882492526E-01         -0.270802141372330E-01
  |   9         -0.147268109675295E-01         -0.253359019407067E-01         -0.429385904251248E-02
  |  10          0.213945711416652E-01         -0.160488243080650E-01         -0.365248760706820E-02
  |  11         -0.417844020943876E-02          0.274737103115539E-03          0.111633897768046E-01
  |  12         -0.171192043131090E-01         -0.154674865759732E-01         -0.198973333893639E-01
  |  13          0.281692137054164E-02          0.189438689902914E-01         -0.114050522409136E-01
  |  14         -0.143749028135983E-01         -0.107922679126411E-02         -0.791405714921595E-02
  |  15         -0.806152230688572E-02          0.143873907276533E-01         -0.138880463155945E-01
  |  16          0.661260188490652E-03         -0.690622779385047E-03         -0.201355428899465E-01
  |  17          0.136891175809527E-01         -0.221943081423946E-01         -0.176870828968429E-01
  |  18          0.755233754446975E-03         -0.168489366506665E-01         -0.268363652368248E-02
  |  19          0.834548722691968E-02          0.160785291111421E-01         -0.201412937448236E-01
  |  20          0.285454864878831E-01          0.311238781943581E-01         -0.363615629016878E-03
  |  21         -0.610452046585613E-02          0.582779280908833E-02          0.270805031255350E-02
  |  22         -0.178846425746114E-01         -0.149950967874249E-01         -0.152866838348372E-01
  |  23          0.692963276311920E-02         -0.108104881562953E-01          0.333713289631354E-01
  |  24         -0.191798395114979E-01         -0.535532117604256E-02          0.149740056322595E-01
  |  25          0.154258382901908E-01         -0.269475463649714E-03          0.257771646304544E-01
  |  26         -0.664657647251206E-02          0.777244624301484E-02          0.618994552636673E-02
  |  27          0.764257640371477E-02          0.171628896459759E-01         -0.974458420757015E-02
  |  28          0.122818623473251E-01          0.846953739433367E-02          0.539395148519509E-03
  |  29         -0.400730043568713E-02         -0.204387320514186E-02          0.262218958191093E-04
  |  30          0.164429060402552E-02         -0.350992867184555E-02          0.310561690384899E-02
  |  31          0.264835170511958E-01          0.117404856984530E-01          0.940522804906609E-02
  |  32          0.157631561113411E-01          0.365868310747399E-02          0.219797483163774E-02

  ------------------------------------ 
  Start decomposition of the XC Energy 
  ------------------------------------ 
  Hartree-Fock part   :          0.000000000 Ha              0.000000000 eV
  ------------------------------------ 
  X Energy            :        -96.981290513 Ha          -2638.995185460 eV
  C Energy GGA        :         -3.867704350 Ha           -105.245590197 eV
  Total XC Energy     :       -100.848994863 Ha          -2744.240775657 eV
  LDA X and C from self-consistent density 
  X Energy LDA        :        -87.996449625 Ha          -2394.505225376 eV
  C Energy LDA        :         -7.531729770 Ha           -204.948794717 eV
  ------------------------------------ 
  End decomposition of the XC Energy 
  ------------------------------------ 
   
  ESP charge fitting starts.
  | Calculation :  00000001  of  00000001
  | Full density
  Computing multipole expansion for total density.
  Generating points for esp charges.
  Partitioning the integration grid into batches with parallel hashing+maxmin method.
  | Number of batches:     3816
  | Maximal batch size:     198
  | Minimal batch size:      93
  | Average batch size:     127.435
  | Standard deviation of batch sizes:      19.847

  Integration load balanced across    32 MPI tasks.
  Work distribution over tasks is as follows:
  Initializing partition tables, free-atom densities, potentials, etc. across the integration grid (initialize_grid_storage).
  | Original list of interatomic distances with          32 x         32 entries is created.
  | Net number of integration points:   486293
  | of which are non-zero points    :   486293
  Summing up potential from multipole expanded  density.
  Summing up the Hartree potential.
  Time summed over all CPUs for potential: real work        6.457 s, elapsed        6.903 s
  Fitting esp charges to potential.
  |
  | ESP charges fitted to the electrostatic potential :
  |
  | Atom         1: C, ESP charge:      0.39176709
  |
  | Atom         2: C, ESP charge:     -0.62148560
  |
  | Atom         3: O, ESP charge:      0.54687035
  |
  | Atom         4: H, ESP charge:     -0.12363087
  |
  | Atom         5: H, ESP charge:     -0.09265683
  |
  | Atom         6: H, ESP charge:     -0.11363077
  |
  | Atom         7: N, ESP charge:      0.72422020
  |
  | Atom         8: C, ESP charge:     -0.84876527
  |
  | Atom         9: C, ESP charge:     -0.34052867
  |
  | Atom        10: O, ESP charge:      0.51378780
  |
  | Atom        11: H, ESP charge:     -0.32163708
  |
  | Atom        12: H, ESP charge:      0.11782193
  |
  | Atom        13: C, ESP charge:      0.53122874
  |
  | Atom        14: H, ESP charge:     -0.14293398
  |
  | Atom        15: H, ESP charge:     -0.11133764
  |
  | Atom        16: H, ESP charge:     -0.11450848
  |
  | Atom        17: N, ESP charge:      0.50396509
  |
  | Atom        18: C, ESP charge:     -0.36262647
  |
  | Atom        19: C, ESP charge:     -0.31927316
  |
  | Atom        20: O, ESP charge:      0.53153198
  |
  | Atom        21: H, ESP charge:     -0.29733350
  |
  | Atom        22: H, ESP charge:     -0.07741455
  |
  | Atom        23: C, ESP charge:      0.76484074
  |
  | Atom        24: H, ESP charge:     -0.21009844
  |
  | Atom        25: H, ESP charge:     -0.23963812
  |
  | Atom        26: H, ESP charge:     -0.19676516
  |
  | Atom        27: N, ESP charge:      0.25525389
  |
  | Atom        28: C, ESP charge:      0.40885122
  |
  | Atom        29: H, ESP charge:     -0.30521294
  |
  | Atom        30: H, ESP charge:     -0.17928891
  |
  | Atom        31: H, ESP charge:     -0.13258967
  |
  | Atom        32: H, ESP charge:     -0.13878293

  RRMS:       0.00095735

  Done.

------------------------------------------------------------------------------
  Final output of selected total energy values:

  The following output summarizes some interesting total energy values
  at the end of a run (AFTER all relaxation, molecular dynamics, etc.).

  | Total energy of the DFT / Hartree-Fock s.c.f. calculation      :         -20208.718219374 eV
  | Final zero-broadening corrected energy (caution - metals only) :         -20208.718219374 eV
  | For reference only, the value of 1 Hartree used in FHI-aims is :             27.211384500 eV

  Before relying on these values, please be sure to understand exactly which
  total energy value is referred to by a given number. Different objects may
  all carry the same name 'total energy'. Definitions:

  Total energy of the DFT / Hartree-Fock s.c.f. calculation:
  | Note that this energy does not include ANY quantities calculated after the
  | s.c.f. cycle, in particular not ANY RPA, MP2, etc. many-body perturbation terms.

  Final zero-broadening corrected energy:
  | For metallic systems only, a broadening of the occupation numbers at the Fermi
  | level can be extrapolated back to zero broadening by an electron-gas inspired
  | formula. For all systems that are not real metals, this value can be
  | meaningless and should be avoided.

------------------------------------------------------------------------------
  Methods described in the following list of references were used in this FHI-aims run.
  If you publish the results, please make sure to cite these reference if they apply.
  FHI-aims is an academic code, and for our developers (often, Ph.D. students
  and postdocs), scientific credit in the community is essential.
  Thank you for helping us!

  For any use of FHI-aims, please cite:

    Volker Blum, Ralf Gehrke, Felix Hanke, Paula Havu, Ville Havu,
    Xinguo Ren, Karsten Reuter, and Matthias Scheffler
    'Ab initio molecular simulations with numeric atom-centered orbitals'
    Computer Physics Communications 180, 2175-2196 (2009)
    http://dx.doi.org/10.1016/j.cpc.2009.06.022


  The scalable eigensolver library ELPA was used in your run.
  ELPA is essential especially for large systems on hundreds or thousands of CPUs.
  For ELPA, please cite:

    Andreas Marek, Volker Blum, Rainer Johanni, Ville Havu, Bruno Lang,
    Thomas Auckenthaler, Alexander Heinecke, Hans-Joachim Bungartz, and Hermann Lederer,
    'The ELPA Library - Scalable Parallel Eigenvalue Solutions
    for Electronic Structure Theory and Computational Science'
    The Journal of Physics: Condensed Matter 26, 213201 (2014).
    http://dx.doi.org/10.1088/0953-8984/26/21/213201


  For ELPA's efficient two-stage tridiagonalization used in your run, please cite:

    T. Auckenthaler, V. Blum, H.-J. Bungartz, T. Huckle, R. Johanni, L. Kraemer,
    B. Lang, H. Lederer, and P. R. Willems,
    'Parallel solution of partial symmetric eigenvalue problems'
    'from  electronic structure calculations'
    Parallel Computing 37, 783-794 (2011).
    http://dx.doi.org/10.1016/j.parco.2011.05.002


  For the real-space grid partitioning and parallelization used in this calculation, please cite:

    Ville Havu, Volker Blum, Paula Havu, and Matthias Scheffler,
    'Efficient O(N) integration for all-electron electronic structure calculation'
    'using numerically tabulated basis functions'
    Journal of Computational Physics 228, 8367-8379 (2009).
    http://dx.doi.org/10.1016/j.jcp.2009.08.008

  Of course, there are many other important community references, e.g., those cited in the
  above references. Our list is limited to references that describe implementations in the
  FHI-aims code. The reason is purely practical (length of this list) - please credit others as well.

------------------------------------------------------------
          Leaving FHI-aims.
          Date     :  20170309, Time     :  183314.283

          Computational steps:
          | Number of self-consistency cycles          :           14

          Detailed time accounting                     :  max(cpu_time)    wall_clock(cpu1)
          | Total time                                 :       33.570 s          33.755 s
          | Preparation time                           :        0.240 s           0.237 s
          | Grid partitioning                          :        0.264 s           0.254 s
          | Preloading free-atom quantities on grid    :        0.028 s           0.028 s
          | Free-atom superposition energy             :        0.040 s           0.039 s
          | Total time for integrations                :       11.257 s          11.237 s
          | Total time for solution of K.-S. equations :        0.528 s           0.497 s
          | Total time for density & force components  :        9.781 s           9.750 s
          | Total time for mixing                      :        0.128 s           0.106 s
          | Total time for Hartree multipole update    :        0.080 s           0.059 s
          | Total time for Hartree multipole sum       :        6.384 s           6.368 s
          | Total time for total energy evaluation     :        0.032 s           0.023 s

          Have a nice day.
------------------------------------------------------------
