  MPI-parallelism will be employed.
------------------------------------------------------------
          Invoking FHI-aims ...
          Version 150427
          Git rev.: 9dd23e0 BL: Update Version stamp
          Compiled on 2015/11/03 at 22:05:20 on host eos03.

          When using FHI-aims, please cite the following reference:

          Volker Blum, Ralf Gehrke, Felix Hanke, Paula Havu,
          Ville Havu, Xinguo Ren, Karsten Reuter, and Matthias Scheffler,
          'Ab Initio Molecular Simulations with Numeric Atom-Centered Orbitals: FHI-aims',
          Computer Physics Communications 180, 2175-2196 (2009)

          For any questions about FHI-aims, please visit the aimsclub website
          with its forums and wiki. Contributions to both the forums and the
          wiki are warmly encouraged - they are for you, and everyone is welcome there.

------------------------------------------------------------

  Date     :  20170309, Time     :  185540.366
  Time zero on CPU 1             :   0.328020000000000E+00  s.
  Internal wall clock time zero  :           258317740.366  s.

  Using       32 parallel tasks.
  Task        0 on host eos399 reporting.
  Task        1 on host eos399 reporting.
  Task        2 on host eos399 reporting.
  Task        3 on host eos399 reporting.
  Task        4 on host eos399 reporting.
  Task        5 on host eos399 reporting.
  Task        6 on host eos399 reporting.
  Task        7 on host eos399 reporting.
  Task        8 on host eos399 reporting.
  Task        9 on host eos399 reporting.
  Task       10 on host eos399 reporting.
  Task       11 on host eos399 reporting.
  Task       12 on host eos399 reporting.
  Task       13 on host eos399 reporting.
  Task       14 on host eos399 reporting.
  Task       15 on host eos399 reporting.
  Task       16 on host eos399 reporting.
  Task       17 on host eos399 reporting.
  Task       18 on host eos399 reporting.
  Task       19 on host eos399 reporting.
  Task       20 on host eos399 reporting.
  Task       21 on host eos399 reporting.
  Task       22 on host eos399 reporting.
  Task       23 on host eos399 reporting.
  Task       24 on host eos399 reporting.
  Task       25 on host eos399 reporting.
  Task       26 on host eos399 reporting.
  Task       27 on host eos399 reporting.
  Task       28 on host eos399 reporting.
  Task       29 on host eos399 reporting.
  Task       30 on host eos399 reporting.
  Task       31 on host eos399 reporting.

  Performing system and environment tests:
  | Environment variable OMP_NUM_THREADS correctly set to 1.
  | Stacksize not measured: no C compiler
  | Checking for scalapack...
  | Testing pdtran()...
  | All pdtran() tests passed.

  Obtaining array dimensions for all initial allocations:
  
  -----------------------------------------------------------------------
  Parsing control.in (first pass over file, find array dimensions only).
  The contents of control.in will be repeated verbatim below
  unless switched off by setting 'verbatim_writeout .false.' .
  in the first line of control.in .
  -----------------------------------------------------------------------
  
  #########################################################################################
  #
  # Input for System
  #
  #########################################################################################
  #
  #
  #  Physical model
  #
    xc                 pbe
    many_body_dispersion
    spin               none
    charge             0.
  #
  #  SCF convergence
  #
    occupation_type    gaussian 0.05
    mixer              pulay
      n_max_pulay        10
      charge_mix_param   0.5
    sc_accuracy_rho    1E-4
    sc_accuracy_eev    1E-2
    sc_accuracy_etot   1E-5
    sc_accuracy_forces 1E-4
    sc_iter_limit      1000
  #
  #  ESP charge
  #
    output esp
    esp equal_grid_n 80 80 80
  #
  #
  ################################################################################
  #
  #  FHI-aims code project
  # Volker Blum, Fritz Haber Institute Berlin, 2009
  #
  #  Suggested "tight" defaults for H atom (to be pasted into control.in file)
  #
  ################################################################################
    species        H
  #     global species definitions
      nucleus             1
      mass                1.00794
  #
      l_hartree           6
  #
      cut_pot             4.0  2.0  1.0
      basis_dep_cutoff    1e-4
  #
      radial_base         24 7.0
      radial_multiplier   2
      angular_grids       specified
        division   0.1930   50
        division   0.3175  110
        division   0.4293  194
        division   0.5066  302
        division   0.5626  434
  #      division   0.5922  590
  #      division   0.6227  974
  #      division   0.6868 1202
  #      outer_grid  770
        outer_grid  434
  ################################################################################
  #
  #  Definition of "minimal" basis
  #
  ################################################################################
  #     valence basis states
      valence      1  s   1.
  #     ion occupancy
      ion_occ      1  s   0.5
  ################################################################################
  #
  #  Suggested additional basis functions. For production calculations,
  #  uncomment them one after another (the most important basis functions are
  #  listed first).
  #
  #  Basis constructed for dimers: 0.5 A, 0.7 A, 1.0 A, 1.5 A, 2.5 A
  #
  ################################################################################
  #  "First tier" - improvements: -1014.90 meV to -62.69 meV
       hydro 2 s 2.1
       hydro 2 p 3.5
  #  "Second tier" - improvements: -12.89 meV to -1.83 meV
       hydro 1 s 0.85
       hydro 2 p 3.7
       hydro 2 s 1.2
       hydro 3 d 7
  #  "Third tier" - improvements: -0.25 meV to -0.12 meV
  #     hydro 4 f 11.2
  #     hydro 3 p 4.8
  #     hydro 4 d 9
  #     hydro 3 s 3.2
  ################################################################################
  #
  # For methods that use the localized form of the "resolution of identity" for
  # the two-electron Coulomb operator (RI_method LVL), particularly Hartree-Fock and
  # hybrid density functional calculations, the highest accuracy can be obtained by
  # uncommenting the line beginning with "for_aux"  below, thus adding an extra g radial
  # function to the construction of the product basis set for the expansion.
  # See Ref. New J. Phys. 17, 093020 (2015) for more information, particularly Figs. 1 and 6.
  #
  ################################################################################
  #
  # for_aux hydro 5 g 6.0
  ################################################################################
  #
  #  FHI-aims code project
  # Volker Blum, Fritz Haber Institute Berlin, 2009
  #
  #  Suggested "tight" defaults for C atom (to be pasted into control.in file)
  #
  ################################################################################
    species        C
  #     global species definitions
      nucleus             6
      mass                12.0107
  #
      l_hartree           6
  #
      cut_pot             4.0  2.0  1.0
      basis_dep_cutoff    1e-4
  #
      radial_base         34 7.0
      radial_multiplier   2
      angular_grids specified
        division   0.2187   50
        division   0.4416  110
        division   0.6335  194
        division   0.7727  302
        division   0.8772  434
  #      division   0.9334  590
  #      division   0.9924  770
  #      division   1.0230  974
  #      division   1.5020 1202
  #     outer_grid  974
        outer_grid  434
  ################################################################################
  #
  #  Definition of "minimal" basis
  #
  ################################################################################
  #     valence basis states
      valence      2  s   2.
      valence      2  p   2.
  #     ion occupancy
      ion_occ      2  s   1.
      ion_occ      2  p   1.
  ################################################################################
  #
  #  Suggested additional basis functions. For production calculations,
  #  uncomment them one after another (the most important basis functions are
  #  listed first).
  #
  #  Constructed for dimers: 1.0 A, 1.25 A, 1.5 A, 2.0 A, 3.0 A
  #
  ################################################################################
  #  "First tier" - improvements: -1214.57 meV to -155.61 meV
       hydro 2 p 1.7
       hydro 3 d 6
       hydro 2 s 4.9
  #  "Second tier" - improvements: -67.75 meV to -5.23 meV
       hydro 4 f 9.8
       hydro 3 p 5.2
       hydro 3 s 4.3
       hydro 5 g 14.4
       hydro 3 d 6.2
  #  "Third tier" - improvements: -2.43 meV to -0.60 meV
  #     hydro 2 p 5.6
  #     hydro 2 s 1.4
  #     hydro 3 d 4.9
  #     hydro 4 f 11.2
  #  "Fourth tier" - improvements: -0.39 meV to -0.18 meV
  #     hydro 2 p 2.1
  #     hydro 5 g 16.4
  #     hydro 4 d 13.2
  #     hydro 3 s 13.6
  #     hydro 4 f 17.6
  #  Further basis functions - improvements: -0.08 meV and below
  #     hydro 3 s 2
  #     hydro 3 p 6
  #     hydro 4 d 20
  ################################################################################
  #
  # For methods that use the localized form of the "resolution of identity" for
  # the two-electron Coulomb operator (RI_method LVL), particularly Hartree-Fock and
  # hybrid density functional calculations, the highest accuracy can be obtained by
  # uncommenting the line beginning with "for_aux"  below, thus adding an extra g radial
  # function to the construction of the product basis set for the expansion.
  # See Ref. New J. Phys. 17, 093020 (2015) for more information, particularly Figs. 1 and 6.
  #
  ################################################################################
  #
  # for_aux hydro 5 g 6.0
  ################################################################################
  #
  #  FHI-aims code project
  # Volker Blum, Fritz Haber Institute Berlin, 2009
  #
  #  Suggested "tight" defaults for N atom (to be pasted into control.in file)
  #
  ################################################################################
    species        N
  #     global species definitions
      nucleus             7
      mass                14.0067
  #
      l_hartree           6
  #
      cut_pot             4.0  2.0  1.0
      basis_dep_cutoff    1e-4
  #
      radial_base         35 7.0
      radial_multiplier   2
      angular_grids       specified
        division   0.1841   50
        division   0.3514  110
        division   0.5126  194
        division   0.6292  302
        division   0.6939  434
  #      division   0.7396  590
  #      division   0.7632  770
  #      division   0.8122  974
  #      division   1.1604 1202
  #      outer_grid  974
        outer_grid  434
  ################################################################################
  #
  #  Definition of "minimal" basis
  #
  ################################################################################
  #     valence basis states
      valence      2  s   2.
      valence      2  p   3.
  #     ion occupancy
      ion_occ      2  s   1.
      ion_occ      2  p   2.
  ################################################################################
  #
  #  Suggested additional basis functions. For production calculations,
  #  uncomment them one after another (the most important basis functions are
  #  listed first).
  #
  #  Constructed for dimers: 1.0 A, 1.1 A, 1.5 A, 2.0 A, 3.0 A
  #
  ################################################################################
  #  "First tier" - improvements: -1193.42 meV to -220.60 meV
       hydro 2 p 1.8
       hydro 3 d 6.8
       hydro 3 s 5.8
  #  "Second tier" - improvements: -80.21 meV to -6.86 meV
       hydro 4 f 10.8
       hydro 3 p 5.8
       hydro 1 s 0.8
       hydro 5 g 16
       hydro 3 d 4.9
  #  "Third tier" - improvements: -4.29 meV to -0.53 meV
  #     hydro 3 s 16
  #     ionic 2 p auto
  #     hydro 3 d 6.6
  #     hydro 4 f 11.6
  #  "Fourth tier" - improvements: -0.75 meV to -0.25 meV
  #     hydro 2 p 4.5
  #     hydro 2 s 2.4
  #     hydro 5 g 14.4
  #     hydro 4 d 14.4
  #     hydro 4 f 16.8
  # Further basis functions - -0.21 meV and below
  #     hydro 3 p 14.8
  #     hydro 3 s 4.4
  #     hydro 3 d 19.6
  #     hydro 5 g 12.8
  ################################################################################
  #
  # For methods that use the localized form of the "resolution of identity" for
  # the two-electron Coulomb operator (RI_method LVL), particularly Hartree-Fock and
  # hybrid density functional calculations, the highest accuracy can be obtained by
  # uncommenting the line beginning with "for_aux"  below, thus adding an extra g radial
  # function to the construction of the product basis set for the expansion.
  # See Ref. New J. Phys. 17, 093020 (2015) for more information, particularly Figs. 1 and 6.
  #
  ################################################################################
  #
  # for_aux hydro 5 g 6.0
  ################################################################################
  #
  #  FHI-aims code project
  # Volker Blum, Fritz Haber Institute Berlin, 2009
  #
  #  Suggested "tight" defaults for O atom (to be pasted into control.in file)
  #
  ################################################################################
    species        O
  #     global species definitions
      nucleus             8
      mass                15.9994
  #
      l_hartree           6
  #
      cut_pot             4.0  2.0  1.0
      basis_dep_cutoff    1e-4
  #
      radial_base         36 7.0
      radial_multiplier   2
       angular_grids specified
        division   0.1817   50
        division   0.3417  110
        division   0.4949  194
        division   0.6251  302
        division   0.8014  434
  #      division   0.8507  590
  #      division   0.8762  770
  #      division   0.9023  974
  #      division   1.2339 1202
  #      outer_grid 974
        outer_grid  434
  ################################################################################
  #
  #  Definition of "minimal" basis
  #
  ################################################################################
  #     valence basis states
      valence      2  s   2.
      valence      2  p   4.
  #     ion occupancy
      ion_occ      2  s   1.
      ion_occ      2  p   3.
  ################################################################################
  #
  #  Suggested additional basis functions. For production calculations,
  #  uncomment them one after another (the most important basis functions are
  #  listed first).
  #
  #  Constructed for dimers: 1.0 A, 1.208 A, 1.5 A, 2.0 A, 3.0 A
  #
  ################################################################################
  #  "First tier" - improvements: -699.05 meV to -159.38 meV
       hydro 2 p 1.8
       hydro 3 d 7.6
       hydro 3 s 6.4
  #  "Second tier" - improvements: -49.91 meV to -5.39 meV
       hydro 4 f 11.6
       hydro 3 p 6.2
       hydro 3 d 5.6
       hydro 5 g 17.6
       hydro 1 s 0.75
  #  "Third tier" - improvements: -2.83 meV to -0.50 meV
  #     ionic 2 p auto
  #     hydro 4 f 10.8
  #     hydro 4 d 4.7
  #     hydro 2 s 6.8
  #  "Fourth tier" - improvements: -0.40 meV to -0.12 meV
  #     hydro 3 p 5
  #     hydro 3 s 3.3
  #     hydro 5 g 15.6
  #     hydro 4 f 17.6
  #     hydro 4 d 14
  # Further basis functions - -0.08 meV and below
  #     hydro 3 s 2.1
  #     hydro 4 d 11.6
  #     hydro 3 p 16
  #     hydro 2 s 17.2
  ################################################################################
  #
  # For methods that use the localized form of the "resolution of identity" for
  # the two-electron Coulomb operator (RI_method LVL), particularly Hartree-Fock and
  # hybrid density functional calculations, the highest accuracy can be obtained by
  # uncommenting the line beginning with "for_aux"  below, thus adding an extra g radial
  # function to the construction of the product basis set for the expansion.
  # See Ref. New J. Phys. 17, 093020 (2015) for more information, particularly Figs. 1 and 6.
  #
  ################################################################################
  #
  # for_aux hydro 5 g 6.0
  
  -----------------------------------------------------------------------
  Completed first pass over input file control.in .
  -----------------------------------------------------------------------
  
  
  -----------------------------------------------------------------------
  Parsing geometry.in (first pass over file, find array dimensions only).
  The contents of geometry.in will be repeated verbatim below
  unless switched off by setting 'verbatim_writeout .false.' .
  in the first line of geometry.in .
  -----------------------------------------------------------------------
  
  #
  # This is the geometry file that corresponds to the current relaxation step.
  # If you do not want this file to be written, set the "write_restart_geometry" flag to .false.
  #
  atom      -0.45227893      0.39604069     -0.05059808 C
  atom      -0.40471668      0.70109489      1.43294431 C
  atom       0.12377301      1.72049508      1.87711981 O
  atom      -0.65861148     -0.65788810     -0.27448163 H
  atom       0.50029715      0.68688547     -0.50605683 H
  atom      -1.24295764      1.01071093     -0.50301657 H
  atom      -0.99030736     -0.23442352      2.24414922 N
  atom      -1.25630616      0.02334721      3.65824692 C
  atom      -2.24359784      1.21843772      3.78899579 C
  atom      -3.21086291      1.30441674      3.03966718 O
  atom      -1.58075545     -0.92221425      1.79226066 H
  atom      -1.84796546     -0.83926473      4.00247641 H
  atom       0.02666079      0.07631705      4.49503995 C
  atom       0.63083463     -0.81774998      4.29670648 H
  atom      -0.20583612      0.07769523      5.56929592 H
  atom       0.63625050      0.95256738      4.24543226 H
  atom      -2.01324185      2.08785510      4.81062972 N
  atom      -2.92624801      3.17800496      5.12782781 C
  atom      -2.93815877      4.39291410      4.16548164 C
  atom      -4.01010811      4.95852421      3.95699038 O
  atom      -1.15057406      2.00626806      5.33450301 H
  atom      -3.94614585      2.78479437      5.02427702 H
  atom      -2.70076059      3.65477477      6.56511757 C
  atom      -3.41142774      4.45466789      6.80293531 H
  atom      -1.68547429      4.05337360      6.70850976 H
  atom      -2.85414276      2.83094466      7.27502962 H
  atom      -1.77632807      4.85527732      3.62183311 N
  atom      -0.39913424      4.40919590      3.79037460 C
  atom      -1.93646005      5.64890186      3.00927840 H
  atom      -0.17703658      3.49297002      3.22743149 H
  atom      -0.14993333      4.26029546      4.85078701 H
  atom       0.25768126      5.20590790      3.42178675 H
  
  -----------------------------------------------------------------------
  Completed first pass over input file geometry.in .
  -----------------------------------------------------------------------
  

  Basic array size parameters:
  | Number of species                 :        4
  | Number of atoms                   :       32
  | Max. basis fn. angular momentum   :        4
  | Max. atomic/ionic basis occupied n:        2
  | Max. number of basis fn. types    :        2
  | Max. radial fns per species/type  :        8
  | Max. logarithmic grid size        :     1301
  | Max. radial integration grid size :       73
  | Max. angular integration grid size:      434
  | Max. angular grid division number :        8
  | Radial grid for Hartree potential :     1301
  | Number of spin channels           :        1

------------------------------------------------------------
          Reading file control.in.
------------------------------------------------------------
  XC: Using PBE gradient-corrected functionals.
  Self-consistent screening and van der Waals energy (TS, TS+SCS,MBD) module
  Spin treatment: No spin polarisation.
  Charge =   0.000000E+00: Neutral system requested explicitly.
  Occupation type: Gaussian broadening, width =   0.500000E-01 eV.
  Using pulay charge density mixing.
  Pulay mixing - number of memorized iterations:   10
  Charge density mixing - mixing parameter:     0.5000
  Convergence accuracy of self-consistent charge density:  0.1000E-03
  Convergence accuracy of sum of eigenvalues:  0.1000E-01
  Convergence accuracy of total energy:  0.1000E-04
  Convergence accuracy of forces:  0.1000E-03
  Maximum number of s.-c. iterations  :  1000
  Fitting ESP-charges to Potential. 
  | Esp charge output options: 
  | ESP Grid method: 3, cubic grid
  | Number of points in x, ,y, z:  0080 0080 0080
  |
 
  Reading configuration options for species H                   .
  | Found nuclear charge :   1.0000
  | Found atomic mass :    1.00794000000000      amu
  | Found l_max for Hartree potential  :   6
  | Found cutoff potl. onset [A], width [A], scale factor :    4.00000    2.00000    1.00000
  | Threshold for basis-dependent cutoff potential is   0.100000E-03
  | Found data for basic radial integration grid :    24 points, outermost radius =    7.000 A
  | Found multiplier for basic radial grid :   2
  | Found angular grid specification: user-specified.
  | Specified grid contains     6 separate shells.
  | Check grid settings after all constraints further below.
  | Found free-atom valence shell :  1 s   1.000
  | No ionic wave fns used. Skipping ion_occ.
  | Found hydrogenic basis function :  2 s   2.100
  | Found hydrogenic basis function :  2 p   3.500
  | Found hydrogenic basis function :  1 s   0.850
  | Found hydrogenic basis function :  2 p   3.700
  | Found hydrogenic basis function :  2 s   1.200
  | Found hydrogenic basis function :  3 d   7.000
  Species H                   : Missing cutoff potential type.
  Defaulting to exp(1/x)/(1-x)^2 type cutoff potential.
  Species H : No 'logarithmic' tag. Using default grid for free atom:
  | Default logarithmic grid data [bohr] : 0.1000E-03 0.1000E+03 0.1012E+01
  Species H : On-site basis accuracy parameter (for Gram-Schmidt orthonormalisation) not specified.
  Using default value basis_acc =  0.1000000E-03.
  Species H                   : Using default innermost maximum threshold i_radial=  2 for radial functions.
  Species H                   : Default cutoff onset for free atom density etc. : 0.40000000E+01 AA.
  Species H                   : Basic radial grid will be enhanced according to radial_multiplier =   2, to contain    49 grid points.
 
  Reading configuration options for species C                   .
  | Found nuclear charge :   6.0000
  | Found atomic mass :    12.0107000000000      amu
  | Found l_max for Hartree potential  :   6
  | Found cutoff potl. onset [A], width [A], scale factor :    4.00000    2.00000    1.00000
  | Threshold for basis-dependent cutoff potential is   0.100000E-03
  | Found data for basic radial integration grid :    34 points, outermost radius =    7.000 A
  | Found multiplier for basic radial grid :   2
  | Found angular grid specification: user-specified.
  | Specified grid contains     6 separate shells.
  | Check grid settings after all constraints further below.
  | Found free-atom valence shell :  2 s   2.000
  | Found free-atom valence shell :  2 p   2.000
  | No ionic wave fns used. Skipping ion_occ.
  | No ionic wave fns used. Skipping ion_occ.
  | Found hydrogenic basis function :  2 p   1.700
  | Found hydrogenic basis function :  3 d   6.000
  | Found hydrogenic basis function :  2 s   4.900
  | Found hydrogenic basis function :  4 f   9.800
  | Found hydrogenic basis function :  3 p   5.200
  | Found hydrogenic basis function :  3 s   4.300
  | Found hydrogenic basis function :  5 g  14.400
  | Found hydrogenic basis function :  3 d   6.200
  Species C                   : Missing cutoff potential type.
  Defaulting to exp(1/x)/(1-x)^2 type cutoff potential.
  Species C : No 'logarithmic' tag. Using default grid for free atom:
  | Default logarithmic grid data [bohr] : 0.1000E-03 0.1000E+03 0.1012E+01
  Species C : On-site basis accuracy parameter (for Gram-Schmidt orthonormalisation) not specified.
  Using default value basis_acc =  0.1000000E-03.
  Species C                   : Using default innermost maximum threshold i_radial=  2 for radial functions.
  Species C                   : Default cutoff onset for free atom density etc. : 0.40000000E+01 AA.
  Species C                   : Basic radial grid will be enhanced according to radial_multiplier =   2, to contain    69 grid points.
 
  Reading configuration options for species N                   .
  | Found nuclear charge :   7.0000
  | Found atomic mass :    14.0067000000000      amu
  | Found l_max for Hartree potential  :   6
  | Found cutoff potl. onset [A], width [A], scale factor :    4.00000    2.00000    1.00000
  | Threshold for basis-dependent cutoff potential is   0.100000E-03
  | Found data for basic radial integration grid :    35 points, outermost radius =    7.000 A
  | Found multiplier for basic radial grid :   2
  | Found angular grid specification: user-specified.
  | Specified grid contains     6 separate shells.
  | Check grid settings after all constraints further below.
  | Found free-atom valence shell :  2 s   2.000
  | Found free-atom valence shell :  2 p   3.000
  | No ionic wave fns used. Skipping ion_occ.
  | No ionic wave fns used. Skipping ion_occ.
  | Found hydrogenic basis function :  2 p   1.800
  | Found hydrogenic basis function :  3 d   6.800
  | Found hydrogenic basis function :  3 s   5.800
  | Found hydrogenic basis function :  4 f  10.800
  | Found hydrogenic basis function :  3 p   5.800
  | Found hydrogenic basis function :  1 s   0.800
  | Found hydrogenic basis function :  5 g  16.000
  | Found hydrogenic basis function :  3 d   4.900
  Species N                   : Missing cutoff potential type.
  Defaulting to exp(1/x)/(1-x)^2 type cutoff potential.
  Species N : No 'logarithmic' tag. Using default grid for free atom:
  | Default logarithmic grid data [bohr] : 0.1000E-03 0.1000E+03 0.1012E+01
  Species N : On-site basis accuracy parameter (for Gram-Schmidt orthonormalisation) not specified.
  Using default value basis_acc =  0.1000000E-03.
  Species N                   : Using default innermost maximum threshold i_radial=  2 for radial functions.
  Species N                   : Default cutoff onset for free atom density etc. : 0.40000000E+01 AA.
  Species N                   : Basic radial grid will be enhanced according to radial_multiplier =   2, to contain    71 grid points.
 
  Reading configuration options for species O                   .
  | Found nuclear charge :   8.0000
  | Found atomic mass :    15.9994000000000      amu
  | Found l_max for Hartree potential  :   6
  | Found cutoff potl. onset [A], width [A], scale factor :    4.00000    2.00000    1.00000
  | Threshold for basis-dependent cutoff potential is   0.100000E-03
  | Found data for basic radial integration grid :    36 points, outermost radius =    7.000 A
  | Found multiplier for basic radial grid :   2
  | Found angular grid specification: user-specified.
  | Specified grid contains     6 separate shells.
  | Check grid settings after all constraints further below.
  | Found free-atom valence shell :  2 s   2.000
  | Found free-atom valence shell :  2 p   4.000
  | No ionic wave fns used. Skipping ion_occ.
  | No ionic wave fns used. Skipping ion_occ.
  | Found hydrogenic basis function :  2 p   1.800
  | Found hydrogenic basis function :  3 d   7.600
  | Found hydrogenic basis function :  3 s   6.400
  | Found hydrogenic basis function :  4 f  11.600
  | Found hydrogenic basis function :  3 p   6.200
  | Found hydrogenic basis function :  3 d   5.600
  | Found hydrogenic basis function :  5 g  17.600
  | Found hydrogenic basis function :  1 s   0.750
  Species O                   : Missing cutoff potential type.
  Defaulting to exp(1/x)/(1-x)^2 type cutoff potential.
  Species O : No 'logarithmic' tag. Using default grid for free atom:
  | Default logarithmic grid data [bohr] : 0.1000E-03 0.1000E+03 0.1012E+01
  Species O : On-site basis accuracy parameter (for Gram-Schmidt orthonormalisation) not specified.
  Using default value basis_acc =  0.1000000E-03.
  Species O                   : Using default innermost maximum threshold i_radial=  2 for radial functions.
  Species O                   : Default cutoff onset for free atom density etc. : 0.40000000E+01 AA.
  Species O                   : Basic radial grid will be enhanced according to radial_multiplier =   2, to contain    73 grid points.
 
  Finished reading input file 'control.in'. Consistency checks are next.
 
  Target number of points in a grid batch is not set. Defaulting to  100
  Method for grid partitioning is not set. Defaulting to parallel hash+maxmin partitioning.
  Batch size limit is not set. Defaulting to    200
  By default, will store active basis functions for each batch.
  If in need of memory, prune_basis_once .false. can be used to disable this option.
  communication_type for Hartree potential was not specified.
  Defaulting to calc_hartree .
  Pulay mixer: Number of initial linear mixing iterations not set.
  Defaulting to    0 iterations.
  Work space size for distributed Hartree potential not set.
  Defaulting to   0.200000E+03 MB.
  Algorithm-dependent basis array size parameters:
  | n_max_pulay                         :       10
  Geometry relaxation not requested: no relaxation will be performed.
  Handling of forces: Unphysical translation and rotation will be removed from forces.
  No accuracy limit for integral partition fn. given. Defaulting to  0.1000E-14.
  No threshold value for u(r) in integrations given. Defaulting to  0.1000E-05.
  No accuracy for occupation numbers given. Defaulting to  0.1000E-07.
  No threshold value for occupation numbers given. Defaulting to  0.0000E+00.
  No accuracy for fermi level given. Defaulting to  0.1000E-19.
  Maximum # of iterations to find E_F not set. Defaulting to  200.
  Preferred method for the eigenvalue solver ('KS_method') not specified in 'control.in'.
  Calling blacs routine to test compilation state
  Since scalapack support is enabled, defaulting to 'elpa'.
  Preferred method for the MBD eigenvalue solver ('mbd_eigensolver') not specified in 'control.in'.
  Calling blacs routine to test compilation state
  Since scalapack support is enabled, defaulting to 'scaLAPACK'.
  Will not use alltoall communication since running on < 1024 CPUs.
  Threshold for basis singularities not set.
  Default threshold for basis singularities:  0.1000E-04
  partition_type (choice of integration weights) for integrals was not specified.
  | Using a version of the partition function of Stratmann and coworkers ('stratmann_smoother').
  | At each grid point, the set of atoms used to build the partition table is smoothly restricted to
  | only those atoms whose free-atom density would be non-zero at that grid point.
  Partitioning for Hartree potential was not defined. Using partition_type for integrals.
  | Adjusted default value of keyword multip_moments_threshold to:       0.10000000E-11
  | This value may affect high angular momentum components of the Hartree potential in periodic systems.
  No q(lm)/r^(l+1) cutoff set for long-range Hartree potential.
  | Using default value of  0.100000E-09 .
  | Verify using the multipole_threshold keyword.
  Defaulting to new monopole extrapolation.
  Density update method: automatic selection selected.
------------------------------------------------------------


------------------------------------------------------------
          Reading geometry description geometry.in.
------------------------------------------------------------
 * Warning! You did not set the 'relativistic' flag in input file 'control.in'.
 * Since you are not attempting to treat any elements beyond Ca(Z=20), FHI-aims
 * will default to 'relativistic none'.
 * You must ensure that this is really what you want!!
 * For example, DO NOT compute total-energy differences between results from
 * different settings of the 'relativistic' flag.
  Input structure read successfully.
  The structure contains       32 atoms,  and a total of        116.000 electrons.

  Input geometry:
  | No unit cell requested.
  | Atomic structure:
  |       Atom                x [A]            y [A]            z [A]
  |    1: Species C             -0.452279         0.396041        -0.050598
  |    2: Species C             -0.404717         0.701095         1.432944
  |    3: Species O              0.123773         1.720495         1.877120
  |    4: Species H             -0.658611        -0.657888        -0.274482
  |    5: Species H              0.500297         0.686885        -0.506057
  |    6: Species H             -1.242958         1.010711        -0.503017
  |    7: Species N             -0.990307        -0.234424         2.244149
  |    8: Species C             -1.256306         0.023347         3.658247
  |    9: Species C             -2.243598         1.218438         3.788996
  |   10: Species O             -3.210863         1.304417         3.039667
  |   11: Species H             -1.580755        -0.922214         1.792261
  |   12: Species H             -1.847965        -0.839265         4.002476
  |   13: Species C              0.026661         0.076317         4.495040
  |   14: Species H              0.630835        -0.817750         4.296706
  |   15: Species H             -0.205836         0.077695         5.569296
  |   16: Species H              0.636251         0.952567         4.245432
  |   17: Species N             -2.013242         2.087855         4.810630
  |   18: Species C             -2.926248         3.178005         5.127828
  |   19: Species C             -2.938159         4.392914         4.165482
  |   20: Species O             -4.010108         4.958524         3.956990
  |   21: Species H             -1.150574         2.006268         5.334503
  |   22: Species H             -3.946146         2.784794         5.024277
  |   23: Species C             -2.700761         3.654775         6.565118
  |   24: Species H             -3.411428         4.454668         6.802935
  |   25: Species H             -1.685474         4.053374         6.708510
  |   26: Species H             -2.854143         2.830945         7.275030
  |   27: Species N             -1.776328         4.855277         3.621833
  |   28: Species C             -0.399134         4.409196         3.790375
  |   29: Species H             -1.936460         5.648902         3.009278
  |   30: Species H             -0.177037         3.492970         3.227431
  |   31: Species H             -0.149933         4.260295         4.850787
  |   32: Species H              0.257681         5.205908         3.421787
  |

  | The smallest distance between any two atoms is         1.01256871 AA.
  |
  | The first atom of this pair is atom number                     17 .
  | The second atom of this pair is atom number                    21 .

  Number of empty states per atom not set in control.in - providing a guess from actual geometry.
  | Total number of empty states used during s.c.f. cycle:       71
  If you use a very high smearing, use empty_states (per atom!) in control.in to increase this value.

  Structure-dependent array size parameters: 
  | Maximum number of distinct radial functions  :       40
  | Maximum number of basis functions            :      840
  | Number of Kohn-Sham states (occupied + empty):      129
------------------------------------------------------------

------------------------------------------------------------
          Preparing all fixed parts of the calculation.
------------------------------------------------------------
  Determining machine precision:
    2.225073858507201E-308
  Setting up grids for atomic and cluster calculations.

  Creating wave function, potential, and density for free atoms.

  Species: H

  List of occupied orbitals and eigenvalues:
    n    l              occ      energy [Ha]    energy [eV]
    1    0           1.0000        -0.238382        -6.4867


  Species: C

  List of occupied orbitals and eigenvalues:
    n    l              occ      energy [Ha]    energy [eV]
    1    0           2.0000       -10.041232      -273.2358
    2    0           2.0000        -0.504327       -13.7234
    2    1           2.0000        -0.193750        -5.2722


  Species: N

  List of occupied orbitals and eigenvalues:
    n    l              occ      energy [Ha]    energy [eV]
    1    0           2.0000       -14.129007      -384.4699
    2    0           2.0000        -0.681802       -18.5528
    2    1           3.0000        -0.260543        -7.0897


  Species: O

  List of occupied orbitals and eigenvalues:
    n    l              occ      energy [Ha]    energy [eV]
    1    0           2.0000       -18.898576      -514.2564
    2    0           2.0000        -0.878795       -23.9132
    2    1           4.0000        -0.332075        -9.0362

  Creating fixed part of basis set: Ionic, confined, hydrogenic.
 
  H                    hydrogenic:
 
  List of hydrogenic basis orbitals: 
    n    l      effective z      eigenvalue [eV]  inner max. [A]     outer max. [A]     outer radius [A]   
    2    0         2.100000       -14.9965           0.193243           1.317208           5.373006
    2    1         3.500000       -41.6672           0.602369           0.602369           4.056063
    1    0         0.850000        -9.8292           0.624871           0.624871           5.373006
    2    1         3.700000       -46.5653           0.573622           0.573622           3.910002
    2    0         1.200000        -4.5995           0.334980           2.228188           5.505995
    3    2         7.000000       -74.0753           0.680699           0.680699           3.769201
 
 
  C                    hydrogenic:
 
  List of hydrogenic basis orbitals: 
    n    l      effective z      eigenvalue [eV]  inner max. [A]     outer max. [A]     outer radius [A]   
    2    1         1.700000        -9.8152           1.245706           1.245706           5.401630
    3    2         6.000000       -54.4226           0.792453           0.792453           4.178599
    2    0         4.900000       -81.6681           0.082559           0.562749           3.353238
    4    3         9.800000       -81.6681           0.863254           0.863254           4.028125
    3    1         5.200000       -40.8774           0.305389           1.215618           4.898362
    3    0         4.300000       -27.9508           0.091041           1.610311           5.401630
    5    4        14.400000      -112.8510           0.917666           0.917666           3.883070
    3    2         6.200000       -58.1113           0.763917           0.763917           4.077671
 
 
  N                    hydrogenic:
 
  List of hydrogenic basis orbitals: 
    n    l      effective z      eigenvalue [eV]  inner max. [A]     outer max. [A]     outer radius [A]   
    2    1         1.800000       -11.0118           1.177451           1.177451           5.427479
    3    2         6.800000       -69.9029           0.704619           0.704619           3.854246
    3    0         5.800000       -50.8549           0.067388           1.191934           4.629968
    4    3        10.800000       -99.1854           0.786571           0.786571           3.761152
    3    1         5.800000       -50.8549           0.274880           1.094176           4.518138
    1    0         0.800000        -8.7059           0.662839           0.662839           5.361532
    5    4        16.000000      -139.3222           0.825990           0.825990           3.625711
    3    2         4.900000       -36.2967           0.968267           0.968267           4.862000
 
 
  O                    hydrogenic:
 
  List of hydrogenic basis orbitals: 
    n    l      effective z      eigenvalue [eV]  inner max. [A]     outer max. [A]     outer radius [A]   
    2    1         1.800000       -11.0118           1.178562           1.178562           5.432602
    3    2         7.600000       -87.3182           0.624125           0.624125           3.541477
    3    0         6.400000       -61.9209           0.061167           1.081902           4.306578
    4    3        11.600000      -114.4238           0.731631           0.731631           3.585037
    3    1         6.200000       -58.1113           0.255680           1.030270           4.306578
    3    2         5.600000       -47.4081           0.847233           0.847233           4.413171
    5    4        17.600000      -168.5799           0.749740           0.749740           3.372465
    1    0         0.750000        -7.6499           0.705284           0.705284           5.366593
 

  Adding cutoff potential to free-atom effective potential.
  Creating atomic-like basis functions for current effective potential.

  Species H                   :

  List of atomic basis orbitals and eigenvalues:
    n    l      energy [Ha]    energy [eV]    outer radius [A]
    1    0        -0.238382        -6.4867       5.373006


  Species C                   :

  List of atomic basis orbitals and eigenvalues:
    n    l      energy [Ha]    energy [eV]    outer radius [A]
    1    0       -10.041232      -273.2358       1.934409
    2    0        -0.504327       -13.7234       5.271162
    2    1        -0.193750        -5.2722       5.401630


  Species N                   :

  List of atomic basis orbitals and eigenvalues:
    n    l      energy [Ha]    energy [eV]    outer radius [A]
    1    0       -14.129007      -384.4699       1.637919
    2    0        -0.681802       -18.5528       5.168461
    2    1        -0.260543        -7.0897       5.361532


  Species O                   :

  List of atomic basis orbitals and eigenvalues:
    n    l      energy [Ha]    energy [eV]    outer radius [A]
    1    0       -18.898576      -514.2564       1.415765
    2    0        -0.878795       -23.9132       5.048385
    2    1        -0.332075        -9.0362       5.301386

  Assembling full basis from fixed parts.
  | Species H :   atomic orbital   1 s accepted.
  | Species H :    hydro orbital   2 s accepted.
  | Species H :    hydro orbital   1 s accepted.
  | Species H :    hydro orbital   2 s accepted.
  | Species H :    hydro orbital   2 p accepted.
  | Species H :    hydro orbital   2 p accepted.
  | Species H :    hydro orbital   3 d accepted.
  | Species C :   atomic orbital   1 s accepted.
  | Species C :    hydro orbital   2 s accepted.
  | Species C :   atomic orbital   2 s accepted.
  | Species C :    hydro orbital   3 s accepted.
  | Species C :    hydro orbital   3 p accepted.
  | Species C :   atomic orbital   2 p accepted.
  | Species C :    hydro orbital   2 p accepted.
  | Species C :    hydro orbital   3 d accepted.
  | Species C :    hydro orbital   3 d accepted.
  | Species C :    hydro orbital   4 f accepted.
  | Species C :    hydro orbital   5 g accepted.
  | Species N :   atomic orbital   1 s accepted.
  | Species N :    hydro orbital   3 s accepted.
  | Species N :   atomic orbital   2 s accepted.
  | Species N :    hydro orbital   1 s accepted.
  | Species N :    hydro orbital   3 p accepted.
  | Species N :   atomic orbital   2 p accepted.
  | Species N :    hydro orbital   2 p accepted.
  | Species N :    hydro orbital   3 d accepted.
  | Species N :    hydro orbital   3 d accepted.
  | Species N :    hydro orbital   4 f accepted.
  | Species N :    hydro orbital   5 g accepted.
  | Species O :   atomic orbital   1 s accepted.
  | Species O :    hydro orbital   3 s accepted.
  | Species O :   atomic orbital   2 s accepted.
  | Species O :    hydro orbital   1 s accepted.
  | Species O :    hydro orbital   3 p accepted.
  | Species O :   atomic orbital   2 p accepted.
  | Species O :    hydro orbital   2 p accepted.
  | Species O :    hydro orbital   3 d accepted.
  | Species O :    hydro orbital   3 d accepted.
  | Species O :    hydro orbital   4 f accepted.
  | Species O :    hydro orbital   5 g accepted.
 
  Basis size parameters after reduction:
  | Total number of radial functions:       40
  | Total number of basis functions :      840
 
  Testing on-site integration grid accuracy.
  |  Species  Function  <phi|h_atom|phi> (log., in eV)  <phi|h_atom|phi> (rad., in eV)
           1        1                 -6.4869821809                 -6.4870742227
           1        2                 13.5044133542                 13.5041049177
           1        3                 32.7854418792                 32.7779770519
           1        4                 33.7995553101                 33.7152624900 ***
           1        5                 28.8558651799                 28.8558652046
           1        6                 59.6361831893                 59.6362535845
           1        7                 60.2733718049                 60.2733715484
           2        8               -273.2358277112               -273.2358261765
           2        9                -10.7624923123                -10.7625144012
           2       10                 17.4634079027                 17.4634252127
           2       11                 53.0363661832                 53.0366180446
           2       12                 15.0981351967                 15.0981317714
           2       13                  3.8522181899                  3.8522770949
           2       14                 12.1181835661                 12.1206868578
           2       15                 29.4320778347                 29.4320780959
           2       16                 54.8753777694                 54.8752901936
           2       17                 59.3533975461                 59.3533974833
           2       18                 93.4537491195                 93.4537492066
           3       19               -384.4698526889               -384.4698499465
           3       20                 12.5691022037                 12.5690910168
           3       21                -15.7489097511                -15.7489165588
           3       22                 27.0978334940                 27.0985589490
           3       23                 18.5949116966                 18.5949125562
           3       24                  1.2212828291                  1.2212855301
           3       25                 13.4428926797                 13.4434051125
           3       26                 35.9380614500                 35.9380613666
           3       27                 39.9231532098                 39.9231654735
           3       28                 72.9957335806                 72.9957336833
           3       29                116.4231321147                116.4231321431
           4       30               -514.2564144315               -514.2564099626
           4       31                 15.1726678541                 15.1726530877
           4       32                -21.5447785304                -21.5447874973
           4       33                 14.4944558459                 14.4944698284
           4       34                 20.8882174564                 20.8882178906
           4       35                 -2.4850315908                 -2.4850322289
           4       36                 13.8600193195                 13.8599826966
           4       37                 45.8243383616                 45.8243383675
           4       38                 52.1840606465                 52.1840622440
           4       39                 85.4074185510                 85.4074185819
           4       40                142.0983717302                142.0983717339
 * Note: Onsite integrals marked "***" above are less accurate than
 * onsite_accuracy_threshold =    0.03000 eV. Usually, this is harmless.
 * When in doubt, tighten the "radial" and/or "radial_multiplier" flags to check.

  Preparing densities etc. for the partition functions (integrals / Hartree potential).

  Preparations completed.
  max(cpu_time)          :      0.240 s.
  Wall clock time (cpu1) :      0.238 s.
------------------------------------------------------------

------------------------------------------------------------
          Begin self-consistency loop: Initialization.

          Date     :  20170309, Time     :  185541.411
------------------------------------------------------------

  Initializing index lists of integration centers etc. from given atomic structure:
  | Number of centers in hartree potential         :        32
  | Number of centers in hartree multipole         :        32
  | Number of centers in electron density summation:        32
  | Number of centers in basis integrals           :        32
  | Number of centers in integrals                 :        32
  | Number of centers in hamiltonian               :        32
  Using modified Scalapack Eigenvalue solver (ELPA)
  * Using 32 tasks for Scalapack Eigenvalue solver.
  Detailed listing of tasks and assigned k-points:
  (for non-periodic systems, the "k-point" denotes an internal label only)
   Task     0 k-point     1 on eos399
   Task     1 k-point     1 on eos399
   Task     2 k-point     1 on eos399
   Task     3 k-point     1 on eos399
   Task     4 k-point     1 on eos399
   Task     5 k-point     1 on eos399
   Task     6 k-point     1 on eos399
   Task     7 k-point     1 on eos399
   Task     8 k-point     1 on eos399
   Task     9 k-point     1 on eos399
   Task    10 k-point     1 on eos399
   Task    11 k-point     1 on eos399
   Task    12 k-point     1 on eos399
   Task    13 k-point     1 on eos399
   Task    14 k-point     1 on eos399
   Task    15 k-point     1 on eos399
   Task    16 k-point     1 on eos399
   Task    17 k-point     1 on eos399
   Task    18 k-point     1 on eos399
   Task    19 k-point     1 on eos399
   Task    20 k-point     1 on eos399
   Task    21 k-point     1 on eos399
   Task    22 k-point     1 on eos399
   Task    23 k-point     1 on eos399
   Task    24 k-point     1 on eos399
   Task    25 k-point     1 on eos399
   Task    26 k-point     1 on eos399
   Task    27 k-point     1 on eos399
   Task    28 k-point     1 on eos399
   Task    29 k-point     1 on eos399
   Task    30 k-point     1 on eos399
   Task    31 k-point     1 on eos399
  Tasks:    32 split into      8 X      4 BLACS grid
  Calculating blocksize based on n_basis =          840 max_nprow =            8 max_npcol =            4
  Scalapack blocksize set to:           16
  Required Scalapack workspace - INTEGER:            1 REAL:             1
  Partitioning the integration grid into batches with parallel hashing+maxmin method.
  | Number of batches:     5094
  | Maximal batch size:     200
  | Minimal batch size:      25
  | Average batch size:     103.598
  | Standard deviation of batch sizes:      23.721

  Integration load balanced across    32 MPI tasks.
  Work distribution over tasks is as follows:
  Task     0 has      16427 integration points.
  Task     1 has      16423 integration points.
  Task     2 has      16437 integration points.
  Task     3 has      16506 integration points.
  Task     4 has      16434 integration points.
  Task     5 has      16426 integration points.
  Task     6 has      16511 integration points.
  Task     7 has      16507 integration points.
  Task     8 has      16509 integration points.
  Task     9 has      16441 integration points.
  Task    10 has      16434 integration points.
  Task    11 has      16425 integration points.
  Task    12 has      16424 integration points.
  Task    13 has      16421 integration points.
  Task    14 has      16571 integration points.
  Task    15 has      16431 integration points.
  Task    16 has      16516 integration points.
  Task    17 has      16550 integration points.
  Task    18 has      16494 integration points.
  Task    19 has      16438 integration points.
  Task    20 has      16437 integration points.
  Task    21 has      16510 integration points.
  Task    22 has      16553 integration points.
  Task    23 has      16429 integration points.
  Task    24 has      16504 integration points.
  Task    25 has      16582 integration points.
  Task    26 has      16576 integration points.
  Task    27 has      16575 integration points.
  Task    28 has      16530 integration points.
  Task    29 has      16578 integration points.
  Task    30 has      16559 integration points.
  Task    31 has      16570 integration points.
  Initializing partition tables, free-atom densities, potentials, etc. across the integration grid (initialize_grid_storage).
  | initialize_grid_storage: Actual outermost partition radius vs. multipole_radius_free
  | (-- VB: in principle, multipole_radius_free should be larger, hence this output)
  | Species        1: Confinement radius =              6.000000000000000 AA, multipole_radius_free =              6.071692442739658 AA.
  | Species        1: outer_partition_radius set to              6.071692442739658 AA .
  | Species        2: Confinement radius =              6.000000000000000 AA, multipole_radius_free =              6.029870734432609 AA.
  | Species        2: outer_partition_radius set to              6.029870734432609 AA .
  | Species        3: Confinement radius =              6.000000000000000 AA, multipole_radius_free =              6.058726835495003 AA.
  | Species        3: outer_partition_radius set to              6.058726835495003 AA .
  | Species        4: Confinement radius =              6.000000000000000 AA, multipole_radius_free =              6.064445521808699 AA.
  | Species        4: outer_partition_radius set to              6.064445521808699 AA .
  | Original list of interatomic distances with          32 x         32 entries is created.
  | Net number of integration points:   527728
  | of which are non-zero points    :   414274
  Obtaining max. number of non-zero basis functions in each batch (get_n_compute_maxes).
  | Maximal number of non-zero basis functions:      773 in task     0
  | Maximal number of non-zero basis functions:      781 in task     1
  | Maximal number of non-zero basis functions:      791 in task     2
  | Maximal number of non-zero basis functions:      788 in task     3
  | Maximal number of non-zero basis functions:      779 in task     4
  | Maximal number of non-zero basis functions:      787 in task     5
  | Maximal number of non-zero basis functions:      765 in task     6
  | Maximal number of non-zero basis functions:      793 in task     7
  | Maximal number of non-zero basis functions:      770 in task     8
  | Maximal number of non-zero basis functions:      792 in task     9
  | Maximal number of non-zero basis functions:      793 in task    10
  | Maximal number of non-zero basis functions:      797 in task    11
  | Maximal number of non-zero basis functions:      790 in task    12
  | Maximal number of non-zero basis functions:      775 in task    13
  | Maximal number of non-zero basis functions:      794 in task    14
  | Maximal number of non-zero basis functions:      785 in task    15
  | Maximal number of non-zero basis functions:      784 in task    16
  | Maximal number of non-zero basis functions:      774 in task    17
  | Maximal number of non-zero basis functions:      781 in task    18
  | Maximal number of non-zero basis functions:      779 in task    19
  | Maximal number of non-zero basis functions:      790 in task    20
  | Maximal number of non-zero basis functions:      784 in task    21
  | Maximal number of non-zero basis functions:      788 in task    22
  | Maximal number of non-zero basis functions:      766 in task    23
  | Maximal number of non-zero basis functions:      776 in task    24
  | Maximal number of non-zero basis functions:      784 in task    25
  | Maximal number of non-zero basis functions:      789 in task    26
  | Maximal number of non-zero basis functions:      788 in task    27
  | Maximal number of non-zero basis functions:      771 in task    28
  | Maximal number of non-zero basis functions:      774 in task    29
  | Maximal number of non-zero basis functions:      753 in task    30
  | Maximal number of non-zero basis functions:      794 in task    31
  Selecting the method for density update.
  Loop over occupied states selected for charge density update.
  Integrating Hamiltonian matrix: batch-based integration.
  Time summed over all CPUs for integration: real work       21.850 s, elapsed       22.930 s
  Integrating overlap matrix.
  Time summed over all CPUs for integration: real work       13.194 s, elapsed       13.845 s
  Deallocating overlap matrix.

  Updating Kohn-Sham eigenvalues, eigenvectors, occupation numbers, and Fermi level.
  Solving generalized eigenproblem
  Solving real symmetric generalised eigenvalue problem by standard ScaLAPACK.
  Transforming overlap matrix with ScaLAPACK and checking for singularities.
  : Overlap matrix is nonsingular, using Cholesky decomposition
  | Lowest eigenvalue:  0.811312E-04
  Factoring overlap matrix with Cholesky decomposition
  Using Cholesky factor for transformation
  Using 1-stage real ELPA solver
  Determining occupation numbers for Kohn-Sham eigenstates.
  | Chemical potential (Fermi level) in eV                 : -.95568426E+01
  | Error in electron count due to remaining E_F inaccuracy: 0.00000000E+00
  | Maximum occupation number of highest empty state:  0.00E+00

  Writing Kohn-Sham eigenvalues.

  State    Occupation    Eigenvalue [Ha]    Eigenvalue [eV]
      1       2.00000         -18.974665         -516.32691
      2       2.00000         -18.974271         -516.31619
      3       2.00000         -18.973904         -516.30620
      4       2.00000         -14.256361         -387.93532
      5       2.00000         -14.254591         -387.88714
      6       2.00000         -14.254198         -387.87647
      7       2.00000         -10.171128         -276.77047
      8       2.00000         -10.170940         -276.76537
      9       2.00000         -10.170793         -276.76135
     10       2.00000         -10.166166         -276.63545
     11       2.00000         -10.148489         -276.15444
     12       2.00000         -10.147195         -276.11923
     13       2.00000         -10.136252         -275.82144
     14       2.00000         -10.134163         -275.76460
     15       2.00000         -10.133913         -275.75780
     16       2.00000          -1.135748          -30.90528
     17       2.00000          -1.131490          -30.78940
     18       2.00000          -1.128076          -30.69652
     19       2.00000          -1.020061          -27.75726
     20       2.00000          -1.013982          -27.59187
     21       2.00000          -1.005631          -27.36461
     22       2.00000          -0.892763          -24.29331
     23       2.00000          -0.872522          -23.74253
     24       2.00000          -0.841193          -22.89004
     25       2.00000          -0.817423          -22.24320
     26       2.00000          -0.775978          -21.11544
     27       2.00000          -0.758917          -20.65118
     28       2.00000          -0.707896          -19.26282
     29       2.00000          -0.685906          -18.66446
     30       2.00000          -0.674001          -18.34049
     31       2.00000          -0.641444          -17.45458
     32       2.00000          -0.627107          -17.06444
     33       2.00000          -0.616978          -16.78882
     34       2.00000          -0.606051          -16.49149
     35       2.00000          -0.592036          -16.11013
     36       2.00000          -0.576477          -15.68673
     37       2.00000          -0.567652          -15.44660
     38       2.00000          -0.561407          -15.27666
     39       2.00000          -0.558313          -15.19247
     40       2.00000          -0.553055          -15.04940
     41       2.00000          -0.548616          -14.92859
     42       2.00000          -0.534928          -14.55613
     43       2.00000          -0.531863          -14.47272
     44       2.00000          -0.530043          -14.42322
     45       2.00000          -0.522288          -14.21219
     46       2.00000          -0.516972          -14.06752
     47       2.00000          -0.515061          -14.01553
     48       2.00000          -0.510009          -13.87806
     49       2.00000          -0.493113          -13.41830
     50       2.00000          -0.484206          -13.17591
     51       2.00000          -0.476699          -12.97165
     52       2.00000          -0.470508          -12.80317
     53       2.00000          -0.415255          -11.29967
     54       2.00000          -0.407218          -11.08096
     55       2.00000          -0.403446          -10.97833
     56       2.00000          -0.387587          -10.54679
     57       2.00000          -0.382830          -10.41734
     58       2.00000          -0.378502          -10.29956
     59       0.00000          -0.164322           -4.47142
     60       0.00000          -0.160886           -4.37792
     61       0.00000          -0.155414           -4.22904
     62       0.00000          -0.083301           -2.26673
     63       0.00000          -0.066766           -1.81680
     64       0.00000          -0.062903           -1.71167
     65       0.00000          -0.049522           -1.34757
     66       0.00000          -0.048004           -1.30627
     67       0.00000          -0.037670           -1.02505
     68       0.00000          -0.033990           -0.92491
     69       0.00000          -0.030399           -0.82720
     70       0.00000          -0.020898           -0.56866
     71       0.00000          -0.019842           -0.53993
     72       0.00000          -0.015022           -0.40878
     73       0.00000          -0.011544           -0.31413
     74       0.00000          -0.008073           -0.21967
     75       0.00000          -0.006090           -0.16573
     76       0.00000          -0.003470           -0.09443
     77       0.00000           0.001484            0.04038
     78       0.00000           0.005397            0.14687
     79       0.00000           0.011228            0.30552
     80       0.00000           0.017671            0.48084
     81       0.00000           0.021688            0.59016
     82       0.00000           0.030603            0.83276
     83       0.00000           0.038810            1.05607
     84       0.00000           0.040621            1.10535
     85       0.00000           0.042731            1.16278
     86       0.00000           0.051046            1.38902
     87       0.00000           0.053981            1.46891
     88       0.00000           0.060344            1.64204
     89       0.00000           0.063357            1.72402
     90       0.00000           0.072917            1.98418
     91       0.00000           0.077577            2.11098
     92       0.00000           0.084163            2.29019
     93       0.00000           0.088982            2.42132
     94       0.00000           0.091391            2.48687
     95       0.00000           0.097128            2.64299
     96       0.00000           0.101959            2.77446
     97       0.00000           0.111116            3.02363
     98       0.00000           0.113805            3.09679
     99       0.00000           0.119939            3.26370
    100       0.00000           0.121778            3.31375
    101       0.00000           0.123233            3.35333
    102       0.00000           0.132771            3.61288
    103       0.00000           0.135126            3.67697
    104       0.00000           0.142575            3.87965
    105       0.00000           0.145738            3.96574
    106       0.00000           0.149786            4.07589
    107       0.00000           0.160741            4.37398
    108       0.00000           0.163383            4.44588
    109       0.00000           0.166780            4.53832
    110       0.00000           0.169941            4.62432
    111       0.00000           0.172918            4.70534
    112       0.00000           0.177537            4.83104
    113       0.00000           0.181664            4.94333
    114       0.00000           0.186388            5.07187
    115       0.00000           0.193657            5.26968
    116       0.00000           0.199469            5.42782
    117       0.00000           0.202947            5.52248
    118       0.00000           0.209371            5.69727
    119       0.00000           0.215632            5.86765
    120       0.00000           0.218402            5.94302
    121       0.00000           0.223426            6.07974
    122       0.00000           0.224942            6.12100
    123       0.00000           0.230831            6.28124
    124       0.00000           0.235636            6.41198
    125       0.00000           0.244860            6.66299
    126       0.00000           0.249713            6.79503
    127       0.00000           0.256553            6.98117
    128       0.00000           0.264644            7.20132
    129       0.00000           0.270428            7.35872

  Highest occupied state (VBM) at    -10.29955899 eV
  | Occupation number:      2.00000000

  Lowest unoccupied state (CBM) at    -4.47142477 eV
  | Occupation number:      0.00000000

  Overall HOMO-LUMO gap:      5.82813422 eV.
  Calculating total energy contributions from superposition of free atom densities.

  Total energy components:
  | Sum of eigenvalues            :        -437.87656014 Ha      -11915.22744139 eV
  | XC energy correction          :         -98.81625757 Ha       -2688.92717961 eV
  | XC potential correction       :         127.01597225 Ha        3456.28045851 eV
  | Free-atom electrostatic energy:        -333.61097492 Ha       -9078.01651188 eV
  | Hartree energy correction     :           0.00000000 Ha           0.00000000 eV
  | MBD@rsSCS energy              :           0.00000000 Ha           0.00000000 eV
  | Entropy correction            :          -0.00000000 Ha          -0.00000000 eV
  | ---------------------------
  | Total energy                  :        -743.28782037 Ha      -20225.89067438 eV
  | Total energy, T -> 0          :        -743.28782037 Ha      -20225.89067438 eV  <-- do not rely on this value for anything but (periodic) metals
  | Electronic free energy        :        -743.28782037 Ha      -20225.89067438 eV

  Derived energy quantities:
  | Kinetic energy                :         735.14911045 Ha       20004.42510942 eV
  | Electrostatic energy          :       -1379.62067326 Ha      -37541.38860418 eV
  | Energy correction for multipole
  | error in Hartree potential    :           0.00000000 Ha           0.00000000 eV
  | Sum of eigenvalues per atom                           :        -372.35085754 eV
  | Total energy (T->0) per atom                          :        -632.05908357 eV  <-- do not rely on this value for anything but (periodic) metals
  | Electronic free energy per atom                       :        -632.05908357 eV
  Initialize hartree_potential_storage
  Max. number of atoms included in rho_multipole:           32

  End scf initialization - timings             :  max(cpu_time)    wall_clock(cpu1)
  | Time for scf. initialization               :        1.928 s           1.927 s
  | Boundary condition initialization          :        0.004 s           0.000 s
  | Integration                                :        1.172 s           1.171 s
  | Solution of K.-S. eqns.                    :        0.076 s           0.078 s
  | Grid partitioning                          :        0.316 s           0.312 s
  | Preloading free-atom quantities on grid    :        0.028 s           0.027 s
  | Free-atom superposition energy             :        0.040 s           0.040 s
  | Total energy evaluation                    :        0.000 s           0.001 s
------------------------------------------------------------

------------------------------------------------------------
          Begin self-consistency iteration #    1

  Date     :  20170309, Time     :  185543.338
------------------------------------------------------------
  Evaluating new KS density.
  Integration grid: deviation in total charge (<rho> - N_e) =   1.421085E-14
  Pulay mixing of updated and previous charge densities.

  Evaluating partitioned Hartree potential by multipole expansion.
  | Analytical far-field extrapolation by fixed multipoles:
  | Hartree multipole sum: apparent total charge =  -0.144618E-04
  Summing up the Hartree potential.
  Time summed over all CPUs for potential: real work        9.597 s, elapsed       10.022 s
  | RMS charge density error from multipole expansion :   0.105621E-01

  Integrating Hamiltonian matrix: batch-based integration.
  Time summed over all CPUs for integration: real work       21.698 s, elapsed       22.869 s

  Updating Kohn-Sham eigenvalues, eigenvectors, occupation numbers, and Fermi level.
  Solving generalized eigenproblem
  Solving real symmetric generalised eigenvalue problem by standard ScaLAPACK.
  Using Cholesky factor for transformation
  Using 2-stage real ELPA solver
  K-Point:    1, Trafo times: 1-stage=     0.021 s, 2-stage=     0.019 s ==> Using 2-stage solver
  Determining occupation numbers for Kohn-Sham eigenstates.
  | Chemical potential (Fermi level) in eV                 : -.15961787E+01
  | Error in electron count due to remaining E_F inaccuracy: 0.45105253E-10
  | Maximum occupation number of highest empty state:  0.00E+00

  Writing Kohn-Sham eigenvalues.

  State    Occupation    Eigenvalue [Ha]    Eigenvalue [eV]
      1       2.00000         -18.617533         -506.60886
      2       2.00000         -18.609270         -506.38400
      3       2.00000         -18.594636         -505.98580
      4       2.00000         -13.992550         -380.75665
      5       2.00000         -13.985028         -380.55198
      6       2.00000         -13.969854         -380.13906
      7       2.00000         -10.049858         -273.47054
      8       2.00000         -10.046543         -273.38035
      9       2.00000         -10.033045         -273.01304
     10       2.00000          -9.964693         -271.15310
     11       2.00000          -9.948826         -270.72133
     12       2.00000          -9.881014         -268.87606
     13       2.00000          -9.845173         -267.90079
     14       2.00000          -9.842565         -267.82983
     15       2.00000          -9.840776         -267.78114
     16       2.00000          -0.963375          -26.21478
     17       2.00000          -0.950722          -25.87045
     18       2.00000          -0.940825          -25.60116
     19       2.00000          -0.865783          -23.55916
     20       2.00000          -0.861431          -23.44073
     21       2.00000          -0.839095          -22.83292
     22       2.00000          -0.746093          -20.30222
     23       2.00000          -0.716912          -19.50816
     24       2.00000          -0.684019          -18.61311
     25       2.00000          -0.660768          -17.98041
     26       2.00000          -0.631050          -17.17174
     27       2.00000          -0.616765          -16.78303
     28       2.00000          -0.574811          -15.64141
     29       2.00000          -0.552263          -15.02785
     30       2.00000          -0.541243          -14.72798
     31       2.00000          -0.506926          -13.79415
     32       2.00000          -0.489146          -13.31035
     33       2.00000          -0.461569          -12.55994
     34       2.00000          -0.450554          -12.26020
     35       2.00000          -0.440434          -11.98483
     36       2.00000          -0.432335          -11.76443
     37       2.00000          -0.425127          -11.56830
     38       2.00000          -0.420195          -11.43409
     39       2.00000          -0.404824          -11.01582
     40       2.00000          -0.397645          -10.82048
     41       2.00000          -0.390977          -10.63904
     42       2.00000          -0.384941          -10.47477
     43       2.00000          -0.380633          -10.35756
     44       2.00000          -0.377346          -10.26810
     45       2.00000          -0.369626          -10.05805
     46       2.00000          -0.362089           -9.85294
     47       2.00000          -0.358140           -9.74547
     48       2.00000          -0.354776           -9.65395
     49       2.00000          -0.347656           -9.46020
     50       2.00000          -0.335358           -9.12554
     51       2.00000          -0.327491           -8.91148
     52       2.00000          -0.321271           -8.74224
     53       2.00000          -0.240863           -6.55422
     54       2.00000          -0.236466           -6.43457
     55       2.00000          -0.212928           -5.79406
     56       2.00000          -0.209149           -5.69124
     57       2.00000          -0.206124           -5.60893
     58       2.00000          -0.192356           -5.23426
     59       0.00000          -0.050101           -1.36332
     60       0.00000          -0.043779           -1.19130
     61       0.00000          -0.033806           -0.91989
     62       0.00000          -0.028325           -0.77077
     63       0.00000          -0.021544           -0.58624
     64       0.00000          -0.011565           -0.31469
     65       0.00000          -0.006431           -0.17500
     66       0.00000           0.002074            0.05644
     67       0.00000           0.007724            0.21017
     68       0.00000           0.019157            0.52128
     69       0.00000           0.025018            0.68077
     70       0.00000           0.031078            0.84568
     71       0.00000           0.034994            0.95224
     72       0.00000           0.041390            1.12627
     73       0.00000           0.043309            1.17849
     74       0.00000           0.049019            1.33387
     75       0.00000           0.052491            1.42837
     76       0.00000           0.059176            1.61026
     77       0.00000           0.072494            1.97265
     78       0.00000           0.083391            2.26918
     79       0.00000           0.084772            2.30676
     80       0.00000           0.091874            2.50001
     81       0.00000           0.096649            2.62996
     82       0.00000           0.098664            2.68479
     83       0.00000           0.102125            2.77897
     84       0.00000           0.110986            3.02008
     85       0.00000           0.112839            3.07051
     86       0.00000           0.118318            3.21960
     87       0.00000           0.123159            3.35132
     88       0.00000           0.126878            3.45253
     89       0.00000           0.134482            3.65943
     90       0.00000           0.137933            3.75336
     91       0.00000           0.146841            3.99575
     92       0.00000           0.153664            4.18140
     93       0.00000           0.162865            4.43177
     94       0.00000           0.164889            4.48687
     95       0.00000           0.166626            4.53412
     96       0.00000           0.170459            4.63844
     97       0.00000           0.178056            4.84515
     98       0.00000           0.182911            4.97725
     99       0.00000           0.186135            5.06499
    100       0.00000           0.192222            5.23062
    101       0.00000           0.198734            5.40783
    102       0.00000           0.202987            5.52357
    103       0.00000           0.207428            5.64441
    104       0.00000           0.207623            5.64971
    105       0.00000           0.212661            5.78681
    106       0.00000           0.215919            5.87545
    107       0.00000           0.222567            6.05636
    108       0.00000           0.227023            6.17760
    109       0.00000           0.233601            6.35662
    110       0.00000           0.237178            6.45395
    111       0.00000           0.239733            6.52347
    112       0.00000           0.241122            6.56125
    113       0.00000           0.244187            6.64466
    114       0.00000           0.255060            6.94054
    115       0.00000           0.259415            7.05905
    116       0.00000           0.264691            7.20262
    117       0.00000           0.266392            7.24890
    118       0.00000           0.270806            7.36901
    119       0.00000           0.280646            7.63677
    120       0.00000           0.284499            7.74162
    121       0.00000           0.295812            8.04945
    122       0.00000           0.303231            8.25135
    123       0.00000           0.305759            8.32012
    124       0.00000           0.312985            8.51676
    125       0.00000           0.316381            8.60916
    126       0.00000           0.325532            8.85817
    127       0.00000           0.327344            8.90748
    128       0.00000           0.339704            9.24383
    129       0.00000           0.343972            9.35996

  Highest occupied state (VBM) at     -5.23426357 eV
  | Occupation number:      2.00000000

  Lowest unoccupied state (CBM) at    -1.36332010 eV
  | Occupation number:      0.00000000

  Overall HOMO-LUMO gap:      3.87094347 eV.

  Total energy components:
  | Sum of eigenvalues            :        -416.80693297 Ha      -11341.89371536 eV
  | XC energy correction          :        -100.75504183 Ha       -2741.68418368 eV
  | XC potential correction       :         129.53042726 Ha        3524.70226061 eV
  | Free-atom electrostatic energy:        -333.61097492 Ha       -9078.01651188 eV
  | Hartree energy correction     :         -21.07055624 Ha        -573.35900757 eV
  | MBD@rsSCS energy              :           0.00000000 Ha           0.00000000 eV
  | Entropy correction            :          -0.00000000 Ha          -0.00000000 eV
  | ---------------------------
  | Total energy                  :        -742.71307871 Ha      -20210.25115788 eV
  | Total energy, T -> 0          :        -742.71307871 Ha      -20210.25115788 eV  <-- do not rely on this value for anything but (periodic) metals
  | Electronic free energy        :        -742.71307871 Ha      -20210.25115788 eV

  Derived energy quantities:
  | Kinetic energy                :         744.05781947 Ha       20246.84341570 eV
  | Electrostatic energy          :       -1386.01585634 Ha      -37715.41038990 eV
  | Energy correction for multipole
  | error in Hartree potential    :          -0.04188996 Ha          -1.13988384 eV
  | Sum of eigenvalues per atom                           :        -354.43417861 eV
  | Total energy (T->0) per atom                          :        -631.57034868 eV  <-- do not rely on this value for anything but (periodic) metals
  | Electronic free energy per atom                       :        -631.57034868 eV

  Self-consistency convergence accuracy:
  | Change of charge density      :  0.9034E+00
  | Change of sum of eigenvalues  :  0.5733E+03 eV
  | Change of total energy        :  0.1564E+02 eV

  End self-consistency iteration #     1       :  max(cpu_time)    wall_clock(cpu1)
  | Time for this iteration                    :        1.580 s           1.574 s
[...]
   Multipole                     :  0.501351E+00 -0.220402E+00  0.822369E-01
   Pulay + GGA                   :  0.117184E+02 -0.546869E+01  0.207850E+01
   MBD@rsSCS                     :  0.125495E-01 -0.141933E-01  0.877066E-02
   ----------------------------------------------------------------
   Total forces(  20)            :  0.578016E-02 -0.518451E-02  0.152308E-01
  atom #   21
   Hellmann-Feynman              : -0.286879E-01  0.882789E-02 -0.295766E-01
   Ionic forces                  :  0.000000E+00  0.000000E+00  0.000000E+00
   Multipole                     : -0.152150E-01  0.183535E-01  0.500706E-02
   Pulay + GGA                   :  0.483848E-01 -0.138062E-01  0.305230E-01
   MBD@rsSCS                     :  0.351670E-02  0.924131E-02 -0.458720E-02
   ----------------------------------------------------------------
   Total forces(  21)            :  0.799856E-02  0.226165E-01  0.136630E-02
  atom #   22
   Hellmann-Feynman              :  0.466043E-01  0.270096E-01 -0.143930E-01
   Ionic forces                  :  0.000000E+00  0.000000E+00  0.000000E+00
   Multipole                     :  0.686332E-02  0.594184E-02  0.149344E-02
   Pulay + GGA                   : -0.559685E-01 -0.341793E-01  0.176437E-01
   MBD@rsSCS                     :  0.581505E-02 -0.121533E-02 -0.124675E-02
   ----------------------------------------------------------------
   Total forces(  22)            :  0.331422E-02 -0.244319E-02  0.349741E-02
  atom #   23
   Hellmann-Feynman              : -0.117096E+00  0.300044E+00  0.950991E+00
   Ionic forces                  :  0.000000E+00  0.000000E+00  0.000000E+00
   Multipole                     : -0.103776E+00 -0.102270E+00 -0.254984E+00
   Pulay + GGA                   :  0.211228E+00 -0.190397E+00 -0.691328E+00
   MBD@rsSCS                     :  0.897660E-02 -0.197801E-02 -0.150867E-01
   ----------------------------------------------------------------
   Total forces(  23)            : -0.666907E-03  0.539833E-02 -0.104081E-01
  atom #   24
   Hellmann-Feynman              :  0.801868E-04 -0.349420E-01 -0.605985E-01
   Ionic forces                  :  0.000000E+00  0.000000E+00  0.000000E+00
   Multipole                     :  0.250487E-01 -0.870124E-02  0.265624E-01
   Pulay + GGA                   : -0.304296E-01  0.437433E-01  0.310726E-01
   MBD@rsSCS                     :  0.423653E-03 -0.166287E-02 -0.107092E-01
   ----------------------------------------------------------------
   Total forces(  24)            : -0.487713E-02 -0.156285E-02 -0.136727E-01
  atom #   25
   Hellmann-Feynman              : -0.462816E-01  0.177203E-02 -0.137415E-01
   Ionic forces                  :  0.000000E+00  0.000000E+00  0.000000E+00
   Multipole                     : -0.203348E-01 -0.115470E-01  0.845588E-02
   Pulay + GGA                   :  0.668055E-01  0.250530E-02  0.104598E-02
   MBD@rsSCS                     :  0.619960E-02 -0.292278E-02 -0.171187E-01
   ----------------------------------------------------------------
   Total forces(  25)            :  0.638871E-02 -0.101924E-01 -0.213583E-01
  atom #   26
   Hellmann-Feynman              : -0.184413E-01  0.102396E-01 -0.529000E-01
   Ionic forces                  :  0.000000E+00  0.000000E+00  0.000000E+00
   Multipole                     :  0.157045E-01  0.305477E-01  0.642159E-02
   Pulay + GGA                   :  0.209733E-02 -0.442549E-01  0.429689E-01
   MBD@rsSCS                     :  0.198230E-02 -0.446169E-02 -0.110320E-01
   ----------------------------------------------------------------
   Total forces(  26)            :  0.134280E-02 -0.792933E-02 -0.145415E-01
  atom #   27
   Hellmann-Feynman              : -0.144903E+01  0.423136E+00 -0.255125E+00
   Ionic forces                  :  0.000000E+00  0.000000E+00  0.000000E+00
   Multipole                     : -0.147182E+00  0.446539E-01  0.431375E-01
   Pulay + GGA                   :  0.159523E+01 -0.453809E+00  0.210951E+00
   MBD@rsSCS                     : -0.460442E-02 -0.255224E-01  0.134988E-01
   ----------------------------------------------------------------
   Total forces(  27)            : -0.559217E-02 -0.115408E-01  0.124616E-01
  atom #   28
   Hellmann-Feynman              :  0.222968E+01 -0.847751E+00 -0.242179E+00
   Ionic forces                  :  0.000000E+00  0.000000E+00  0.000000E+00
   Multipole                     : -0.159126E+00  0.703069E-01  0.276521E-01
   Pulay + GGA                   : -0.206826E+01  0.783153E+00  0.219396E+00
   MBD@rsSCS                     : -0.165425E-01 -0.241895E-01  0.201048E-02
   ----------------------------------------------------------------
   Total forces(  28)            : -0.142485E-01 -0.184807E-01  0.687940E-02
  atom #   29
   Hellmann-Feynman              : -0.472673E-01 -0.442910E-01  0.391979E-01
   Ionic forces                  :  0.000000E+00  0.000000E+00  0.000000E+00
   Multipole                     :  0.451334E-01 -0.486317E-02 -0.242648E-02
   Pulay + GGA                   :  0.453139E-02  0.553737E-01 -0.414176E-01
   MBD@rsSCS                     :  0.231635E-02 -0.639750E-02  0.381292E-02
   ----------------------------------------------------------------
   Total forces(  29)            :  0.471392E-02 -0.177983E-03 -0.833268E-03
  atom #   30
   Hellmann-Feynman              : -0.364376E-01  0.251760E-01 -0.284697E-01
   Ionic forces                  :  0.000000E+00  0.000000E+00  0.000000E+00
   Multipole                     :  0.189203E-02  0.186534E-01  0.291970E-01
   Pulay + GGA                   :  0.292106E-01 -0.338454E-01  0.506327E-02
   MBD@rsSCS                     : -0.115098E-01 -0.198705E-01  0.337644E-02
   ----------------------------------------------------------------
   Total forces(  30)            : -0.168447E-01 -0.988650E-02  0.916697E-02
  atom #   31
   Hellmann-Feynman              : -0.394458E-01  0.341621E-01 -0.401109E-01
   Ionic forces                  :  0.000000E+00  0.000000E+00  0.000000E+00
   Multipole                     :  0.779842E-02 -0.138496E-01 -0.229258E-01
   Pulay + GGA                   :  0.163305E-01 -0.227157E-01  0.679625E-01
   MBD@rsSCS                     : -0.143715E-01 -0.113214E-01  0.872070E-02
   ----------------------------------------------------------------
   Total forces(  31)            : -0.296884E-01 -0.137245E-01  0.136465E-01
  atom #   32
   Hellmann-Feynman              : -0.576728E-01 -0.149532E-01  0.689822E-02
   Ionic forces                  :  0.000000E+00  0.000000E+00  0.000000E+00
   Multipole                     :  0.237107E-01 -0.314267E-01  0.651536E-02
   Pulay + GGA                   :  0.374413E-01  0.533488E-01 -0.172417E-01
   MBD@rsSCS                     : -0.575366E-02 -0.208808E-02  0.473938E-03
   ----------------------------------------------------------------
   Total forces(  32)            : -0.227444E-02  0.488082E-02 -0.335423E-02

  Removing unitary transformations (pure translations, rotations) from forces on atoms.
  Atomic forces before filtering:
  | Net force on center of mass :   0.428431E-03 -0.258620E-03 -0.153803E-03 eV/A
  | Net torque on center of mass:   0.323871E-02  0.349859E-04  0.195441E-02 eV
  Atomic forces after filtering:
  | Net force on center of mass :  -0.348449E-17  0.000000E+00  0.153318E-16 eV/A
  | Net torque on center of mass:  -0.590053E-17  0.663809E-17  0.737566E-17 eV

  Energy and forces in a compact form:
  | Total energy uncorrected      :         -0.202089263874004E+05 eV
  | Total energy corrected        :         -0.202089263874004E+05 eV  <-- do not rely on this value for anything but (periodic) metals
  | Electronic free energy        :         -0.202089263874004E+05 eV
  Total atomic forces (unitary forces cleaned) [eV/Ang]:
  |   1          0.358929428440673E-03         -0.613880150577647E-02         -0.295467607199231E-02
  |   2         -0.307197543772649E-02          0.718123465967551E-02          0.383618340854237E-01
  |   3         -0.148413406484071E-01         -0.214867051138887E-01          0.113617511354332E-01
  |   4         -0.347361713732909E-02          0.320873444850558E-03          0.106114629848545E-01
  |   5         -0.185884343964185E-03          0.399904142980249E-02          0.581539233617636E-02
  |   6          0.390894392593245E-02          0.280119231376144E-02          0.604902299838312E-02
  |   7          0.413208793435058E-02          0.614095470502669E-02         -0.840328714467926E-02
  |   8          0.426787132355244E-02          0.722894283657889E-02          0.569310654959495E-02
  |   9          0.223819984216643E-01          0.111980776091065E-01         -0.108036802120671E-01
  |  10          0.153984425654420E-01         -0.308145246220787E-02          0.786907347502635E-02
  |  11         -0.117330231530767E-02          0.550373525170955E-02          0.284518303749166E-02
  |  12          0.306140525835772E-02          0.355262321766662E-02          0.187533819802658E-02
  |  13         -0.640977233182563E-02          0.143024257577301E-01         -0.198893550261570E-01
  |  14         -0.946537103977679E-02         -0.358947101891048E-02         -0.573412722013944E-02
  |  15         -0.188108982419412E-01          0.953287574528972E-02         -0.898423441517579E-02
  |  16         -0.264568555295946E-01          0.765108268619721E-02         -0.207271714408294E-01
  |  17          0.427520256347886E-01          0.126695127907521E-01         -0.501772156987152E-02
  |  18          0.102414683352864E-01          0.973471299599455E-02         -0.106862367213350E-01
  |  19          0.220115923102832E-01         -0.196261163418415E-01          0.485701236161117E-02
  |  20          0.579069403305414E-02         -0.515086460898417E-02          0.152023393302997E-01
  |  21          0.798319860663124E-02          0.226410757857005E-01          0.137221504649278E-02
  |  22          0.330565347228049E-02         -0.239842696357709E-02          0.349276357482844E-02
  |  23         -0.669283126788183E-03          0.544943776209331E-02         -0.104213033886312E-01
  |  24         -0.487294093353369E-02         -0.150315379018184E-02         -0.136952053162509E-01
  |  25          0.638959071074815E-02         -0.101483073596526E-01         -0.213751291489393E-01
  |  26          0.133295478898209E-02         -0.786917480096271E-02         -0.145458220126026E-01
  |  27         -0.558226540517512E-02         -0.115296922999641E-01          0.124359595929186E-01
  |  28         -0.142425011139518E-01         -0.184793314885767E-01          0.685961891688593E-02
  |  29          0.473096376118072E-02         -0.172170100673300E-03         -0.867731696033805E-03
  |  30         -0.168459975637026E-01         -0.989312883216432E-02          0.915735574379245E-02
  |  31         -0.296843851887148E-01         -0.137136556260474E-01          0.136284865946085E-01
  |  32         -0.226143015323612E-02          0.487265332147334E-02         -0.338223457714325E-02

  ------------------------------------ 
  Start decomposition of the XC Energy 
  ------------------------------------ 
  Hartree-Fock part   :          0.000000000 Ha              0.000000000 eV
  ------------------------------------ 
  X Energy            :        -96.985719850 Ha          -2639.115713840 eV
  C Energy GGA        :         -3.868059964 Ha           -105.255266948 eV
  Total XC Energy     :       -100.853779814 Ha          -2744.370980788 eV
  LDA X and C from self-consistent density 
  X Energy LDA        :        -88.001649874 Ha          -2394.646731363 eV
  C Energy LDA        :         -7.531946768 Ha           -204.954699538 eV
  ------------------------------------ 
  End decomposition of the XC Energy 
  ------------------------------------ 
   
  ESP charge fitting starts.
  | Calculation :  00000001  of  00000001
  | Full density
  Computing multipole expansion for total density.
  Generating points for esp charges.
  Partitioning the integration grid into batches with parallel hashing+maxmin method.
  | Number of batches:     3861
  | Maximal batch size:     194
  | Minimal batch size:      55
  | Average batch size:     126.006
  | Standard deviation of batch sizes:      17.477

  Integration load balanced across    32 MPI tasks.
  Work distribution over tasks is as follows:
  Initializing partition tables, free-atom densities, potentials, etc. across the integration grid (initialize_grid_storage).
  | Original list of interatomic distances with          32 x         32 entries is created.
  | Net number of integration points:   486508
  | of which are non-zero points    :   486508
  Summing up potential from multipole expanded  density.
  Summing up the Hartree potential.
  Time summed over all CPUs for potential: real work        6.345 s, elapsed        6.540 s
  Fitting esp charges to potential.
  |
  | ESP charges fitted to the electrostatic potential :
  |
  | Atom         1: C, ESP charge:      0.82302315
  |
  | Atom         2: C, ESP charge:     -1.01951127
  |
  | Atom         3: O, ESP charge:      0.70525804
  |
  | Atom         4: H, ESP charge:     -0.18958636
  |
  | Atom         5: H, ESP charge:     -0.22355539
  |
  | Atom         6: H, ESP charge:     -0.22960888
  |
  | Atom         7: N, ESP charge:      0.67429362
  |
  | Atom         8: C, ESP charge:     -0.07668653
  |
  | Atom         9: C, ESP charge:     -0.13629969
  |
  | Atom        10: O, ESP charge:      0.42085955
  |
  | Atom        11: H, ESP charge:     -0.34411367
  |
  | Atom        12: H, ESP charge:     -0.19172012
  |
  | Atom        13: C, ESP charge:      0.58647129
  |
  | Atom        14: H, ESP charge:     -0.18581842
  |
  | Atom        15: H, ESP charge:     -0.14281400
  |
  | Atom        16: H, ESP charge:     -0.21861655
  |
  | Atom        17: N, ESP charge:      0.17852648
  |
  | Atom        18: C, ESP charge:     -0.31011641
  |
  | Atom        19: C, ESP charge:     -0.25582762
  |
  | Atom        20: O, ESP charge:      0.50382250
  |
  | Atom        21: H, ESP charge:     -0.20313668
  |
  | Atom        22: H, ESP charge:     -0.12423592
  |
  | Atom        23: C, ESP charge:      0.96147526
  |
  | Atom        24: H, ESP charge:     -0.28070866
  |
  | Atom        25: H, ESP charge:     -0.27449205
  |
  | Atom        26: H, ESP charge:     -0.24046492
  |
  | Atom        27: N, ESP charge:      0.13056118
  |
  | Atom        28: C, ESP charge:      0.45724142
  |
  | Atom        29: H, ESP charge:     -0.25562421
  |
  | Atom        30: H, ESP charge:     -0.29302343
  |
  | Atom        31: H, ESP charge:     -0.09313966
  |
  | Atom        32: H, ESP charge:     -0.15243202

  RRMS:       0.00364510

  Done.

------------------------------------------------------------------------------
  Final output of selected total energy values:

  The following output summarizes some interesting total energy values
  at the end of a run (AFTER all relaxation, molecular dynamics, etc.).

  | Total energy of the DFT / Hartree-Fock s.c.f. calculation      :         -20208.926387400 eV
  | Final zero-broadening corrected energy (caution - metals only) :         -20208.926387400 eV
  | For reference only, the value of 1 Hartree used in FHI-aims is :             27.211384500 eV

  Before relying on these values, please be sure to understand exactly which
  total energy value is referred to by a given number. Different objects may
  all carry the same name 'total energy'. Definitions:

  Total energy of the DFT / Hartree-Fock s.c.f. calculation:
  | Note that this energy does not include ANY quantities calculated after the
  | s.c.f. cycle, in particular not ANY RPA, MP2, etc. many-body perturbation terms.

  Final zero-broadening corrected energy:
  | For metallic systems only, a broadening of the occupation numbers at the Fermi
  | level can be extrapolated back to zero broadening by an electron-gas inspired
  | formula. For all systems that are not real metals, this value can be
  | meaningless and should be avoided.

------------------------------------------------------------------------------
  Methods described in the following list of references were used in this FHI-aims run.
  If you publish the results, please make sure to cite these reference if they apply.
  FHI-aims is an academic code, and for our developers (often, Ph.D. students
  and postdocs), scientific credit in the community is essential.
  Thank you for helping us!

  For any use of FHI-aims, please cite:

    Volker Blum, Ralf Gehrke, Felix Hanke, Paula Havu, Ville Havu,
    Xinguo Ren, Karsten Reuter, and Matthias Scheffler
    'Ab initio molecular simulations with numeric atom-centered orbitals'
    Computer Physics Communications 180, 2175-2196 (2009)
    http://dx.doi.org/10.1016/j.cpc.2009.06.022


  The scalable eigensolver library ELPA was used in your run.
  ELPA is essential especially for large systems on hundreds or thousands of CPUs.
  For ELPA, please cite:

    Andreas Marek, Volker Blum, Rainer Johanni, Ville Havu, Bruno Lang,
    Thomas Auckenthaler, Alexander Heinecke, Hans-Joachim Bungartz, and Hermann Lederer,
    'The ELPA Library - Scalable Parallel Eigenvalue Solutions
    for Electronic Structure Theory and Computational Science'
    The Journal of Physics: Condensed Matter 26, 213201 (2014).
    http://dx.doi.org/10.1088/0953-8984/26/21/213201


  For ELPA's efficient two-stage tridiagonalization used in your run, please cite:

    T. Auckenthaler, V. Blum, H.-J. Bungartz, T. Huckle, R. Johanni, L. Kraemer,
    B. Lang, H. Lederer, and P. R. Willems,
    'Parallel solution of partial symmetric eigenvalue problems'
    'from  electronic structure calculations'
    Parallel Computing 37, 783-794 (2011).
    http://dx.doi.org/10.1016/j.parco.2011.05.002


  For the real-space grid partitioning and parallelization used in this calculation, please cite:

    Ville Havu, Volker Blum, Paula Havu, and Matthias Scheffler,
    'Efficient O(N) integration for all-electron electronic structure calculation'
    'using numerically tabulated basis functions'
    Journal of Computational Physics 228, 8367-8379 (2009).
    http://dx.doi.org/10.1016/j.jcp.2009.08.008

  Of course, there are many other important community references, e.g., those cited in the
  above references. Our list is limited to references that describe implementations in the
  FHI-aims code. The reason is purely practical (length of this list) - please credit others as well.

------------------------------------------------------------
          Leaving FHI-aims.
          Date     :  20170309, Time     :  185614.383

          Computational steps:
          | Number of self-consistency cycles          :           14

          Detailed time accounting                     :  max(cpu_time)    wall_clock(cpu1)
          | Total time                                 :       33.866 s          34.017 s
          | Preparation time                           :        0.240 s           0.238 s
          | Grid partitioning                          :        0.316 s           0.312 s
          | Preloading free-atom quantities on grid    :        0.028 s           0.027 s
          | Free-atom superposition energy             :        0.040 s           0.040 s
          | Total time for integrations                :       11.309 s          11.296 s
          | Total time for solution of K.-S. equations :        0.528 s           0.495 s
          | Total time for density & force components  :        9.825 s           9.809 s
          | Total time for mixing                      :        0.132 s           0.108 s
          | Total time for Hartree multipole update    :        0.060 s           0.058 s
          | Total time for Hartree multipole sum       :        6.488 s           6.467 s
          | Total time for total energy evaluation     :        0.024 s           0.019 s

          Have a nice day.
------------------------------------------------------------
