  MPI-parallelism will be employed.
------------------------------------------------------------
          Invoking FHI-aims ...
          Version 150427
          Git rev.: 9dd23e0 BL: Update Version stamp
          Compiled on 2015/11/03 at 22:05:20 on host eos03.

          When using FHI-aims, please cite the following reference:

          Volker Blum, Ralf Gehrke, Felix Hanke, Paula Havu,
          Ville Havu, Xinguo Ren, Karsten Reuter, and Matthias Scheffler,
          'Ab Initio Molecular Simulations with Numeric Atom-Centered Orbitals: FHI-aims',
          Computer Physics Communications 180, 2175-2196 (2009)

          For any questions about FHI-aims, please visit the aimsclub website
          with its forums and wiki. Contributions to both the forums and the
          wiki are warmly encouraged - they are for you, and everyone is welcome there.

------------------------------------------------------------

  Date     :  20170309, Time     :  190440.448
  Time zero on CPU 1             :   0.320020000000000E+00  s.
  Internal wall clock time zero  :           258318280.448  s.

  Using       32 parallel tasks.
  Task        0 on host eos036 reporting.
  Task        1 on host eos036 reporting.
  Task        2 on host eos036 reporting.
  Task        3 on host eos036 reporting.
  Task        4 on host eos036 reporting.
  Task        5 on host eos036 reporting.
  Task        6 on host eos036 reporting.
  Task        7 on host eos036 reporting.
  Task        8 on host eos036 reporting.
  Task        9 on host eos036 reporting.
  Task       10 on host eos036 reporting.
  Task       11 on host eos036 reporting.
  Task       12 on host eos036 reporting.
  Task       13 on host eos036 reporting.
  Task       14 on host eos036 reporting.
  Task       15 on host eos036 reporting.
  Task       16 on host eos036 reporting.
  Task       17 on host eos036 reporting.
  Task       18 on host eos036 reporting.
  Task       19 on host eos036 reporting.
  Task       20 on host eos036 reporting.
  Task       21 on host eos036 reporting.
  Task       22 on host eos036 reporting.
  Task       23 on host eos036 reporting.
  Task       24 on host eos036 reporting.
  Task       25 on host eos036 reporting.
  Task       26 on host eos036 reporting.
  Task       27 on host eos036 reporting.
  Task       28 on host eos036 reporting.
  Task       29 on host eos036 reporting.
  Task       30 on host eos036 reporting.
  Task       31 on host eos036 reporting.

  Performing system and environment tests:
  | Environment variable OMP_NUM_THREADS correctly set to 1.
  | Stacksize not measured: no C compiler
  | Checking for scalapack...
  | Testing pdtran()...
  | All pdtran() tests passed.

  Obtaining array dimensions for all initial allocations:
  
  -----------------------------------------------------------------------
  Parsing control.in (first pass over file, find array dimensions only).
  The contents of control.in will be repeated verbatim below
  unless switched off by setting 'verbatim_writeout .false.' .
  in the first line of control.in .
  -----------------------------------------------------------------------
  
  #########################################################################################
  #
  # Input for System
  #
  #########################################################################################
  #
  #
  #  Physical model
  #
    xc                 pbe
    many_body_dispersion
    spin               none
    charge             0.
  #
  #  SCF convergence
  #
    occupation_type    gaussian 0.05
    mixer              pulay
      n_max_pulay        10
      charge_mix_param   0.5
    sc_accuracy_rho    1E-4
    sc_accuracy_eev    1E-2
    sc_accuracy_etot   1E-5
    sc_accuracy_forces 1E-4
    sc_iter_limit      1000
  #
  #  ESP charge
  #
    output esp
    esp equal_grid_n 80 80 80
  #
  #
  ################################################################################
  #
  #  FHI-aims code project
  # Volker Blum, Fritz Haber Institute Berlin, 2009
  #
  #  Suggested "tight" defaults for H atom (to be pasted into control.in file)
  #
  ################################################################################
    species        H
  #     global species definitions
      nucleus             1
      mass                1.00794
  #
      l_hartree           6
  #
      cut_pot             4.0  2.0  1.0
      basis_dep_cutoff    1e-4
  #
      radial_base         24 7.0
      radial_multiplier   2
      angular_grids       specified
        division   0.1930   50
        division   0.3175  110
        division   0.4293  194
        division   0.5066  302
        division   0.5626  434
  #      division   0.5922  590
  #      division   0.6227  974
  #      division   0.6868 1202
  #      outer_grid  770
        outer_grid  434
  ################################################################################
  #
  #  Definition of "minimal" basis
  #
  ################################################################################
  #     valence basis states
      valence      1  s   1.
  #     ion occupancy
      ion_occ      1  s   0.5
  ################################################################################
  #
  #  Suggested additional basis functions. For production calculations,
  #  uncomment them one after another (the most important basis functions are
  #  listed first).
  #
  #  Basis constructed for dimers: 0.5 A, 0.7 A, 1.0 A, 1.5 A, 2.5 A
  #
  ################################################################################
  #  "First tier" - improvements: -1014.90 meV to -62.69 meV
       hydro 2 s 2.1
       hydro 2 p 3.5
  #  "Second tier" - improvements: -12.89 meV to -1.83 meV
       hydro 1 s 0.85
       hydro 2 p 3.7
       hydro 2 s 1.2
       hydro 3 d 7
  #  "Third tier" - improvements: -0.25 meV to -0.12 meV
  #     hydro 4 f 11.2
  #     hydro 3 p 4.8
  #     hydro 4 d 9
  #     hydro 3 s 3.2
  ################################################################################
  #
  # For methods that use the localized form of the "resolution of identity" for
  # the two-electron Coulomb operator (RI_method LVL), particularly Hartree-Fock and
  # hybrid density functional calculations, the highest accuracy can be obtained by
  # uncommenting the line beginning with "for_aux"  below, thus adding an extra g radial
  # function to the construction of the product basis set for the expansion.
  # See Ref. New J. Phys. 17, 093020 (2015) for more information, particularly Figs. 1 and 6.
  #
  ################################################################################
  #
  # for_aux hydro 5 g 6.0
  ################################################################################
  #
  #  FHI-aims code project
  # Volker Blum, Fritz Haber Institute Berlin, 2009
  #
  #  Suggested "tight" defaults for C atom (to be pasted into control.in file)
  #
  ################################################################################
    species        C
  #     global species definitions
      nucleus             6
      mass                12.0107
  #
      l_hartree           6
  #
      cut_pot             4.0  2.0  1.0
      basis_dep_cutoff    1e-4
  #
      radial_base         34 7.0
      radial_multiplier   2
      angular_grids specified
        division   0.2187   50
        division   0.4416  110
        division   0.6335  194
        division   0.7727  302
        division   0.8772  434
  #      division   0.9334  590
  #      division   0.9924  770
  #      division   1.0230  974
  #      division   1.5020 1202
  #     outer_grid  974
        outer_grid  434
  ################################################################################
  #
  #  Definition of "minimal" basis
  #
  ################################################################################
  #     valence basis states
      valence      2  s   2.
      valence      2  p   2.
  #     ion occupancy
      ion_occ      2  s   1.
      ion_occ      2  p   1.
  ################################################################################
  #
  #  Suggested additional basis functions. For production calculations,
  #  uncomment them one after another (the most important basis functions are
  #  listed first).
  #
  #  Constructed for dimers: 1.0 A, 1.25 A, 1.5 A, 2.0 A, 3.0 A
  #
  ################################################################################
  #  "First tier" - improvements: -1214.57 meV to -155.61 meV
       hydro 2 p 1.7
       hydro 3 d 6
       hydro 2 s 4.9
  #  "Second tier" - improvements: -67.75 meV to -5.23 meV
       hydro 4 f 9.8
       hydro 3 p 5.2
       hydro 3 s 4.3
       hydro 5 g 14.4
       hydro 3 d 6.2
  #  "Third tier" - improvements: -2.43 meV to -0.60 meV
  #     hydro 2 p 5.6
  #     hydro 2 s 1.4
  #     hydro 3 d 4.9
  #     hydro 4 f 11.2
  #  "Fourth tier" - improvements: -0.39 meV to -0.18 meV
  #     hydro 2 p 2.1
  #     hydro 5 g 16.4
  #     hydro 4 d 13.2
  #     hydro 3 s 13.6
  #     hydro 4 f 17.6
  #  Further basis functions - improvements: -0.08 meV and below
  #     hydro 3 s 2
  #     hydro 3 p 6
  #     hydro 4 d 20
  ################################################################################
  #
  # For methods that use the localized form of the "resolution of identity" for
  # the two-electron Coulomb operator (RI_method LVL), particularly Hartree-Fock and
  # hybrid density functional calculations, the highest accuracy can be obtained by
  # uncommenting the line beginning with "for_aux"  below, thus adding an extra g radial
  # function to the construction of the product basis set for the expansion.
  # See Ref. New J. Phys. 17, 093020 (2015) for more information, particularly Figs. 1 and 6.
  #
  ################################################################################
  #
  # for_aux hydro 5 g 6.0
  ################################################################################
  #
  #  FHI-aims code project
  # Volker Blum, Fritz Haber Institute Berlin, 2009
  #
  #  Suggested "tight" defaults for N atom (to be pasted into control.in file)
  #
  ################################################################################
    species        N
  #     global species definitions
      nucleus             7
      mass                14.0067
  #
      l_hartree           6
  #
      cut_pot             4.0  2.0  1.0
      basis_dep_cutoff    1e-4
  #
      radial_base         35 7.0
      radial_multiplier   2
      angular_grids       specified
        division   0.1841   50
        division   0.3514  110
        division   0.5126  194
        division   0.6292  302
        division   0.6939  434
  #      division   0.7396  590
  #      division   0.7632  770
  #      division   0.8122  974
  #      division   1.1604 1202
  #      outer_grid  974
        outer_grid  434
  ################################################################################
  #
  #  Definition of "minimal" basis
  #
  ################################################################################
  #     valence basis states
      valence      2  s   2.
      valence      2  p   3.
  #     ion occupancy
      ion_occ      2  s   1.
      ion_occ      2  p   2.
  ################################################################################
  #
  #  Suggested additional basis functions. For production calculations,
  #  uncomment them one after another (the most important basis functions are
  #  listed first).
  #
  #  Constructed for dimers: 1.0 A, 1.1 A, 1.5 A, 2.0 A, 3.0 A
  #
  ################################################################################
  #  "First tier" - improvements: -1193.42 meV to -220.60 meV
       hydro 2 p 1.8
       hydro 3 d 6.8
       hydro 3 s 5.8
  #  "Second tier" - improvements: -80.21 meV to -6.86 meV
       hydro 4 f 10.8
       hydro 3 p 5.8
       hydro 1 s 0.8
       hydro 5 g 16
       hydro 3 d 4.9
  #  "Third tier" - improvements: -4.29 meV to -0.53 meV
  #     hydro 3 s 16
  #     ionic 2 p auto
  #     hydro 3 d 6.6
  #     hydro 4 f 11.6
  #  "Fourth tier" - improvements: -0.75 meV to -0.25 meV
  #     hydro 2 p 4.5
  #     hydro 2 s 2.4
  #     hydro 5 g 14.4
  #     hydro 4 d 14.4
  #     hydro 4 f 16.8
  # Further basis functions - -0.21 meV and below
  #     hydro 3 p 14.8
  #     hydro 3 s 4.4
  #     hydro 3 d 19.6
  #     hydro 5 g 12.8
  ################################################################################
  #
  # For methods that use the localized form of the "resolution of identity" for
  # the two-electron Coulomb operator (RI_method LVL), particularly Hartree-Fock and
  # hybrid density functional calculations, the highest accuracy can be obtained by
  # uncommenting the line beginning with "for_aux"  below, thus adding an extra g radial
  # function to the construction of the product basis set for the expansion.
  # See Ref. New J. Phys. 17, 093020 (2015) for more information, particularly Figs. 1 and 6.
  #
  ################################################################################
  #
  # for_aux hydro 5 g 6.0
  ################################################################################
  #
  #  FHI-aims code project
  # Volker Blum, Fritz Haber Institute Berlin, 2009
  #
  #  Suggested "tight" defaults for O atom (to be pasted into control.in file)
  #
  ################################################################################
    species        O
  #     global species definitions
      nucleus             8
      mass                15.9994
  #
      l_hartree           6
  #
      cut_pot             4.0  2.0  1.0
      basis_dep_cutoff    1e-4
  #
      radial_base         36 7.0
      radial_multiplier   2
       angular_grids specified
        division   0.1817   50
        division   0.3417  110
        division   0.4949  194
        division   0.6251  302
        division   0.8014  434
  #      division   0.8507  590
  #      division   0.8762  770
  #      division   0.9023  974
  #      division   1.2339 1202
  #      outer_grid 974
        outer_grid  434
  ################################################################################
  #
  #  Definition of "minimal" basis
  #
  ################################################################################
  #     valence basis states
      valence      2  s   2.
      valence      2  p   4.
  #     ion occupancy
      ion_occ      2  s   1.
      ion_occ      2  p   3.
  ################################################################################
  #
  #  Suggested additional basis functions. For production calculations,
  #  uncomment them one after another (the most important basis functions are
  #  listed first).
  #
  #  Constructed for dimers: 1.0 A, 1.208 A, 1.5 A, 2.0 A, 3.0 A
  #
  ################################################################################
  #  "First tier" - improvements: -699.05 meV to -159.38 meV
       hydro 2 p 1.8
       hydro 3 d 7.6
       hydro 3 s 6.4
  #  "Second tier" - improvements: -49.91 meV to -5.39 meV
       hydro 4 f 11.6
       hydro 3 p 6.2
       hydro 3 d 5.6
       hydro 5 g 17.6
       hydro 1 s 0.75
  #  "Third tier" - improvements: -2.83 meV to -0.50 meV
  #     ionic 2 p auto
  #     hydro 4 f 10.8
  #     hydro 4 d 4.7
  #     hydro 2 s 6.8
  #  "Fourth tier" - improvements: -0.40 meV to -0.12 meV
  #     hydro 3 p 5
  #     hydro 3 s 3.3
  #     hydro 5 g 15.6
  #     hydro 4 f 17.6
  #     hydro 4 d 14
  # Further basis functions - -0.08 meV and below
  #     hydro 3 s 2.1
  #     hydro 4 d 11.6
  #     hydro 3 p 16
  #     hydro 2 s 17.2
  ################################################################################
  #
  # For methods that use the localized form of the "resolution of identity" for
  # the two-electron Coulomb operator (RI_method LVL), particularly Hartree-Fock and
  # hybrid density functional calculations, the highest accuracy can be obtained by
  # uncommenting the line beginning with "for_aux"  below, thus adding an extra g radial
  # function to the construction of the product basis set for the expansion.
  # See Ref. New J. Phys. 17, 093020 (2015) for more information, particularly Figs. 1 and 6.
  #
  ################################################################################
  #
  # for_aux hydro 5 g 6.0
  
  -----------------------------------------------------------------------
  Completed first pass over input file control.in .
  -----------------------------------------------------------------------
  
  
  -----------------------------------------------------------------------
  Parsing geometry.in (first pass over file, find array dimensions only).
  The contents of geometry.in will be repeated verbatim below
  unless switched off by setting 'verbatim_writeout .false.' .
  in the first line of geometry.in .
  -----------------------------------------------------------------------
  
  #
  # This is the geometry file that corresponds to the current relaxation step.
  # If you do not want this file to be written, set the "write_restart_geometry" flag to .false.
  #
  atom       0.94111830     -0.63102512      0.21725853 C
  atom       0.58217237     -0.47433995      1.68544952 C
  atom       1.43064715     -0.46348562      2.57028523 O
  atom       1.66966174      0.14375284     -0.05044650 H
  atom       0.08210209     -0.56155646     -0.46233168 H
  atom       1.43109457     -1.60292293      0.07670742 H
  atom      -0.76212048     -0.33299117      1.94461066 N
  atom      -1.30000866     -0.34613917      3.31072386 C
  atom      -2.82154784     -0.54915055      3.29012311 C
  atom      -3.38969313     -1.28364908      4.08890759 O
  atom      -1.40028140     -0.57277873      1.19434089 H
  atom      -0.89098760     -1.21098685      3.85277172 H
  atom      -0.95174991      0.93181552      4.09089383 C
  atom       0.13524119      1.02181581      4.18770132 H
  atom      -1.39460384      0.88251725      5.09370291 H
  atom      -1.33660424      1.82552988      3.58046032 H
  atom      -3.49918632      0.15547366      2.32827218 N
  atom      -4.95836484      0.21158877      2.29148696 C
  atom      -5.69761705     -1.13587391      2.12602318 C
  atom      -6.78408834     -1.26899059      2.68113896 O
  atom      -2.99518918      0.86916007      1.81027266 H
  atom      -5.32878493      0.56573586      3.26491965 H
  atom      -5.40779590      1.18009719      1.19434017 C
  atom      -5.07955082      0.84784259      0.19907691 H
  atom      -5.00845050      2.18807426      1.37588210 H
  atom      -6.50157062      1.24509323      1.18781498 H
  atom      -5.20844363     -2.11420636      1.30415735 N
  atom      -3.96921322     -2.20583474      0.55387865 C
  atom      -5.79867897     -2.94044745      1.32122895 H
  atom      -4.08619737     -2.98836282     -0.20533072 H
  atom      -3.10732812     -2.47278979      1.18640835 H
  atom      -3.74766153     -1.27054863      0.02571192 H
  
  -----------------------------------------------------------------------
  Completed first pass over input file geometry.in .
  -----------------------------------------------------------------------
  

  Basic array size parameters:
  | Number of species                 :        4
  | Number of atoms                   :       32
  | Max. basis fn. angular momentum   :        4
  | Max. atomic/ionic basis occupied n:        2
  | Max. number of basis fn. types    :        2
  | Max. radial fns per species/type  :        8
  | Max. logarithmic grid size        :     1301
  | Max. radial integration grid size :       73
  | Max. angular integration grid size:      434
  | Max. angular grid division number :        8
  | Radial grid for Hartree potential :     1301
  | Number of spin channels           :        1

------------------------------------------------------------
          Reading file control.in.
------------------------------------------------------------
  XC: Using PBE gradient-corrected functionals.
  Self-consistent screening and van der Waals energy (TS, TS+SCS,MBD) module
  Spin treatment: No spin polarisation.
  Charge =   0.000000E+00: Neutral system requested explicitly.
  Occupation type: Gaussian broadening, width =   0.500000E-01 eV.
  Using pulay charge density mixing.
  Pulay mixing - number of memorized iterations:   10
  Charge density mixing - mixing parameter:     0.5000
  Convergence accuracy of self-consistent charge density:  0.1000E-03
  Convergence accuracy of sum of eigenvalues:  0.1000E-01
  Convergence accuracy of total energy:  0.1000E-04
  Convergence accuracy of forces:  0.1000E-03
  Maximum number of s.-c. iterations  :  1000
  Fitting ESP-charges to Potential. 
  | Esp charge output options: 
  | ESP Grid method: 3, cubic grid
  | Number of points in x, ,y, z:  0080 0080 0080
  |
 
  Reading configuration options for species H                   .
  | Found nuclear charge :   1.0000
  | Found atomic mass :    1.00794000000000      amu
  | Found l_max for Hartree potential  :   6
  | Found cutoff potl. onset [A], width [A], scale factor :    4.00000    2.00000    1.00000
  | Threshold for basis-dependent cutoff potential is   0.100000E-03
  | Found data for basic radial integration grid :    24 points, outermost radius =    7.000 A
  | Found multiplier for basic radial grid :   2
  | Found angular grid specification: user-specified.
  | Specified grid contains     6 separate shells.
  | Check grid settings after all constraints further below.
  | Found free-atom valence shell :  1 s   1.000
  | No ionic wave fns used. Skipping ion_occ.
  | Found hydrogenic basis function :  2 s   2.100
  | Found hydrogenic basis function :  2 p   3.500
  | Found hydrogenic basis function :  1 s   0.850
  | Found hydrogenic basis function :  2 p   3.700
  | Found hydrogenic basis function :  2 s   1.200
  | Found hydrogenic basis function :  3 d   7.000
  Species H                   : Missing cutoff potential type.
  Defaulting to exp(1/x)/(1-x)^2 type cutoff potential.
  Species H : No 'logarithmic' tag. Using default grid for free atom:
  | Default logarithmic grid data [bohr] : 0.1000E-03 0.1000E+03 0.1012E+01
  Species H : On-site basis accuracy parameter (for Gram-Schmidt orthonormalisation) not specified.
  Using default value basis_acc =  0.1000000E-03.
  Species H                   : Using default innermost maximum threshold i_radial=  2 for radial functions.
  Species H                   : Default cutoff onset for free atom density etc. : 0.40000000E+01 AA.
  Species H                   : Basic radial grid will be enhanced according to radial_multiplier =   2, to contain    49 grid points.
 
  Reading configuration options for species C                   .
  | Found nuclear charge :   6.0000
  | Found atomic mass :    12.0107000000000      amu
  | Found l_max for Hartree potential  :   6
  | Found cutoff potl. onset [A], width [A], scale factor :    4.00000    2.00000    1.00000
  | Threshold for basis-dependent cutoff potential is   0.100000E-03
  | Found data for basic radial integration grid :    34 points, outermost radius =    7.000 A
  | Found multiplier for basic radial grid :   2
  | Found angular grid specification: user-specified.
  | Specified grid contains     6 separate shells.
  | Check grid settings after all constraints further below.
  | Found free-atom valence shell :  2 s   2.000
  | Found free-atom valence shell :  2 p   2.000
  | No ionic wave fns used. Skipping ion_occ.
  | No ionic wave fns used. Skipping ion_occ.
  | Found hydrogenic basis function :  2 p   1.700
  | Found hydrogenic basis function :  3 d   6.000
  | Found hydrogenic basis function :  2 s   4.900
  | Found hydrogenic basis function :  4 f   9.800
  | Found hydrogenic basis function :  3 p   5.200
  | Found hydrogenic basis function :  3 s   4.300
  | Found hydrogenic basis function :  5 g  14.400
  | Found hydrogenic basis function :  3 d   6.200
  Species C                   : Missing cutoff potential type.
  Defaulting to exp(1/x)/(1-x)^2 type cutoff potential.
  Species C : No 'logarithmic' tag. Using default grid for free atom:
  | Default logarithmic grid data [bohr] : 0.1000E-03 0.1000E+03 0.1012E+01
  Species C : On-site basis accuracy parameter (for Gram-Schmidt orthonormalisation) not specified.
  Using default value basis_acc =  0.1000000E-03.
  Species C                   : Using default innermost maximum threshold i_radial=  2 for radial functions.
  Species C                   : Default cutoff onset for free atom density etc. : 0.40000000E+01 AA.
  Species C                   : Basic radial grid will be enhanced according to radial_multiplier =   2, to contain    69 grid points.
 
  Reading configuration options for species N                   .
  | Found nuclear charge :   7.0000
  | Found atomic mass :    14.0067000000000      amu
  | Found l_max for Hartree potential  :   6
  | Found cutoff potl. onset [A], width [A], scale factor :    4.00000    2.00000    1.00000
  | Threshold for basis-dependent cutoff potential is   0.100000E-03
  | Found data for basic radial integration grid :    35 points, outermost radius =    7.000 A
  | Found multiplier for basic radial grid :   2
  | Found angular grid specification: user-specified.
  | Specified grid contains     6 separate shells.
  | Check grid settings after all constraints further below.
  | Found free-atom valence shell :  2 s   2.000
  | Found free-atom valence shell :  2 p   3.000
  | No ionic wave fns used. Skipping ion_occ.
  | No ionic wave fns used. Skipping ion_occ.
  | Found hydrogenic basis function :  2 p   1.800
  | Found hydrogenic basis function :  3 d   6.800
  | Found hydrogenic basis function :  3 s   5.800
  | Found hydrogenic basis function :  4 f  10.800
  | Found hydrogenic basis function :  3 p   5.800
  | Found hydrogenic basis function :  1 s   0.800
  | Found hydrogenic basis function :  5 g  16.000
  | Found hydrogenic basis function :  3 d   4.900
  Species N                   : Missing cutoff potential type.
  Defaulting to exp(1/x)/(1-x)^2 type cutoff potential.
  Species N : No 'logarithmic' tag. Using default grid for free atom:
  | Default logarithmic grid data [bohr] : 0.1000E-03 0.1000E+03 0.1012E+01
  Species N : On-site basis accuracy parameter (for Gram-Schmidt orthonormalisation) not specified.
  Using default value basis_acc =  0.1000000E-03.
  Species N                   : Using default innermost maximum threshold i_radial=  2 for radial functions.
  Species N                   : Default cutoff onset for free atom density etc. : 0.40000000E+01 AA.
  Species N                   : Basic radial grid will be enhanced according to radial_multiplier =   2, to contain    71 grid points.
 
  Reading configuration options for species O                   .
  | Found nuclear charge :   8.0000
  | Found atomic mass :    15.9994000000000      amu
  | Found l_max for Hartree potential  :   6
  | Found cutoff potl. onset [A], width [A], scale factor :    4.00000    2.00000    1.00000
  | Threshold for basis-dependent cutoff potential is   0.100000E-03
  | Found data for basic radial integration grid :    36 points, outermost radius =    7.000 A
  | Found multiplier for basic radial grid :   2
  | Found angular grid specification: user-specified.
  | Specified grid contains     6 separate shells.
  | Check grid settings after all constraints further below.
  | Found free-atom valence shell :  2 s   2.000
  | Found free-atom valence shell :  2 p   4.000
  | No ionic wave fns used. Skipping ion_occ.
  | No ionic wave fns used. Skipping ion_occ.
  | Found hydrogenic basis function :  2 p   1.800
  | Found hydrogenic basis function :  3 d   7.600
  | Found hydrogenic basis function :  3 s   6.400
  | Found hydrogenic basis function :  4 f  11.600
  | Found hydrogenic basis function :  3 p   6.200
  | Found hydrogenic basis function :  3 d   5.600
  | Found hydrogenic basis function :  5 g  17.600
  | Found hydrogenic basis function :  1 s   0.750
  Species O                   : Missing cutoff potential type.
  Defaulting to exp(1/x)/(1-x)^2 type cutoff potential.
  Species O : No 'logarithmic' tag. Using default grid for free atom:
  | Default logarithmic grid data [bohr] : 0.1000E-03 0.1000E+03 0.1012E+01
  Species O : On-site basis accuracy parameter (for Gram-Schmidt orthonormalisation) not specified.
  Using default value basis_acc =  0.1000000E-03.
  Species O                   : Using default innermost maximum threshold i_radial=  2 for radial functions.
  Species O                   : Default cutoff onset for free atom density etc. : 0.40000000E+01 AA.
  Species O                   : Basic radial grid will be enhanced according to radial_multiplier =   2, to contain    73 grid points.
 
  Finished reading input file 'control.in'. Consistency checks are next.
 
  Target number of points in a grid batch is not set. Defaulting to  100
  Method for grid partitioning is not set. Defaulting to parallel hash+maxmin partitioning.
  Batch size limit is not set. Defaulting to    200
  By default, will store active basis functions for each batch.
  If in need of memory, prune_basis_once .false. can be used to disable this option.
  communication_type for Hartree potential was not specified.
  Defaulting to calc_hartree .
  Pulay mixer: Number of initial linear mixing iterations not set.
  Defaulting to    0 iterations.
  Work space size for distributed Hartree potential not set.
  Defaulting to   0.200000E+03 MB.
  Algorithm-dependent basis array size parameters:
  | n_max_pulay                         :       10
  Geometry relaxation not requested: no relaxation will be performed.
  Handling of forces: Unphysical translation and rotation will be removed from forces.
  No accuracy limit for integral partition fn. given. Defaulting to  0.1000E-14.
  No threshold value for u(r) in integrations given. Defaulting to  0.1000E-05.
  No accuracy for occupation numbers given. Defaulting to  0.1000E-07.
  No threshold value for occupation numbers given. Defaulting to  0.0000E+00.
  No accuracy for fermi level given. Defaulting to  0.1000E-19.
  Maximum # of iterations to find E_F not set. Defaulting to  200.
  Preferred method for the eigenvalue solver ('KS_method') not specified in 'control.in'.
  Calling blacs routine to test compilation state
  Since scalapack support is enabled, defaulting to 'elpa'.
  Preferred method for the MBD eigenvalue solver ('mbd_eigensolver') not specified in 'control.in'.
  Calling blacs routine to test compilation state
  Since scalapack support is enabled, defaulting to 'scaLAPACK'.
  Will not use alltoall communication since running on < 1024 CPUs.
  Threshold for basis singularities not set.
  Default threshold for basis singularities:  0.1000E-04
  partition_type (choice of integration weights) for integrals was not specified.
  | Using a version of the partition function of Stratmann and coworkers ('stratmann_smoother').
  | At each grid point, the set of atoms used to build the partition table is smoothly restricted to
  | only those atoms whose free-atom density would be non-zero at that grid point.
  Partitioning for Hartree potential was not defined. Using partition_type for integrals.
  | Adjusted default value of keyword multip_moments_threshold to:       0.10000000E-11
  | This value may affect high angular momentum components of the Hartree potential in periodic systems.
  No q(lm)/r^(l+1) cutoff set for long-range Hartree potential.
  | Using default value of  0.100000E-09 .
  | Verify using the multipole_threshold keyword.
  Defaulting to new monopole extrapolation.
  Density update method: automatic selection selected.
------------------------------------------------------------


------------------------------------------------------------
          Reading geometry description geometry.in.
------------------------------------------------------------
 * Warning! You did not set the 'relativistic' flag in input file 'control.in'.
 * Since you are not attempting to treat any elements beyond Ca(Z=20), FHI-aims
 * will default to 'relativistic none'.
 * You must ensure that this is really what you want!!
 * For example, DO NOT compute total-energy differences between results from
 * different settings of the 'relativistic' flag.
  Input structure read successfully.
  The structure contains       32 atoms,  and a total of        116.000 electrons.

  Input geometry:
  | No unit cell requested.
  | Atomic structure:
  |       Atom                x [A]            y [A]            z [A]
  |    1: Species C              0.941118        -0.631025         0.217259
  |    2: Species C              0.582172        -0.474340         1.685450
  |    3: Species O              1.430647        -0.463486         2.570285
  |    4: Species H              1.669662         0.143753        -0.050446
  |    5: Species H              0.082102        -0.561556        -0.462332
  |    6: Species H              1.431095        -1.602923         0.076707
  |    7: Species N             -0.762120        -0.332991         1.944611
  |    8: Species C             -1.300009        -0.346139         3.310724
  |    9: Species C             -2.821548        -0.549151         3.290123
  |   10: Species O             -3.389693        -1.283649         4.088908
  |   11: Species H             -1.400281        -0.572779         1.194341
  |   12: Species H             -0.890988        -1.210987         3.852772
  |   13: Species C             -0.951750         0.931816         4.090894
  |   14: Species H              0.135241         1.021816         4.187701
  |   15: Species H             -1.394604         0.882517         5.093703
  |   16: Species H             -1.336604         1.825530         3.580460
  |   17: Species N             -3.499186         0.155474         2.328272
  |   18: Species C             -4.958365         0.211589         2.291487
  |   19: Species C             -5.697617        -1.135874         2.126023
  |   20: Species O             -6.784088        -1.268991         2.681139
  |   21: Species H             -2.995189         0.869160         1.810273
  |   22: Species H             -5.328785         0.565736         3.264920
  |   23: Species C             -5.407796         1.180097         1.194340
  |   24: Species H             -5.079551         0.847843         0.199077
  |   25: Species H             -5.008451         2.188074         1.375882
  |   26: Species H             -6.501571         1.245093         1.187815
  |   27: Species N             -5.208444        -2.114206         1.304157
  |   28: Species C             -3.969213        -2.205835         0.553879
  |   29: Species H             -5.798679        -2.940447         1.321229
  |   30: Species H             -4.086197        -2.988363        -0.205331
  |   31: Species H             -3.107328        -2.472790         1.186408
  |   32: Species H             -3.747662        -1.270549         0.025712
  |

  | The smallest distance between any two atoms is         1.01373180 AA.
  |
  | The first atom of this pair is atom number                      7 .
  | The second atom of this pair is atom number                    11 .

  Number of empty states per atom not set in control.in - providing a guess from actual geometry.
  | Total number of empty states used during s.c.f. cycle:       71
  If you use a very high smearing, use empty_states (per atom!) in control.in to increase this value.

  Structure-dependent array size parameters: 
  | Maximum number of distinct radial functions  :       40
  | Maximum number of basis functions            :      840
  | Number of Kohn-Sham states (occupied + empty):      129
------------------------------------------------------------

------------------------------------------------------------
          Preparing all fixed parts of the calculation.
------------------------------------------------------------
  Determining machine precision:
    2.225073858507201E-308
  Setting up grids for atomic and cluster calculations.

  Creating wave function, potential, and density for free atoms.

  Species: H

  List of occupied orbitals and eigenvalues:
    n    l              occ      energy [Ha]    energy [eV]
    1    0           1.0000        -0.238382        -6.4867


  Species: C

  List of occupied orbitals and eigenvalues:
    n    l              occ      energy [Ha]    energy [eV]
    1    0           2.0000       -10.041232      -273.2358
    2    0           2.0000        -0.504327       -13.7234
    2    1           2.0000        -0.193750        -5.2722


  Species: N

  List of occupied orbitals and eigenvalues:
    n    l              occ      energy [Ha]    energy [eV]
    1    0           2.0000       -14.129007      -384.4699
    2    0           2.0000        -0.681802       -18.5528
    2    1           3.0000        -0.260543        -7.0897


  Species: O

  List of occupied orbitals and eigenvalues:
    n    l              occ      energy [Ha]    energy [eV]
    1    0           2.0000       -18.898576      -514.2564
    2    0           2.0000        -0.878795       -23.9132
    2    1           4.0000        -0.332075        -9.0362

  Creating fixed part of basis set: Ionic, confined, hydrogenic.
 
  H                    hydrogenic:
 
  List of hydrogenic basis orbitals: 
    n    l      effective z      eigenvalue [eV]  inner max. [A]     outer max. [A]     outer radius [A]   
    2    0         2.100000       -14.9965           0.193243           1.317208           5.373006
    2    1         3.500000       -41.6672           0.602369           0.602369           4.056063
    1    0         0.850000        -9.8292           0.624871           0.624871           5.373006
    2    1         3.700000       -46.5653           0.573622           0.573622           3.910002
    2    0         1.200000        -4.5995           0.334980           2.228188           5.505995
    3    2         7.000000       -74.0753           0.680699           0.680699           3.769201
 
 
  C                    hydrogenic:
 
  List of hydrogenic basis orbitals: 
    n    l      effective z      eigenvalue [eV]  inner max. [A]     outer max. [A]     outer radius [A]   
    2    1         1.700000        -9.8152           1.245706           1.245706           5.401630
    3    2         6.000000       -54.4226           0.792453           0.792453           4.178599
    2    0         4.900000       -81.6681           0.082559           0.562749           3.353238
    4    3         9.800000       -81.6681           0.863254           0.863254           4.028125
    3    1         5.200000       -40.8774           0.305389           1.215618           4.898362
    3    0         4.300000       -27.9508           0.091041           1.610311           5.401630
    5    4        14.400000      -112.8510           0.917666           0.917666           3.883070
    3    2         6.200000       -58.1113           0.763917           0.763917           4.077671
 
 
  N                    hydrogenic:
 
  List of hydrogenic basis orbitals: 
    n    l      effective z      eigenvalue [eV]  inner max. [A]     outer max. [A]     outer radius [A]   
    2    1         1.800000       -11.0118           1.177451           1.177451           5.427479
    3    2         6.800000       -69.9029           0.704619           0.704619           3.854246
    3    0         5.800000       -50.8549           0.067388           1.191934           4.629968
    4    3        10.800000       -99.1854           0.786571           0.786571           3.761152
    3    1         5.800000       -50.8549           0.274880           1.094176           4.518138
    1    0         0.800000        -8.7059           0.662839           0.662839           5.361532
    5    4        16.000000      -139.3222           0.825990           0.825990           3.625711
    3    2         4.900000       -36.2967           0.968267           0.968267           4.862000
 
 
  O                    hydrogenic:
 
  List of hydrogenic basis orbitals: 
    n    l      effective z      eigenvalue [eV]  inner max. [A]     outer max. [A]     outer radius [A]   
    2    1         1.800000       -11.0118           1.178562           1.178562           5.432602
    3    2         7.600000       -87.3182           0.624125           0.624125           3.541477
    3    0         6.400000       -61.9209           0.061167           1.081902           4.306578
    4    3        11.600000      -114.4238           0.731631           0.731631           3.585037
    3    1         6.200000       -58.1113           0.255680           1.030270           4.306578
    3    2         5.600000       -47.4081           0.847233           0.847233           4.413171
    5    4        17.600000      -168.5799           0.749740           0.749740           3.372465
    1    0         0.750000        -7.6499           0.705284           0.705284           5.366593
 

  Adding cutoff potential to free-atom effective potential.
  Creating atomic-like basis functions for current effective potential.

  Species H                   :

  List of atomic basis orbitals and eigenvalues:
    n    l      energy [Ha]    energy [eV]    outer radius [A]
    1    0        -0.238382        -6.4867       5.373006


  Species C                   :

  List of atomic basis orbitals and eigenvalues:
    n    l      energy [Ha]    energy [eV]    outer radius [A]
    1    0       -10.041232      -273.2358       1.934409
    2    0        -0.504327       -13.7234       5.271162
    2    1        -0.193750        -5.2722       5.401630


  Species N                   :

  List of atomic basis orbitals and eigenvalues:
    n    l      energy [Ha]    energy [eV]    outer radius [A]
    1    0       -14.129007      -384.4699       1.637919
    2    0        -0.681802       -18.5528       5.168461
    2    1        -0.260543        -7.0897       5.361532


  Species O                   :

  List of atomic basis orbitals and eigenvalues:
    n    l      energy [Ha]    energy [eV]    outer radius [A]
    1    0       -18.898576      -514.2564       1.415765
    2    0        -0.878795       -23.9132       5.048385
    2    1        -0.332075        -9.0362       5.301386

  Assembling full basis from fixed parts.
  | Species H :   atomic orbital   1 s accepted.
  | Species H :    hydro orbital   2 s accepted.
  | Species H :    hydro orbital   1 s accepted.
  | Species H :    hydro orbital   2 s accepted.
  | Species H :    hydro orbital   2 p accepted.
  | Species H :    hydro orbital   2 p accepted.
  | Species H :    hydro orbital   3 d accepted.
  | Species C :   atomic orbital   1 s accepted.
  | Species C :    hydro orbital   2 s accepted.
  | Species C :   atomic orbital   2 s accepted.
  | Species C :    hydro orbital   3 s accepted.
  | Species C :    hydro orbital   3 p accepted.
  | Species C :   atomic orbital   2 p accepted.
  | Species C :    hydro orbital   2 p accepted.
  | Species C :    hydro orbital   3 d accepted.
  | Species C :    hydro orbital   3 d accepted.
  | Species C :    hydro orbital   4 f accepted.
  | Species C :    hydro orbital   5 g accepted.
  | Species N :   atomic orbital   1 s accepted.
  | Species N :    hydro orbital   3 s accepted.
  | Species N :   atomic orbital   2 s accepted.
  | Species N :    hydro orbital   1 s accepted.
  | Species N :    hydro orbital   3 p accepted.
  | Species N :   atomic orbital   2 p accepted.
  | Species N :    hydro orbital   2 p accepted.
  | Species N :    hydro orbital   3 d accepted.
  | Species N :    hydro orbital   3 d accepted.
  | Species N :    hydro orbital   4 f accepted.
  | Species N :    hydro orbital   5 g accepted.
  | Species O :   atomic orbital   1 s accepted.
  | Species O :    hydro orbital   3 s accepted.
  | Species O :   atomic orbital   2 s accepted.
  | Species O :    hydro orbital   1 s accepted.
  | Species O :    hydro orbital   3 p accepted.
  | Species O :   atomic orbital   2 p accepted.
  | Species O :    hydro orbital   2 p accepted.
  | Species O :    hydro orbital   3 d accepted.
  | Species O :    hydro orbital   3 d accepted.
  | Species O :    hydro orbital   4 f accepted.
  | Species O :    hydro orbital   5 g accepted.
 
  Basis size parameters after reduction:
  | Total number of radial functions:       40
  | Total number of basis functions :      840
 
  Testing on-site integration grid accuracy.
  |  Species  Function  <phi|h_atom|phi> (log., in eV)  <phi|h_atom|phi> (rad., in eV)
           1        1                 -6.4869821809                 -6.4870742227
           1        2                 13.5044133542                 13.5041049177
           1        3                 32.7854418792                 32.7779770519
           1        4                 33.7995553101                 33.7152624900 ***
           1        5                 28.8558651799                 28.8558652046
           1        6                 59.6361831893                 59.6362535845
           1        7                 60.2733718049                 60.2733715484
           2        8               -273.2358277112               -273.2358261765
           2        9                -10.7624923123                -10.7625144012
           2       10                 17.4634079027                 17.4634252127
           2       11                 53.0363661832                 53.0366180446
           2       12                 15.0981351967                 15.0981317714
           2       13                  3.8522181899                  3.8522770949
           2       14                 12.1181835661                 12.1206868578
           2       15                 29.4320778347                 29.4320780959
           2       16                 54.8753777694                 54.8752901936
           2       17                 59.3533975461                 59.3533974833
           2       18                 93.4537491195                 93.4537492066
           3       19               -384.4698526889               -384.4698499465
           3       20                 12.5691022037                 12.5690910168
           3       21                -15.7489097511                -15.7489165588
           3       22                 27.0978334940                 27.0985589490
           3       23                 18.5949116966                 18.5949125562
           3       24                  1.2212828291                  1.2212855301
           3       25                 13.4428926797                 13.4434051125
           3       26                 35.9380614500                 35.9380613666
           3       27                 39.9231532098                 39.9231654735
           3       28                 72.9957335806                 72.9957336833
           3       29                116.4231321147                116.4231321431
           4       30               -514.2564144315               -514.2564099626
           4       31                 15.1726678541                 15.1726530877
           4       32                -21.5447785304                -21.5447874973
           4       33                 14.4944558459                 14.4944698284
           4       34                 20.8882174564                 20.8882178906
           4       35                 -2.4850315908                 -2.4850322289
           4       36                 13.8600193195                 13.8599826966
           4       37                 45.8243383616                 45.8243383675
           4       38                 52.1840606465                 52.1840622440
           4       39                 85.4074185510                 85.4074185819
           4       40                142.0983717302                142.0983717339
 * Note: Onsite integrals marked "***" above are less accurate than
 * onsite_accuracy_threshold =    0.03000 eV. Usually, this is harmless.
 * When in doubt, tighten the "radial" and/or "radial_multiplier" flags to check.

  Preparing densities etc. for the partition functions (integrals / Hartree potential).

  Preparations completed.
  max(cpu_time)          :      0.236 s.
  Wall clock time (cpu1) :      0.235 s.
------------------------------------------------------------

------------------------------------------------------------
          Begin self-consistency loop: Initialization.

          Date     :  20170309, Time     :  190441.560
------------------------------------------------------------

  Initializing index lists of integration centers etc. from given atomic structure:
  | Number of centers in hartree potential         :        32
  | Number of centers in hartree multipole         :        32
  | Number of centers in electron density summation:        32
  | Number of centers in basis integrals           :        32
  | Number of centers in integrals                 :        32
  | Number of centers in hamiltonian               :        32
  Using modified Scalapack Eigenvalue solver (ELPA)
  * Using 32 tasks for Scalapack Eigenvalue solver.
  Detailed listing of tasks and assigned k-points:
  (for non-periodic systems, the "k-point" denotes an internal label only)
   Task     0 k-point     1 on eos036
   Task     1 k-point     1 on eos036
   Task     2 k-point     1 on eos036
   Task     3 k-point     1 on eos036
   Task     4 k-point     1 on eos036
   Task     5 k-point     1 on eos036
   Task     6 k-point     1 on eos036
   Task     7 k-point     1 on eos036
   Task     8 k-point     1 on eos036
   Task     9 k-point     1 on eos036
   Task    10 k-point     1 on eos036
   Task    11 k-point     1 on eos036
   Task    12 k-point     1 on eos036
   Task    13 k-point     1 on eos036
   Task    14 k-point     1 on eos036
   Task    15 k-point     1 on eos036
   Task    16 k-point     1 on eos036
   Task    17 k-point     1 on eos036
   Task    18 k-point     1 on eos036
   Task    19 k-point     1 on eos036
   Task    20 k-point     1 on eos036
   Task    21 k-point     1 on eos036
   Task    22 k-point     1 on eos036
   Task    23 k-point     1 on eos036
   Task    24 k-point     1 on eos036
   Task    25 k-point     1 on eos036
   Task    26 k-point     1 on eos036
   Task    27 k-point     1 on eos036
   Task    28 k-point     1 on eos036
   Task    29 k-point     1 on eos036
   Task    30 k-point     1 on eos036
   Task    31 k-point     1 on eos036
  Tasks:    32 split into      8 X      4 BLACS grid
  Calculating blocksize based on n_basis =          840 max_nprow =            8 max_npcol =            4
  Scalapack blocksize set to:           16
  Required Scalapack workspace - INTEGER:            1 REAL:             1
  Partitioning the integration grid into batches with parallel hashing+maxmin method.
  | Number of batches:     4863
  | Maximal batch size:     200
  | Minimal batch size:      49
  | Average batch size:     108.519
  | Standard deviation of batch sizes:      30.678

  Integration load balanced across    32 MPI tasks.
  Work distribution over tasks is as follows:
  Task     0 has      16566 integration points.
  Task     1 has      16434 integration points.
  Task     2 has      16478 integration points.
  Task     3 has      16433 integration points.
  Task     4 has      16524 integration points.
  Task     5 has      16597 integration points.
  Task     6 has      16497 integration points.
  Task     7 has      16574 integration points.
  Task     8 has      16436 integration points.
  Task     9 has      16445 integration points.
  Task    10 has      16442 integration points.
  Task    11 has      16593 integration points.
  Task    12 has      16433 integration points.
  Task    13 has      16449 integration points.
  Task    14 has      16513 integration points.
  Task    15 has      16445 integration points.
  Task    16 has      16436 integration points.
  Task    17 has      16523 integration points.
  Task    18 has      16440 integration points.
  Task    19 has      16474 integration points.
  Task    20 has      16454 integration points.
  Task    21 has      16446 integration points.
  Task    22 has      16577 integration points.
  Task    23 has      16433 integration points.
  Task    24 has      16437 integration points.
  Task    25 has      16490 integration points.
  Task    26 has      16587 integration points.
  Task    27 has      16591 integration points.
  Task    28 has      16554 integration points.
  Task    29 has      16492 integration points.
  Task    30 has      16487 integration points.
  Task    31 has      16448 integration points.
  Initializing partition tables, free-atom densities, potentials, etc. across the integration grid (initialize_grid_storage).
  | initialize_grid_storage: Actual outermost partition radius vs. multipole_radius_free
  | (-- VB: in principle, multipole_radius_free should be larger, hence this output)
  | Species        1: Confinement radius =              6.000000000000000 AA, multipole_radius_free =              6.071692442739658 AA.
  | Species        1: outer_partition_radius set to              6.071692442739658 AA .
  | Species        2: Confinement radius =              6.000000000000000 AA, multipole_radius_free =              6.029870734432609 AA.
  | Species        2: outer_partition_radius set to              6.029870734432609 AA .
  | Species        3: Confinement radius =              6.000000000000000 AA, multipole_radius_free =              6.058726835495003 AA.
  | Species        3: outer_partition_radius set to              6.058726835495003 AA .
  | Species        4: Confinement radius =              6.000000000000000 AA, multipole_radius_free =              6.064445521808699 AA.
  | Species        4: outer_partition_radius set to              6.064445521808699 AA .
  | Original list of interatomic distances with          32 x         32 entries is created.
  | Net number of integration points:   527728
  | of which are non-zero points    :   414178
  Obtaining max. number of non-zero basis functions in each batch (get_n_compute_maxes).
  | Maximal number of non-zero basis functions:      761 in task     0
  | Maximal number of non-zero basis functions:      785 in task     1
  | Maximal number of non-zero basis functions:      757 in task     2
  | Maximal number of non-zero basis functions:      779 in task     3
  | Maximal number of non-zero basis functions:      779 in task     4
  | Maximal number of non-zero basis functions:      770 in task     5
  | Maximal number of non-zero basis functions:      768 in task     6
  | Maximal number of non-zero basis functions:      766 in task     7
  | Maximal number of non-zero basis functions:      775 in task     8
  | Maximal number of non-zero basis functions:      751 in task     9
  | Maximal number of non-zero basis functions:      753 in task    10
  | Maximal number of non-zero basis functions:      776 in task    11
  | Maximal number of non-zero basis functions:      783 in task    12
  | Maximal number of non-zero basis functions:      755 in task    13
  | Maximal number of non-zero basis functions:      752 in task    14
  | Maximal number of non-zero basis functions:      760 in task    15
  | Maximal number of non-zero basis functions:      763 in task    16
  | Maximal number of non-zero basis functions:      763 in task    17
  | Maximal number of non-zero basis functions:      781 in task    18
  | Maximal number of non-zero basis functions:      778 in task    19
  | Maximal number of non-zero basis functions:      753 in task    20
  | Maximal number of non-zero basis functions:      774 in task    21
  | Maximal number of non-zero basis functions:      775 in task    22
  | Maximal number of non-zero basis functions:      758 in task    23
  | Maximal number of non-zero basis functions:      764 in task    24
  | Maximal number of non-zero basis functions:      767 in task    25
  | Maximal number of non-zero basis functions:      780 in task    26
  | Maximal number of non-zero basis functions:      758 in task    27
  | Maximal number of non-zero basis functions:      764 in task    28
  | Maximal number of non-zero basis functions:      768 in task    29
  | Maximal number of non-zero basis functions:      748 in task    30
  | Maximal number of non-zero basis functions:      775 in task    31
  Selecting the method for density update.
  Loop over occupied states selected for charge density update.
  Integrating Hamiltonian matrix: batch-based integration.
  Time summed over all CPUs for integration: real work       21.224 s, elapsed       22.329 s
  Integrating overlap matrix.
  Time summed over all CPUs for integration: real work       12.762 s, elapsed       13.270 s
  Deallocating overlap matrix.

  Updating Kohn-Sham eigenvalues, eigenvectors, occupation numbers, and Fermi level.
  Solving generalized eigenproblem
  Solving real symmetric generalised eigenvalue problem by standard ScaLAPACK.
  Transforming overlap matrix with ScaLAPACK and checking for singularities.
  : Overlap matrix is nonsingular, using Cholesky decomposition
  | Lowest eigenvalue:  0.802345E-04
  Factoring overlap matrix with Cholesky decomposition
  Using Cholesky factor for transformation
  Using 1-stage real ELPA solver
  Determining occupation numbers for Kohn-Sham eigenstates.
  | Chemical potential (Fermi level) in eV                 : -.92959769E+01
  | Error in electron count due to remaining E_F inaccuracy: 0.00000000E+00
  | Maximum occupation number of highest empty state:  0.00E+00

  Writing Kohn-Sham eigenvalues.

  State    Occupation    Eigenvalue [Ha]    Eigenvalue [eV]
      1       2.00000         -18.975166         -516.34053
      2       2.00000         -18.974928         -516.33407
      3       2.00000         -18.974688         -516.32752
      4       2.00000         -14.254488         -387.88434
      5       2.00000         -14.253882         -387.86785
      6       2.00000         -14.252339         -387.82587
      7       2.00000         -10.170898         -276.76422
      8       2.00000         -10.170657         -276.75766
      9       2.00000         -10.170506         -276.75356
     10       2.00000         -10.166492         -276.64432
     11       2.00000         -10.148272         -276.14853
     12       2.00000         -10.148195         -276.14644
     13       2.00000         -10.135767         -275.80827
     14       2.00000         -10.135321         -275.79612
     15       2.00000         -10.134184         -275.76518
     16       2.00000          -1.136081          -30.91434
     17       2.00000          -1.132842          -30.82619
     18       2.00000          -1.131053          -30.77751
     19       2.00000          -1.022221          -27.81606
     20       2.00000          -1.010496          -27.49701
     21       2.00000          -1.001779          -27.25980
     22       2.00000          -0.891552          -24.26037
     23       2.00000          -0.873740          -23.77567
     24       2.00000          -0.841004          -22.88489
     25       2.00000          -0.817060          -22.23334
     26       2.00000          -0.778183          -21.17544
     27       2.00000          -0.754782          -20.53866
     28       2.00000          -0.702033          -19.10330
     29       2.00000          -0.683129          -18.58887
     30       2.00000          -0.675198          -18.37307
     31       2.00000          -0.648309          -17.64139
     32       2.00000          -0.623564          -16.96805
     33       2.00000          -0.616821          -16.78457
     34       2.00000          -0.599810          -16.32166
     35       2.00000          -0.585136          -15.92235
     36       2.00000          -0.578268          -15.73548
     37       2.00000          -0.569759          -15.50394
     38       2.00000          -0.563860          -15.34340
     39       2.00000          -0.557563          -15.17207
     40       2.00000          -0.556315          -15.13809
     41       2.00000          -0.548342          -14.92115
     42       2.00000          -0.538649          -14.65737
     43       2.00000          -0.531838          -14.47206
     44       2.00000          -0.530413          -14.43326
     45       2.00000          -0.523337          -14.24073
     46       2.00000          -0.515829          -14.03643
     47       2.00000          -0.512303          -13.94047
     48       2.00000          -0.507349          -13.80568
     49       2.00000          -0.497801          -13.54586
     50       2.00000          -0.487986          -13.27878
     51       2.00000          -0.477448          -12.99202
     52       2.00000          -0.471038          -12.81761
     53       2.00000          -0.409207          -11.13510
     54       2.00000          -0.407836          -11.09777
     55       2.00000          -0.397737          -10.82296
     56       2.00000          -0.389140          -10.58904
     57       2.00000          -0.382479          -10.40779
     58       2.00000          -0.381083          -10.36981
     59       0.00000          -0.170022           -4.62652
     60       0.00000          -0.162530           -4.42266
     61       0.00000          -0.152883           -4.16016
     62       0.00000          -0.087388           -2.37796
     63       0.00000          -0.068052           -1.85178
     64       0.00000          -0.057633           -1.56828
     65       0.00000          -0.052070           -1.41689
     66       0.00000          -0.041131           -1.11922
     67       0.00000          -0.038715           -1.05350
     68       0.00000          -0.035840           -0.97526
     69       0.00000          -0.031550           -0.85852
     70       0.00000          -0.025640           -0.69769
     71       0.00000          -0.024526           -0.66738
     72       0.00000          -0.016834           -0.45808
     73       0.00000          -0.010640           -0.28954
     74       0.00000          -0.006140           -0.16708
     75       0.00000          -0.002881           -0.07839
     76       0.00000           0.000521            0.01418
     77       0.00000           0.000684            0.01862
     78       0.00000           0.008842            0.24061
     79       0.00000           0.010218            0.27804
     80       0.00000           0.017310            0.47104
     81       0.00000           0.023431            0.63759
     82       0.00000           0.031837            0.86632
     83       0.00000           0.036178            0.98446
     84       0.00000           0.039373            1.07140
     85       0.00000           0.045209            1.23019
     86       0.00000           0.047070            1.28083
     87       0.00000           0.052630            1.43213
     88       0.00000           0.055041            1.49774
     89       0.00000           0.064561            1.75679
     90       0.00000           0.066022            1.79655
     91       0.00000           0.071685            1.95065
     92       0.00000           0.077126            2.09869
     93       0.00000           0.085196            2.31831
     94       0.00000           0.087770            2.38833
     95       0.00000           0.096840            2.63514
     96       0.00000           0.101799            2.77008
     97       0.00000           0.105165            2.86170
     98       0.00000           0.113893            3.09920
     99       0.00000           0.120257            3.27236
    100       0.00000           0.126807            3.45059
    101       0.00000           0.129689            3.52902
    102       0.00000           0.134254            3.65324
    103       0.00000           0.138916            3.78010
    104       0.00000           0.146328            3.98178
    105       0.00000           0.149366            4.06446
    106       0.00000           0.153314            4.17189
    107       0.00000           0.158052            4.30083
    108       0.00000           0.160346            4.36325
    109       0.00000           0.162310            4.41669
    110       0.00000           0.169209            4.60441
    111       0.00000           0.176318            4.79787
    112       0.00000           0.179083            4.87309
    113       0.00000           0.187895            5.11289
    114       0.00000           0.192765            5.24541
    115       0.00000           0.197051            5.36204
    116       0.00000           0.199682            5.43361
    117       0.00000           0.203344            5.53328
    118       0.00000           0.206422            5.61703
    119       0.00000           0.214152            5.82738
    120       0.00000           0.216868            5.90129
    121       0.00000           0.222624            6.05791
    122       0.00000           0.226558            6.16496
    123       0.00000           0.229968            6.25775
    124       0.00000           0.232669            6.33124
    125       0.00000           0.241391            6.56859
    126       0.00000           0.243910            6.63714
    127       0.00000           0.250591            6.81893
    128       0.00000           0.260262            7.08209
    129       0.00000           0.264587            7.19977

  Highest occupied state (VBM) at    -10.36980630 eV
  | Occupation number:      2.00000000

  Lowest unoccupied state (CBM) at    -4.62652172 eV
  | Occupation number:      0.00000000

  Overall HOMO-LUMO gap:      5.74328457 eV.
  Calculating total energy contributions from superposition of free atom densities.

  Total energy components:
  | Sum of eigenvalues            :        -437.85231833 Ha      -11914.56778820 eV
  | XC energy correction          :         -98.80961415 Ha       -2688.74640280 eV
  | XC potential correction       :         127.00681300 Ha        3456.03122267 eV
  | Free-atom electrostatic energy:        -333.62859231 Ha       -9078.49590546 eV
  | Hartree energy correction     :           0.00000000 Ha           0.00000000 eV
  | MBD@rsSCS energy              :           0.00000000 Ha           0.00000000 eV
  | Entropy correction            :          -0.00000000 Ha          -0.00000000 eV
  | ---------------------------
  | Total energy                  :        -743.28371178 Ha      -20225.77887379 eV
  | Total energy, T -> 0          :        -743.28371178 Ha      -20225.77887379 eV  <-- do not rely on this value for anything but (periodic) metals
  | Electronic free energy        :        -743.28371178 Ha      -20225.77887379 eV

  Derived energy quantities:
  | Kinetic energy                :         735.14187009 Ha       20004.22808917 eV
  | Electrostatic energy          :       -1379.61596773 Ha      -37541.26056016 eV
  | Energy correction for multipole
  | error in Hartree potential    :           0.00000000 Ha           0.00000000 eV
  | Sum of eigenvalues per atom                           :        -372.33024338 eV
  | Total energy (T->0) per atom                          :        -632.05558981 eV  <-- do not rely on this value for anything but (periodic) metals
  | Electronic free energy per atom                       :        -632.05558981 eV
  Initialize hartree_potential_storage
  Max. number of atoms included in rho_multipole:           32

  End scf initialization - timings             :  max(cpu_time)    wall_clock(cpu1)
  | Time for scf. initialization               :        1.844 s           1.843 s
  | Boundary condition initialization          :        0.000 s           0.000 s
  | Integration                                :        1.136 s           1.134 s
  | Solution of K.-S. eqns.                    :        0.076 s           0.074 s
  | Grid partitioning                          :        0.288 s           0.283 s
  | Preloading free-atom quantities on grid    :        0.032 s           0.027 s
  | Free-atom superposition energy             :        0.040 s           0.039 s
  | Total energy evaluation                    :        0.004 s           0.001 s
------------------------------------------------------------

------------------------------------------------------------
          Begin self-consistency iteration #    1

  Date     :  20170309, Time     :  190443.403
------------------------------------------------------------
  Evaluating new KS density.
  Integration grid: deviation in total charge (<rho> - N_e) =   1.421085E-14
  Pulay mixing of updated and previous charge densities.

  Evaluating partitioned Hartree potential by multipole expansion.
  | Analytical far-field extrapolation by fixed multipoles:
  | Hartree multipole sum: apparent total charge =  -0.619228E-04
  Summing up the Hartree potential.
  Time summed over all CPUs for potential: real work        9.562 s, elapsed        9.836 s
  | RMS charge density error from multipole expansion :   0.105291E-01

  Integrating Hamiltonian matrix: batch-based integration.
  Time summed over all CPUs for integration: real work       21.495 s, elapsed       22.676 s

  Updating Kohn-Sham eigenvalues, eigenvectors, occupation numbers, and Fermi level.
  Solving generalized eigenproblem
  Solving real symmetric generalised eigenvalue problem by standard ScaLAPACK.
  Using Cholesky factor for transformation
  Using 2-stage real ELPA solver
  K-Point:    1, Trafo times: 1-stage=     0.021 s, 2-stage=     0.019 s ==> Using 2-stage solver
  Determining occupation numbers for Kohn-Sham eigenstates.
  | Chemical potential (Fermi level) in eV                 : -.18676806E+01
  | Error in electron count due to remaining E_F inaccuracy: 0.14210855E-12
  | Maximum occupation number of highest empty state:  0.00E+00

  Writing Kohn-Sham eigenvalues.

  State    Occupation    Eigenvalue [Ha]    Eigenvalue [eV]
      1       2.00000         -18.625561         -506.82730
      2       2.00000         -18.612414         -506.46955
      3       2.00000         -18.602282         -506.19384
      4       2.00000         -14.011451         -381.27098
      5       2.00000         -14.003844         -381.06399
      6       2.00000         -13.981418         -380.45373
      7       2.00000         -10.067172         -273.94168
      8       2.00000         -10.055769         -273.63140
      9       2.00000         -10.043903         -273.30852
     10       2.00000          -9.965090         -271.16390
     11       2.00000          -9.962111         -271.08283
     12       2.00000          -9.903566         -269.48975
     13       2.00000          -9.856648         -268.21303
     14       2.00000          -9.851649         -268.07700
     15       2.00000          -9.831895         -267.53947
     16       2.00000          -0.975614          -26.54780
     17       2.00000          -0.959298          -26.10384
     18       2.00000          -0.951189          -25.88317
     19       2.00000          -0.884366          -24.06482
     20       2.00000          -0.869146          -23.65067
     21       2.00000          -0.851916          -23.18181
     22       2.00000          -0.752769          -20.48389
     23       2.00000          -0.726381          -19.76584
     24       2.00000          -0.692050          -18.83163
     25       2.00000          -0.679372          -18.48665
     26       2.00000          -0.638399          -17.37172
     27       2.00000          -0.622044          -16.92668
     28       2.00000          -0.579191          -15.76058
     29       2.00000          -0.566123          -15.40500
     30       2.00000          -0.552867          -15.04427
     31       2.00000          -0.523361          -14.24138
     32       2.00000          -0.494721          -13.46204
     33       2.00000          -0.472699          -12.86279
     34       2.00000          -0.456995          -12.43547
     35       2.00000          -0.453236          -12.33319
     36       2.00000          -0.447524          -12.17775
     37       2.00000          -0.438496          -11.93209
     38       2.00000          -0.430503          -11.71459
     39       2.00000          -0.418930          -11.39966
     40       2.00000          -0.406067          -11.04964
     41       2.00000          -0.402416          -10.95031
     42       2.00000          -0.397795          -10.82456
     43       2.00000          -0.385486          -10.48961
     44       2.00000          -0.380575          -10.35598
     45       2.00000          -0.376959          -10.25756
     46       2.00000          -0.369188          -10.04611
     47       2.00000          -0.364819           -9.92723
     48       2.00000          -0.357229           -9.72070
     49       2.00000          -0.352725           -9.59815
     50       2.00000          -0.343570           -9.34900
     51       2.00000          -0.337369           -9.18027
     52       2.00000          -0.327477           -8.91110
     53       2.00000          -0.253340           -6.89373
     54       2.00000          -0.245760           -6.68746
     55       2.00000          -0.222999           -6.06811
     56       2.00000          -0.219591           -5.97537
     57       2.00000          -0.208933           -5.68535
     58       2.00000          -0.203719           -5.54348
     59       0.00000          -0.059032           -1.60634
     60       0.00000          -0.057284           -1.55878
     61       0.00000          -0.046111           -1.25475
     62       0.00000          -0.040632           -1.10566
     63       0.00000          -0.024930           -0.67838
     64       0.00000          -0.022657           -0.61654
     65       0.00000          -0.010442           -0.28413
     66       0.00000           0.001637            0.04455
     67       0.00000           0.003388            0.09220
     68       0.00000           0.012635            0.34381
     69       0.00000           0.017154            0.46679
     70       0.00000           0.020337            0.55340
     71       0.00000           0.030574            0.83197
     72       0.00000           0.034169            0.92978
     73       0.00000           0.039315            1.06983
     74       0.00000           0.042822            1.16524
     75       0.00000           0.047723            1.29860
     76       0.00000           0.055612            1.51327
     77       0.00000           0.065118            1.77194
     78       0.00000           0.069585            1.89350
     79       0.00000           0.074370            2.02372
     80       0.00000           0.078935            2.14793
     81       0.00000           0.086737            2.36023
     82       0.00000           0.088703            2.41372
     83       0.00000           0.097927            2.66472
     84       0.00000           0.102159            2.77988
     85       0.00000           0.108990            2.96577
     86       0.00000           0.112745            3.06795
     87       0.00000           0.114495            3.11556
     88       0.00000           0.118248            3.21770
     89       0.00000           0.118988            3.23783
     90       0.00000           0.123940            3.37259
     91       0.00000           0.133157            3.62340
     92       0.00000           0.145120            3.94891
     93       0.00000           0.147146            4.00406
     94       0.00000           0.151906            4.13358
     95       0.00000           0.159877            4.35047
     96       0.00000           0.170924            4.65107
     97       0.00000           0.172727            4.70014
     98       0.00000           0.177852            4.83960
     99       0.00000           0.183311            4.98813
    100       0.00000           0.187589            5.10456
    101       0.00000           0.193580            5.26758
    102       0.00000           0.197836            5.38339
    103       0.00000           0.200692            5.46111
    104       0.00000           0.204185            5.55616
    105       0.00000           0.208388            5.67052
    106       0.00000           0.211141            5.74543
    107       0.00000           0.211640            5.75901
    108       0.00000           0.217683            5.92345
    109       0.00000           0.225607            6.13908
    110       0.00000           0.229665            6.24949
    111       0.00000           0.233040            6.34135
    112       0.00000           0.235828            6.41721
    113       0.00000           0.244045            6.64080
    114       0.00000           0.248732            6.76833
    115       0.00000           0.252850            6.88040
    116       0.00000           0.256322            6.97489
    117       0.00000           0.260259            7.08201
    118       0.00000           0.262465            7.14202
    119       0.00000           0.272136            7.40519
    120       0.00000           0.282117            7.67680
    121       0.00000           0.283767            7.72169
    122       0.00000           0.288778            7.85805
    123       0.00000           0.294869            8.02380
    124       0.00000           0.298197            8.11434
    125       0.00000           0.306294            8.33467
    126       0.00000           0.315212            8.57735
    127       0.00000           0.321546            8.74972
    128       0.00000           0.323541            8.80399
    129       0.00000           0.333502            9.07505

  Highest occupied state (VBM) at     -5.54347512 eV
  | Occupation number:      2.00000000

  Lowest unoccupied state (CBM) at    -1.60633968 eV
  | Occupation number:      0.00000000

  Overall HOMO-LUMO gap:      3.93713544 eV.

  Total energy components:
  | Sum of eigenvalues            :        -417.93595868 Ha      -11372.61606814 eV
  | XC energy correction          :        -100.74702565 Ha       -2741.46605231 eV
  | XC potential correction       :         129.51947445 Ha        3524.40421943 eV
  | Free-atom electrostatic energy:        -333.62859231 Ha       -9078.49590546 eV
  | Hartree energy correction     :         -19.92033172 Ha        -542.05980575 eV
  | MBD@rsSCS energy              :           0.00000000 Ha           0.00000000 eV
  | Entropy correction            :          -0.00000000 Ha          -0.00000000 eV
  | ---------------------------
  | Total energy                  :        -742.71243392 Ha      -20210.23361222 eV
  | Total energy, T -> 0          :        -742.71243392 Ha      -20210.23361222 eV  <-- do not rely on this value for anything but (periodic) metals
  | Electronic free energy        :        -742.71243392 Ha      -20210.23361222 eV

  Derived energy quantities:
  | Kinetic energy                :         744.03372952 Ha       20246.18789497 eV
  | Electrostatic energy          :       -1385.99913778 Ha      -37714.95545488 eV
  | Energy correction for multipole
  | error in Hartree potential    :          -0.04112749 Ha          -1.11913596 eV
  | Sum of eigenvalues per atom                           :        -355.39425213 eV
  | Total energy (T->0) per atom                          :        -631.56980038 eV  <-- do not rely on this value for anything but (periodic) metals
  | Electronic free energy per atom                       :        -631.56980038 eV

  Self-consistency convergence accuracy:
  | Change of charge density      :  0.9038E+00
  | Change of sum of eigenvalues  :  0.5420E+03 eV
  | Change of total energy        :  0.1555E+02 eV

  End self-consistency iteration #     1       :  max(cpu_time)    wall_clock(cpu1)
  | Time for this iteration                    :        1.556 s           1.557 s
[...]
   Multipole                     :  0.486792E+00  0.303241E-01 -0.256195E+00
   Pulay + GGA                   :  0.113773E+02  0.102248E+01 -0.639414E+01
   MBD@rsSCS                     :  0.177796E-01  0.974115E-02 -0.592429E-02
   ----------------------------------------------------------------
   Total forces(  20)            : -0.116746E-03  0.153723E-01 -0.611100E-02
  atom #   21
   Hellmann-Feynman              : -0.160616E-01 -0.672932E-02  0.350589E-01
   Ionic forces                  :  0.000000E+00  0.000000E+00  0.000000E+00
   Multipole                     : -0.942492E-02 -0.102159E-01 -0.181021E-02
   Pulay + GGA                   :  0.286361E-01  0.316011E-01 -0.294327E-01
   MBD@rsSCS                     :  0.160368E-02 -0.409600E-02 -0.273708E-02
   ----------------------------------------------------------------
   Total forces(  21)            :  0.475319E-02  0.105599E-01  0.107897E-02
  atom #   22
   Hellmann-Feynman              :  0.546293E-02 -0.436456E-01 -0.440870E-01
   Ionic forces                  :  0.000000E+00  0.000000E+00  0.000000E+00
   Multipole                     :  0.108404E-01  0.252788E-02 -0.682961E-02
   Pulay + GGA                   : -0.135683E-01  0.434351E-01  0.507947E-01
   MBD@rsSCS                     :  0.566675E-02 -0.209653E-02 -0.153732E-02
   ----------------------------------------------------------------
   Total forces(  22)            :  0.840175E-02  0.220852E-03 -0.165917E-02
  atom #   23
   Hellmann-Feynman              : -0.513555E+00  0.651106E+00 -0.616514E+00
   Ionic forces                  :  0.000000E+00  0.000000E+00  0.000000E+00
   Multipole                     :  0.571189E-01 -0.136696E+00  0.240083E+00
   Pulay + GGA                   :  0.440317E+00 -0.507812E+00  0.377967E+00
   MBD@rsSCS                     :  0.968876E-02 -0.137749E-01  0.135445E-02
   ----------------------------------------------------------------
   Total forces(  23)            : -0.642961E-02 -0.717645E-02  0.289000E-02
  atom #   24
   Hellmann-Feynman              : -0.244758E-01 -0.588098E-03  0.377333E-01
   Ionic forces                  :  0.000000E+00  0.000000E+00  0.000000E+00
   Multipole                     : -0.721728E-02  0.182094E-01  0.177581E-01
   Pulay + GGA                   :  0.367509E-01 -0.172097E-01 -0.507791E-01
   MBD@rsSCS                     :  0.898221E-02 -0.145807E-01  0.518473E-02
   ----------------------------------------------------------------
   Total forces(  24)            :  0.140400E-01 -0.141692E-01  0.989706E-02
  atom #   25
   Hellmann-Feynman              : -0.253023E-01 -0.356574E-01  0.301671E-01
   Ionic forces                  :  0.000000E+00  0.000000E+00  0.000000E+00
   Multipole                     : -0.993130E-02 -0.140765E-01 -0.291561E-01
   Pulay + GGA                   :  0.408303E-01  0.477984E-01  0.473074E-02
   MBD@rsSCS                     :  0.672693E-02 -0.800456E-02  0.632744E-02
   ----------------------------------------------------------------
   Total forces(  25)            :  0.123236E-01 -0.994002E-02  0.120692E-01
  atom #   26
   Hellmann-Feynman              :  0.346945E-01 -0.387051E-01  0.470194E-01
   Ionic forces                  :  0.000000E+00  0.000000E+00  0.000000E+00
   Multipole                     :  0.197533E-01  0.200927E-01 -0.266753E-01
   Pulay + GGA                   : -0.587531E-01  0.168596E-01 -0.138463E-01
   MBD@rsSCS                     :  0.327783E-02 -0.858706E-02  0.562048E-02
   ----------------------------------------------------------------
   Total forces(  26)            : -0.102754E-02 -0.103398E-01  0.121183E-01
  atom #   27
   Hellmann-Feynman              : -0.177487E+01  0.338848E+00  0.159643E+00
   Ionic forces                  :  0.000000E+00  0.000000E+00  0.000000E+00
   Multipole                     : -0.127038E+00  0.540154E-01  0.462896E-01
   Pulay + GGA                   :  0.190269E+01 -0.397854E+00 -0.209825E+00
   MBD@rsSCS                     :  0.123875E-01  0.231932E-01  0.105225E-01
   ----------------------------------------------------------------
   Total forces(  27)            :  0.131728E-01  0.182029E-01  0.663032E-02
  atom #   28
   Hellmann-Feynman              :  0.169465E+01 -0.420027E+00 -0.121425E+01
   Ionic forces                  :  0.000000E+00  0.000000E+00  0.000000E+00
   Multipole                     : -0.118013E+00  0.222321E-01  0.474997E-01
   Pulay + GGA                   : -0.158114E+01  0.392994E+00  0.116669E+01
   MBD@rsSCS                     :  0.209762E-02  0.196085E-01  0.183388E-01
   ----------------------------------------------------------------
   Total forces(  28)            : -0.240149E-02  0.148075E-01  0.182797E-01
  atom #   29
   Hellmann-Feynman              : -0.472105E-02  0.573641E-01  0.391150E-01
   Ionic forces                  :  0.000000E+00  0.000000E+00  0.000000E+00
   Multipole                     :  0.306527E-01 -0.739008E-02 -0.308559E-01
   Pulay + GGA                   : -0.307303E-01 -0.598351E-01 -0.118793E-01
   MBD@rsSCS                     :  0.555330E-02  0.562628E-02 -0.237951E-04
   ----------------------------------------------------------------
   Total forces(  29)            :  0.754670E-03 -0.423478E-02 -0.364402E-02
  atom #   30
   Hellmann-Feynman              : -0.417379E-01  0.196268E-01  0.355693E-01
   Ionic forces                  :  0.000000E+00  0.000000E+00  0.000000E+00
   Multipole                     :  0.427505E-01  0.176752E-01  0.509907E-02
   Pulay + GGA                   : -0.310765E-02 -0.453436E-01 -0.457122E-01
   MBD@rsSCS                     : -0.282751E-02  0.356292E-02  0.478994E-02
   ----------------------------------------------------------------
   Total forces(  30)            : -0.492250E-02 -0.447863E-02 -0.253933E-03
  atom #   31
   Hellmann-Feynman              : -0.725967E-01 -0.171971E-01  0.215515E-01
   Ionic forces                  :  0.000000E+00  0.000000E+00  0.000000E+00
   Multipole                     : -0.929237E-02  0.139604E-01 -0.227430E-01
   Pulay + GGA                   :  0.765692E-01  0.145842E-02  0.482260E-03
   MBD@rsSCS                     :  0.687505E-02  0.152577E-01  0.145025E-01
   ----------------------------------------------------------------
   Total forces(  31)            :  0.155519E-02  0.134795E-01  0.137933E-01
  atom #   32
   Hellmann-Feynman              : -0.638960E-01 -0.225116E-01  0.188695E-01
   Ionic forces                  :  0.000000E+00  0.000000E+00  0.000000E+00
   Multipole                     :  0.209375E-01 -0.203631E-01  0.189329E-01
   Pulay + GGA                   :  0.338561E-01  0.502496E-01 -0.344252E-01
   MBD@rsSCS                     :  0.971077E-03  0.185017E-01  0.119149E-01
   ----------------------------------------------------------------
   Total forces(  32)            : -0.813143E-02  0.258765E-01  0.152920E-01

  Removing unitary transformations (pure translations, rotations) from forces on atoms.
  Atomic forces before filtering:
  | Net force on center of mass :   0.891191E-03  0.594479E-03  0.986683E-04 eV/A
  | Net torque on center of mass:  -0.844496E-04  0.283716E-02 -0.463653E-02 eV
  Atomic forces after filtering:
  | Net force on center of mass :  -0.278760E-17 -0.223008E-16 -0.111504E-16 eV/A
  | Net torque on center of mass:  -0.590053E-17 -0.501545E-16  0.132762E-16 eV

  Energy and forces in a compact form:
  | Total energy uncorrected      :         -0.202087757446896E+05 eV
  | Total energy corrected        :         -0.202087757446896E+05 eV  <-- do not rely on this value for anything but (periodic) metals
  | Electronic free energy        :         -0.202087757446896E+05 eV
  Total atomic forces (unitary forces cleaned) [eV/Ang]:
  |   1         -0.905526046063138E-03         -0.325891457907999E-03         -0.526543242207269E-02
  |   2         -0.866884076007364E-02          0.874105112978659E-02          0.313205208461595E-01
  |   3         -0.244157441894794E-01          0.521463892278942E-02         -0.806868295751551E-03
  |   4          0.157616142033839E-02         -0.160139171791175E-02          0.778831948615179E-02
  |   5         -0.506806633737144E-02          0.876751313321390E-04          0.756259560102386E-02
  |   6          0.312803733236341E-02          0.246697238824000E-02          0.813952116018168E-02
  |   7          0.778825431141210E-03          0.197802259830675E-01          0.846814241247303E-02
  |   8          0.865104766441844E-02          0.407958158683282E-02         -0.144959292786163E-02
  |   9         -0.256611752211709E-01          0.237740208294908E-02         -0.158046504158587E-01
  |  10         -0.899314483058595E-02          0.109123398240812E-01         -0.539618395210816E-02
  |  11         -0.201043753593445E-01         -0.102347434438025E-01         -0.828786853750722E-02
  |  12          0.137725413780125E-01          0.108746997174993E-01         -0.223557676154129E-02
  |  13          0.138519784923472E-02         -0.166133228951652E-01         -0.253981584449505E-01
  |  14          0.353211033938670E-02         -0.194947678488322E-01         -0.210361337912591E-01
  |  15         -0.378683519545079E-02         -0.102465633389354E-01         -0.251215686890734E-02
  |  16         -0.137242266570622E-01         -0.113173525091063E-01         -0.142980555775749E-01
  |  17          0.113820157011846E-01         -0.238860839436513E-01         -0.254404778010110E-01
  |  18          0.764180645177800E-02         -0.194077320980555E-01         -0.689238452742763E-02
  |  19          0.277310893419456E-01          0.113638264285898E-02         -0.853595431038835E-02
  |  20         -0.136344443634595E-03          0.152822372683248E-01         -0.615212951801738E-02
  |  21          0.470470676365134E-02          0.105356200349163E-01          0.107381274024968E-02
  |  22          0.834530183760320E-02          0.155360035575069E-03         -0.168570454030232E-02
  |  23         -0.647786183504241E-02         -0.724172037011758E-02          0.286321958322928E-02
  |  24          0.140065292136895E-01         -0.142280377707069E-01          0.987299361459010E-02
  |  25          0.122563922766198E-01         -0.999855792398922E-02          0.120467771327422E-01
  |  26         -0.107685059070130E-02         -0.104239016343458E-01          0.120816580087882E-01
  |  27          0.131802253523661E-01          0.181409308573240E-01          0.660282670567692E-02
  |  28         -0.238569344538648E-02          0.147674829205406E-01          0.182633429763330E-01
  |  29          0.776146889679285E-03         -0.430686881437293E-02         -0.367749417802285E-02
  |  30         -0.488635814702464E-02         -0.452010231246771E-02         -0.271917702928782E-03
  |  31          0.156984364487554E-02          0.134537566366298E-01          0.137845920048986E-01
  |  32         -0.812693582989691E-02          0.258406809166208E-01          0.152784183009935E-01

  ------------------------------------ 
  Start decomposition of the XC Energy 
  ------------------------------------ 
  Hartree-Fock part   :          0.000000000 Ha              0.000000000 eV
  ------------------------------------ 
  X Energy            :        -96.978627021 Ha          -2638.922708156 eV
  C Energy GGA        :         -3.866348453 Ha           -105.208694356 eV
  Total XC Energy     :       -100.844975474 Ha          -2744.131402512 eV
  LDA X and C from self-consistent density 
  X Energy LDA        :        -87.991544872 Ha          -2394.371760260 eV
  C Energy LDA        :         -7.530966700 Ha           -204.928030527 eV
  ------------------------------------ 
  End decomposition of the XC Energy 
  ------------------------------------ 
   
  ESP charge fitting starts.
  | Calculation :  00000001  of  00000001
  | Full density
  Computing multipole expansion for total density.
  Generating points for esp charges.
  Partitioning the integration grid into batches with parallel hashing+maxmin method.
  | Number of batches:     3798
  | Maximal batch size:     199
  | Minimal batch size:      94
  | Average batch size:     128.009
  | Standard deviation of batch sizes:      20.705

  Integration load balanced across    32 MPI tasks.
  Work distribution over tasks is as follows:
  Initializing partition tables, free-atom densities, potentials, etc. across the integration grid (initialize_grid_storage).
  | Original list of interatomic distances with          32 x         32 entries is created.
  | Net number of integration points:   486179
  | of which are non-zero points    :   486179
  Summing up potential from multipole expanded  density.
  Summing up the Hartree potential.
  Time summed over all CPUs for potential: real work        6.350 s, elapsed        6.795 s
  Fitting esp charges to potential.
  |
  | ESP charges fitted to the electrostatic potential :
  |
  | Atom         1: C, ESP charge:      0.98426065
  |
  | Atom         2: C, ESP charge:     -0.63971766
  |
  | Atom         3: O, ESP charge:      0.51378013
  |
  | Atom         4: H, ESP charge:     -0.27501420
  |
  | Atom         5: H, ESP charge:     -0.27265298
  |
  | Atom         6: H, ESP charge:     -0.27674959
  |
  | Atom         7: N, ESP charge:      0.06281095
  |
  | Atom         8: C, ESP charge:     -0.04366434
  |
  | Atom         9: C, ESP charge:     -0.07406221
  |
  | Atom        10: O, ESP charge:      0.38228245
  |
  | Atom        11: H, ESP charge:      0.03513518
  |
  | Atom        12: H, ESP charge:     -0.11963967
  |
  | Atom        13: C, ESP charge:      0.54284057
  |
  | Atom        14: H, ESP charge:     -0.18482710
  |
  | Atom        15: H, ESP charge:     -0.18911840
  |
  | Atom        16: H, ESP charge:     -0.11386953
  |
  | Atom        17: N, ESP charge:     -0.14570371
  |
  | Atom        18: C, ESP charge:     -0.16310135
  |
  | Atom        19: C, ESP charge:     -0.31196325
  |
  | Atom        20: O, ESP charge:      0.47731906
  |
  | Atom        21: H, ESP charge:     -0.13539249
  |
  | Atom        22: H, ESP charge:     -0.10591122
  |
  | Atom        23: C, ESP charge:      0.93260669
  |
  | Atom        24: H, ESP charge:     -0.26571901
  |
  | Atom        25: H, ESP charge:     -0.23135801
  |
  | Atom        26: H, ESP charge:     -0.29360672
  |
  | Atom        27: N, ESP charge:      0.39187748
  |
  | Atom        28: C, ESP charge:     -0.01274559
  |
  | Atom        29: H, ESP charge:     -0.31785744
  |
  | Atom        30: H, ESP charge:     -0.07021521
  |
  | Atom        31: H, ESP charge:     -0.06755492
  |
  | Atom        32: H, ESP charge:     -0.01246856

  RRMS:       0.00249126

  Done.

------------------------------------------------------------------------------
  Final output of selected total energy values:

  The following output summarizes some interesting total energy values
  at the end of a run (AFTER all relaxation, molecular dynamics, etc.).

  | Total energy of the DFT / Hartree-Fock s.c.f. calculation      :         -20208.775744690 eV
  | Final zero-broadening corrected energy (caution - metals only) :         -20208.775744690 eV
  | For reference only, the value of 1 Hartree used in FHI-aims is :             27.211384500 eV

  Before relying on these values, please be sure to understand exactly which
  total energy value is referred to by a given number. Different objects may
  all carry the same name 'total energy'. Definitions:

  Total energy of the DFT / Hartree-Fock s.c.f. calculation:
  | Note that this energy does not include ANY quantities calculated after the
  | s.c.f. cycle, in particular not ANY RPA, MP2, etc. many-body perturbation terms.

  Final zero-broadening corrected energy:
  | For metallic systems only, a broadening of the occupation numbers at the Fermi
  | level can be extrapolated back to zero broadening by an electron-gas inspired
  | formula. For all systems that are not real metals, this value can be
  | meaningless and should be avoided.

------------------------------------------------------------------------------
  Methods described in the following list of references were used in this FHI-aims run.
  If you publish the results, please make sure to cite these reference if they apply.
  FHI-aims is an academic code, and for our developers (often, Ph.D. students
  and postdocs), scientific credit in the community is essential.
  Thank you for helping us!

  For any use of FHI-aims, please cite:

    Volker Blum, Ralf Gehrke, Felix Hanke, Paula Havu, Ville Havu,
    Xinguo Ren, Karsten Reuter, and Matthias Scheffler
    'Ab initio molecular simulations with numeric atom-centered orbitals'
    Computer Physics Communications 180, 2175-2196 (2009)
    http://dx.doi.org/10.1016/j.cpc.2009.06.022


  The scalable eigensolver library ELPA was used in your run.
  ELPA is essential especially for large systems on hundreds or thousands of CPUs.
  For ELPA, please cite:

    Andreas Marek, Volker Blum, Rainer Johanni, Ville Havu, Bruno Lang,
    Thomas Auckenthaler, Alexander Heinecke, Hans-Joachim Bungartz, and Hermann Lederer,
    'The ELPA Library - Scalable Parallel Eigenvalue Solutions
    for Electronic Structure Theory and Computational Science'
    The Journal of Physics: Condensed Matter 26, 213201 (2014).
    http://dx.doi.org/10.1088/0953-8984/26/21/213201


  For ELPA's efficient two-stage tridiagonalization used in your run, please cite:

    T. Auckenthaler, V. Blum, H.-J. Bungartz, T. Huckle, R. Johanni, L. Kraemer,
    B. Lang, H. Lederer, and P. R. Willems,
    'Parallel solution of partial symmetric eigenvalue problems'
    'from  electronic structure calculations'
    Parallel Computing 37, 783-794 (2011).
    http://dx.doi.org/10.1016/j.parco.2011.05.002


  For the real-space grid partitioning and parallelization used in this calculation, please cite:

    Ville Havu, Volker Blum, Paula Havu, and Matthias Scheffler,
    'Efficient O(N) integration for all-electron electronic structure calculation'
    'using numerically tabulated basis functions'
    Journal of Computational Physics 228, 8367-8379 (2009).
    http://dx.doi.org/10.1016/j.jcp.2009.08.008

  Of course, there are many other important community references, e.g., those cited in the
  above references. Our list is limited to references that describe implementations in the
  FHI-aims code. The reason is purely practical (length of this list) - please credit others as well.

------------------------------------------------------------
          Leaving FHI-aims.
          Date     :  20170309, Time     :  190514.432

          Computational steps:
          | Number of self-consistency cycles          :           14

          Detailed time accounting                     :  max(cpu_time)    wall_clock(cpu1)
          | Total time                                 :       33.802 s          33.984 s
          | Preparation time                           :        0.236 s           0.235 s
          | Grid partitioning                          :        0.288 s           0.283 s
          | Preloading free-atom quantities on grid    :        0.032 s           0.027 s
          | Free-atom superposition energy             :        0.040 s           0.039 s
          | Total time for integrations                :       11.221 s          11.214 s
          | Total time for solution of K.-S. equations :        0.528 s           0.492 s
          | Total time for density & force components  :        9.973 s           9.960 s
          | Total time for mixing                      :        0.128 s           0.103 s
          | Total time for Hartree multipole update    :        0.072 s           0.057 s
          | Total time for Hartree multipole sum       :        6.380 s           6.356 s
          | Total time for total energy evaluation     :        0.036 s           0.021 s

          Have a nice day.
------------------------------------------------------------
