  MPI-parallelism will be employed.
------------------------------------------------------------
          Invoking FHI-aims ...
          Version 150427
          Git rev.: 9dd23e0 BL: Update Version stamp
          Compiled on 2015/11/03 at 22:05:20 on host eos03.

          When using FHI-aims, please cite the following reference:

          Volker Blum, Ralf Gehrke, Felix Hanke, Paula Havu,
          Ville Havu, Xinguo Ren, Karsten Reuter, and Matthias Scheffler,
          'Ab Initio Molecular Simulations with Numeric Atom-Centered Orbitals: FHI-aims',
          Computer Physics Communications 180, 2175-2196 (2009)

          For any questions about FHI-aims, please visit the aimsclub website
          with its forums and wiki. Contributions to both the forums and the
          wiki are warmly encouraged - they are for you, and everyone is welcome there.

------------------------------------------------------------

  Date     :  20170309, Time     :  185325.452
  Time zero on CPU 1             :   0.296018000000000E+00  s.
  Internal wall clock time zero  :           258317605.452  s.

  Using       32 parallel tasks.
  Task        0 on host eos195 reporting.
  Task        1 on host eos195 reporting.
  Task        2 on host eos195 reporting.
  Task        3 on host eos195 reporting.
  Task        4 on host eos195 reporting.
  Task        5 on host eos195 reporting.
  Task        6 on host eos195 reporting.
  Task        7 on host eos195 reporting.
  Task        8 on host eos195 reporting.
  Task        9 on host eos195 reporting.
  Task       10 on host eos195 reporting.
  Task       11 on host eos195 reporting.
  Task       12 on host eos195 reporting.
  Task       13 on host eos195 reporting.
  Task       14 on host eos195 reporting.
  Task       15 on host eos195 reporting.
  Task       16 on host eos195 reporting.
  Task       17 on host eos195 reporting.
  Task       18 on host eos195 reporting.
  Task       19 on host eos195 reporting.
  Task       20 on host eos195 reporting.
  Task       21 on host eos195 reporting.
  Task       22 on host eos195 reporting.
  Task       23 on host eos195 reporting.
  Task       24 on host eos195 reporting.
  Task       25 on host eos195 reporting.
  Task       26 on host eos195 reporting.
  Task       27 on host eos195 reporting.
  Task       28 on host eos195 reporting.
  Task       29 on host eos195 reporting.
  Task       30 on host eos195 reporting.
  Task       31 on host eos195 reporting.

  Performing system and environment tests:
  | Environment variable OMP_NUM_THREADS correctly set to 1.
  | Stacksize not measured: no C compiler
  | Checking for scalapack...
  | Testing pdtran()...
  | All pdtran() tests passed.

  Obtaining array dimensions for all initial allocations:
  
  -----------------------------------------------------------------------
  Parsing control.in (first pass over file, find array dimensions only).
  The contents of control.in will be repeated verbatim below
  unless switched off by setting 'verbatim_writeout .false.' .
  in the first line of control.in .
  -----------------------------------------------------------------------
  
  #########################################################################################
  #
  # Input for System
  #
  #########################################################################################
  #
  #
  #  Physical model
  #
    xc                 pbe
    many_body_dispersion
    spin               none
    charge             0.
  #
  #  SCF convergence
  #
    occupation_type    gaussian 0.05
    mixer              pulay
      n_max_pulay        10
      charge_mix_param   0.5
    sc_accuracy_rho    1E-4
    sc_accuracy_eev    1E-2
    sc_accuracy_etot   1E-5
    sc_accuracy_forces 1E-4
    sc_iter_limit      1000
  #
  #  ESP charge
  #
    output esp
    esp equal_grid_n 80 80 80
  #
  #
  ################################################################################
  #
  #  FHI-aims code project
  # Volker Blum, Fritz Haber Institute Berlin, 2009
  #
  #  Suggested "tight" defaults for H atom (to be pasted into control.in file)
  #
  ################################################################################
    species        H
  #     global species definitions
      nucleus             1
      mass                1.00794
  #
      l_hartree           6
  #
      cut_pot             4.0  2.0  1.0
      basis_dep_cutoff    1e-4
  #
      radial_base         24 7.0
      radial_multiplier   2
      angular_grids       specified
        division   0.1930   50
        division   0.3175  110
        division   0.4293  194
        division   0.5066  302
        division   0.5626  434
  #      division   0.5922  590
  #      division   0.6227  974
  #      division   0.6868 1202
  #      outer_grid  770
        outer_grid  434
  ################################################################################
  #
  #  Definition of "minimal" basis
  #
  ################################################################################
  #     valence basis states
      valence      1  s   1.
  #     ion occupancy
      ion_occ      1  s   0.5
  ################################################################################
  #
  #  Suggested additional basis functions. For production calculations,
  #  uncomment them one after another (the most important basis functions are
  #  listed first).
  #
  #  Basis constructed for dimers: 0.5 A, 0.7 A, 1.0 A, 1.5 A, 2.5 A
  #
  ################################################################################
  #  "First tier" - improvements: -1014.90 meV to -62.69 meV
       hydro 2 s 2.1
       hydro 2 p 3.5
  #  "Second tier" - improvements: -12.89 meV to -1.83 meV
       hydro 1 s 0.85
       hydro 2 p 3.7
       hydro 2 s 1.2
       hydro 3 d 7
  #  "Third tier" - improvements: -0.25 meV to -0.12 meV
  #     hydro 4 f 11.2
  #     hydro 3 p 4.8
  #     hydro 4 d 9
  #     hydro 3 s 3.2
  ################################################################################
  #
  # For methods that use the localized form of the "resolution of identity" for
  # the two-electron Coulomb operator (RI_method LVL), particularly Hartree-Fock and
  # hybrid density functional calculations, the highest accuracy can be obtained by
  # uncommenting the line beginning with "for_aux"  below, thus adding an extra g radial
  # function to the construction of the product basis set for the expansion.
  # See Ref. New J. Phys. 17, 093020 (2015) for more information, particularly Figs. 1 and 6.
  #
  ################################################################################
  #
  # for_aux hydro 5 g 6.0
  ################################################################################
  #
  #  FHI-aims code project
  # Volker Blum, Fritz Haber Institute Berlin, 2009
  #
  #  Suggested "tight" defaults for C atom (to be pasted into control.in file)
  #
  ################################################################################
    species        C
  #     global species definitions
      nucleus             6
      mass                12.0107
  #
      l_hartree           6
  #
      cut_pot             4.0  2.0  1.0
      basis_dep_cutoff    1e-4
  #
      radial_base         34 7.0
      radial_multiplier   2
      angular_grids specified
        division   0.2187   50
        division   0.4416  110
        division   0.6335  194
        division   0.7727  302
        division   0.8772  434
  #      division   0.9334  590
  #      division   0.9924  770
  #      division   1.0230  974
  #      division   1.5020 1202
  #     outer_grid  974
        outer_grid  434
  ################################################################################
  #
  #  Definition of "minimal" basis
  #
  ################################################################################
  #     valence basis states
      valence      2  s   2.
      valence      2  p   2.
  #     ion occupancy
      ion_occ      2  s   1.
      ion_occ      2  p   1.
  ################################################################################
  #
  #  Suggested additional basis functions. For production calculations,
  #  uncomment them one after another (the most important basis functions are
  #  listed first).
  #
  #  Constructed for dimers: 1.0 A, 1.25 A, 1.5 A, 2.0 A, 3.0 A
  #
  ################################################################################
  #  "First tier" - improvements: -1214.57 meV to -155.61 meV
       hydro 2 p 1.7
       hydro 3 d 6
       hydro 2 s 4.9
  #  "Second tier" - improvements: -67.75 meV to -5.23 meV
       hydro 4 f 9.8
       hydro 3 p 5.2
       hydro 3 s 4.3
       hydro 5 g 14.4
       hydro 3 d 6.2
  #  "Third tier" - improvements: -2.43 meV to -0.60 meV
  #     hydro 2 p 5.6
  #     hydro 2 s 1.4
  #     hydro 3 d 4.9
  #     hydro 4 f 11.2
  #  "Fourth tier" - improvements: -0.39 meV to -0.18 meV
  #     hydro 2 p 2.1
  #     hydro 5 g 16.4
  #     hydro 4 d 13.2
  #     hydro 3 s 13.6
  #     hydro 4 f 17.6
  #  Further basis functions - improvements: -0.08 meV and below
  #     hydro 3 s 2
  #     hydro 3 p 6
  #     hydro 4 d 20
  ################################################################################
  #
  # For methods that use the localized form of the "resolution of identity" for
  # the two-electron Coulomb operator (RI_method LVL), particularly Hartree-Fock and
  # hybrid density functional calculations, the highest accuracy can be obtained by
  # uncommenting the line beginning with "for_aux"  below, thus adding an extra g radial
  # function to the construction of the product basis set for the expansion.
  # See Ref. New J. Phys. 17, 093020 (2015) for more information, particularly Figs. 1 and 6.
  #
  ################################################################################
  #
  # for_aux hydro 5 g 6.0
  ################################################################################
  #
  #  FHI-aims code project
  # Volker Blum, Fritz Haber Institute Berlin, 2009
  #
  #  Suggested "tight" defaults for N atom (to be pasted into control.in file)
  #
  ################################################################################
    species        N
  #     global species definitions
      nucleus             7
      mass                14.0067
  #
      l_hartree           6
  #
      cut_pot             4.0  2.0  1.0
      basis_dep_cutoff    1e-4
  #
      radial_base         35 7.0
      radial_multiplier   2
      angular_grids       specified
        division   0.1841   50
        division   0.3514  110
        division   0.5126  194
        division   0.6292  302
        division   0.6939  434
  #      division   0.7396  590
  #      division   0.7632  770
  #      division   0.8122  974
  #      division   1.1604 1202
  #      outer_grid  974
        outer_grid  434
  ################################################################################
  #
  #  Definition of "minimal" basis
  #
  ################################################################################
  #     valence basis states
      valence      2  s   2.
      valence      2  p   3.
  #     ion occupancy
      ion_occ      2  s   1.
      ion_occ      2  p   2.
  ################################################################################
  #
  #  Suggested additional basis functions. For production calculations,
  #  uncomment them one after another (the most important basis functions are
  #  listed first).
  #
  #  Constructed for dimers: 1.0 A, 1.1 A, 1.5 A, 2.0 A, 3.0 A
  #
  ################################################################################
  #  "First tier" - improvements: -1193.42 meV to -220.60 meV
       hydro 2 p 1.8
       hydro 3 d 6.8
       hydro 3 s 5.8
  #  "Second tier" - improvements: -80.21 meV to -6.86 meV
       hydro 4 f 10.8
       hydro 3 p 5.8
       hydro 1 s 0.8
       hydro 5 g 16
       hydro 3 d 4.9
  #  "Third tier" - improvements: -4.29 meV to -0.53 meV
  #     hydro 3 s 16
  #     ionic 2 p auto
  #     hydro 3 d 6.6
  #     hydro 4 f 11.6
  #  "Fourth tier" - improvements: -0.75 meV to -0.25 meV
  #     hydro 2 p 4.5
  #     hydro 2 s 2.4
  #     hydro 5 g 14.4
  #     hydro 4 d 14.4
  #     hydro 4 f 16.8
  # Further basis functions - -0.21 meV and below
  #     hydro 3 p 14.8
  #     hydro 3 s 4.4
  #     hydro 3 d 19.6
  #     hydro 5 g 12.8
  ################################################################################
  #
  # For methods that use the localized form of the "resolution of identity" for
  # the two-electron Coulomb operator (RI_method LVL), particularly Hartree-Fock and
  # hybrid density functional calculations, the highest accuracy can be obtained by
  # uncommenting the line beginning with "for_aux"  below, thus adding an extra g radial
  # function to the construction of the product basis set for the expansion.
  # See Ref. New J. Phys. 17, 093020 (2015) for more information, particularly Figs. 1 and 6.
  #
  ################################################################################
  #
  # for_aux hydro 5 g 6.0
  ################################################################################
  #
  #  FHI-aims code project
  # Volker Blum, Fritz Haber Institute Berlin, 2009
  #
  #  Suggested "tight" defaults for O atom (to be pasted into control.in file)
  #
  ################################################################################
    species        O
  #     global species definitions
      nucleus             8
      mass                15.9994
  #
      l_hartree           6
  #
      cut_pot             4.0  2.0  1.0
      basis_dep_cutoff    1e-4
  #
      radial_base         36 7.0
      radial_multiplier   2
       angular_grids specified
        division   0.1817   50
        division   0.3417  110
        division   0.4949  194
        division   0.6251  302
        division   0.8014  434
  #      division   0.8507  590
  #      division   0.8762  770
  #      division   0.9023  974
  #      division   1.2339 1202
  #      outer_grid 974
        outer_grid  434
  ################################################################################
  #
  #  Definition of "minimal" basis
  #
  ################################################################################
  #     valence basis states
      valence      2  s   2.
      valence      2  p   4.
  #     ion occupancy
      ion_occ      2  s   1.
      ion_occ      2  p   3.
  ################################################################################
  #
  #  Suggested additional basis functions. For production calculations,
  #  uncomment them one after another (the most important basis functions are
  #  listed first).
  #
  #  Constructed for dimers: 1.0 A, 1.208 A, 1.5 A, 2.0 A, 3.0 A
  #
  ################################################################################
  #  "First tier" - improvements: -699.05 meV to -159.38 meV
       hydro 2 p 1.8
       hydro 3 d 7.6
       hydro 3 s 6.4
  #  "Second tier" - improvements: -49.91 meV to -5.39 meV
       hydro 4 f 11.6
       hydro 3 p 6.2
       hydro 3 d 5.6
       hydro 5 g 17.6
       hydro 1 s 0.75
  #  "Third tier" - improvements: -2.83 meV to -0.50 meV
  #     ionic 2 p auto
  #     hydro 4 f 10.8
  #     hydro 4 d 4.7
  #     hydro 2 s 6.8
  #  "Fourth tier" - improvements: -0.40 meV to -0.12 meV
  #     hydro 3 p 5
  #     hydro 3 s 3.3
  #     hydro 5 g 15.6
  #     hydro 4 f 17.6
  #     hydro 4 d 14
  # Further basis functions - -0.08 meV and below
  #     hydro 3 s 2.1
  #     hydro 4 d 11.6
  #     hydro 3 p 16
  #     hydro 2 s 17.2
  ################################################################################
  #
  # For methods that use the localized form of the "resolution of identity" for
  # the two-electron Coulomb operator (RI_method LVL), particularly Hartree-Fock and
  # hybrid density functional calculations, the highest accuracy can be obtained by
  # uncommenting the line beginning with "for_aux"  below, thus adding an extra g radial
  # function to the construction of the product basis set for the expansion.
  # See Ref. New J. Phys. 17, 093020 (2015) for more information, particularly Figs. 1 and 6.
  #
  ################################################################################
  #
  # for_aux hydro 5 g 6.0
  
  -----------------------------------------------------------------------
  Completed first pass over input file control.in .
  -----------------------------------------------------------------------
  
  
  -----------------------------------------------------------------------
  Parsing geometry.in (first pass over file, find array dimensions only).
  The contents of geometry.in will be repeated verbatim below
  unless switched off by setting 'verbatim_writeout .false.' .
  in the first line of geometry.in .
  -----------------------------------------------------------------------
  
  #
  # This is the geometry file that corresponds to the current relaxation step.
  # If you do not want this file to be written, set the "write_restart_geometry" flag to .false.
  #
  atom      -1.04774367      0.43362799     -0.03766864 C
  atom      -0.71138758      0.51068327      1.43879865 C
  atom       0.42597678      0.71391318      1.85951587 O
  atom      -1.84220375     -0.29549550     -0.24567050 H
  atom      -0.14188142      0.17227406     -0.59363387 H
  atom      -1.38445404      1.42108482     -0.38490304 H
  atom      -1.78449419      0.36311166      2.28329741 N
  atom      -1.67131261      0.59552794      3.70953552 C
  atom      -1.19913878     -0.57671157      4.59519057 C
  atom      -0.65500809     -0.30238603      5.66273704 O
  atom      -2.69015334      0.14944305      1.87971500 H
  atom      -0.85011195      1.31460159      3.83766176 H
  atom      -2.95818396      1.20386209      4.27776868 C
  atom      -3.82123039      0.53586499      4.14961587 H
  atom      -3.17809424      2.15403041      3.77484015 H
  atom      -2.83350689      1.39525610      5.34954005 H
  atom      -1.32987882     -1.90214068      4.23911639 N
  atom      -2.17335420     -2.64100295      3.28983303 C
  atom      -1.80535570     -2.49848911      1.79249700 C
  atom      -2.68465908     -2.31862138      0.94501191 O
  atom      -0.94565524     -2.47112053      4.98940778 H
  atom      -1.95214823     -3.69729424      3.51956224 H
  atom      -3.67322214     -2.43727607      3.50678371 C
  atom      -4.24892395     -3.15155177      2.90805977 H
  atom      -3.99525195     -1.43395614      3.20642034 H
  atom      -3.91310985     -2.57865771      4.56789682 H
  atom      -0.50458457     -2.66138819      1.42827972 N
  atom       0.69012742     -2.82125352      2.24622681 C
  atom      -0.36744802     -2.54847526      0.42865944 H
  atom       1.49203202     -3.19756836      1.60078755 H
  atom       0.53437044     -3.56118103      3.04110801 H
  atom       1.01535098     -1.87285909      2.69477295 H
  
  -----------------------------------------------------------------------
  Completed first pass over input file geometry.in .
  -----------------------------------------------------------------------
  

  Basic array size parameters:
  | Number of species                 :        4
  | Number of atoms                   :       32
  | Max. basis fn. angular momentum   :        4
  | Max. atomic/ionic basis occupied n:        2
  | Max. number of basis fn. types    :        2
  | Max. radial fns per species/type  :        8
  | Max. logarithmic grid size        :     1301
  | Max. radial integration grid size :       73
  | Max. angular integration grid size:      434
  | Max. angular grid division number :        8
  | Radial grid for Hartree potential :     1301
  | Number of spin channels           :        1

------------------------------------------------------------
          Reading file control.in.
------------------------------------------------------------
  XC: Using PBE gradient-corrected functionals.
  Self-consistent screening and van der Waals energy (TS, TS+SCS,MBD) module
  Spin treatment: No spin polarisation.
  Charge =   0.000000E+00: Neutral system requested explicitly.
  Occupation type: Gaussian broadening, width =   0.500000E-01 eV.
  Using pulay charge density mixing.
  Pulay mixing - number of memorized iterations:   10
  Charge density mixing - mixing parameter:     0.5000
  Convergence accuracy of self-consistent charge density:  0.1000E-03
  Convergence accuracy of sum of eigenvalues:  0.1000E-01
  Convergence accuracy of total energy:  0.1000E-04
  Convergence accuracy of forces:  0.1000E-03
  Maximum number of s.-c. iterations  :  1000
  Fitting ESP-charges to Potential. 
  | Esp charge output options: 
  | ESP Grid method: 3, cubic grid
  | Number of points in x, ,y, z:  0080 0080 0080
  |
 
  Reading configuration options for species H                   .
  | Found nuclear charge :   1.0000
  | Found atomic mass :    1.00794000000000      amu
  | Found l_max for Hartree potential  :   6
  | Found cutoff potl. onset [A], width [A], scale factor :    4.00000    2.00000    1.00000
  | Threshold for basis-dependent cutoff potential is   0.100000E-03
  | Found data for basic radial integration grid :    24 points, outermost radius =    7.000 A
  | Found multiplier for basic radial grid :   2
  | Found angular grid specification: user-specified.
  | Specified grid contains     6 separate shells.
  | Check grid settings after all constraints further below.
  | Found free-atom valence shell :  1 s   1.000
  | No ionic wave fns used. Skipping ion_occ.
  | Found hydrogenic basis function :  2 s   2.100
  | Found hydrogenic basis function :  2 p   3.500
  | Found hydrogenic basis function :  1 s   0.850
  | Found hydrogenic basis function :  2 p   3.700
  | Found hydrogenic basis function :  2 s   1.200
  | Found hydrogenic basis function :  3 d   7.000
  Species H                   : Missing cutoff potential type.
  Defaulting to exp(1/x)/(1-x)^2 type cutoff potential.
  Species H : No 'logarithmic' tag. Using default grid for free atom:
  | Default logarithmic grid data [bohr] : 0.1000E-03 0.1000E+03 0.1012E+01
  Species H : On-site basis accuracy parameter (for Gram-Schmidt orthonormalisation) not specified.
  Using default value basis_acc =  0.1000000E-03.
  Species H                   : Using default innermost maximum threshold i_radial=  2 for radial functions.
  Species H                   : Default cutoff onset for free atom density etc. : 0.40000000E+01 AA.
  Species H                   : Basic radial grid will be enhanced according to radial_multiplier =   2, to contain    49 grid points.
 
  Reading configuration options for species C                   .
  | Found nuclear charge :   6.0000
  | Found atomic mass :    12.0107000000000      amu
  | Found l_max for Hartree potential  :   6
  | Found cutoff potl. onset [A], width [A], scale factor :    4.00000    2.00000    1.00000
  | Threshold for basis-dependent cutoff potential is   0.100000E-03
  | Found data for basic radial integration grid :    34 points, outermost radius =    7.000 A
  | Found multiplier for basic radial grid :   2
  | Found angular grid specification: user-specified.
  | Specified grid contains     6 separate shells.
  | Check grid settings after all constraints further below.
  | Found free-atom valence shell :  2 s   2.000
  | Found free-atom valence shell :  2 p   2.000
  | No ionic wave fns used. Skipping ion_occ.
  | No ionic wave fns used. Skipping ion_occ.
  | Found hydrogenic basis function :  2 p   1.700
  | Found hydrogenic basis function :  3 d   6.000
  | Found hydrogenic basis function :  2 s   4.900
  | Found hydrogenic basis function :  4 f   9.800
  | Found hydrogenic basis function :  3 p   5.200
  | Found hydrogenic basis function :  3 s   4.300
  | Found hydrogenic basis function :  5 g  14.400
  | Found hydrogenic basis function :  3 d   6.200
  Species C                   : Missing cutoff potential type.
  Defaulting to exp(1/x)/(1-x)^2 type cutoff potential.
  Species C : No 'logarithmic' tag. Using default grid for free atom:
  | Default logarithmic grid data [bohr] : 0.1000E-03 0.1000E+03 0.1012E+01
  Species C : On-site basis accuracy parameter (for Gram-Schmidt orthonormalisation) not specified.
  Using default value basis_acc =  0.1000000E-03.
  Species C                   : Using default innermost maximum threshold i_radial=  2 for radial functions.
  Species C                   : Default cutoff onset for free atom density etc. : 0.40000000E+01 AA.
  Species C                   : Basic radial grid will be enhanced according to radial_multiplier =   2, to contain    69 grid points.
 
  Reading configuration options for species N                   .
  | Found nuclear charge :   7.0000
  | Found atomic mass :    14.0067000000000      amu
  | Found l_max for Hartree potential  :   6
  | Found cutoff potl. onset [A], width [A], scale factor :    4.00000    2.00000    1.00000
  | Threshold for basis-dependent cutoff potential is   0.100000E-03
  | Found data for basic radial integration grid :    35 points, outermost radius =    7.000 A
  | Found multiplier for basic radial grid :   2
  | Found angular grid specification: user-specified.
  | Specified grid contains     6 separate shells.
  | Check grid settings after all constraints further below.
  | Found free-atom valence shell :  2 s   2.000
  | Found free-atom valence shell :  2 p   3.000
  | No ionic wave fns used. Skipping ion_occ.
  | No ionic wave fns used. Skipping ion_occ.
  | Found hydrogenic basis function :  2 p   1.800
  | Found hydrogenic basis function :  3 d   6.800
  | Found hydrogenic basis function :  3 s   5.800
  | Found hydrogenic basis function :  4 f  10.800
  | Found hydrogenic basis function :  3 p   5.800
  | Found hydrogenic basis function :  1 s   0.800
  | Found hydrogenic basis function :  5 g  16.000
  | Found hydrogenic basis function :  3 d   4.900
  Species N                   : Missing cutoff potential type.
  Defaulting to exp(1/x)/(1-x)^2 type cutoff potential.
  Species N : No 'logarithmic' tag. Using default grid for free atom:
  | Default logarithmic grid data [bohr] : 0.1000E-03 0.1000E+03 0.1012E+01
  Species N : On-site basis accuracy parameter (for Gram-Schmidt orthonormalisation) not specified.
  Using default value basis_acc =  0.1000000E-03.
  Species N                   : Using default innermost maximum threshold i_radial=  2 for radial functions.
  Species N                   : Default cutoff onset for free atom density etc. : 0.40000000E+01 AA.
  Species N                   : Basic radial grid will be enhanced according to radial_multiplier =   2, to contain    71 grid points.
 
  Reading configuration options for species O                   .
  | Found nuclear charge :   8.0000
  | Found atomic mass :    15.9994000000000      amu
  | Found l_max for Hartree potential  :   6
  | Found cutoff potl. onset [A], width [A], scale factor :    4.00000    2.00000    1.00000
  | Threshold for basis-dependent cutoff potential is   0.100000E-03
  | Found data for basic radial integration grid :    36 points, outermost radius =    7.000 A
  | Found multiplier for basic radial grid :   2
  | Found angular grid specification: user-specified.
  | Specified grid contains     6 separate shells.
  | Check grid settings after all constraints further below.
  | Found free-atom valence shell :  2 s   2.000
  | Found free-atom valence shell :  2 p   4.000
  | No ionic wave fns used. Skipping ion_occ.
  | No ionic wave fns used. Skipping ion_occ.
  | Found hydrogenic basis function :  2 p   1.800
  | Found hydrogenic basis function :  3 d   7.600
  | Found hydrogenic basis function :  3 s   6.400
  | Found hydrogenic basis function :  4 f  11.600
  | Found hydrogenic basis function :  3 p   6.200
  | Found hydrogenic basis function :  3 d   5.600
  | Found hydrogenic basis function :  5 g  17.600
  | Found hydrogenic basis function :  1 s   0.750
  Species O                   : Missing cutoff potential type.
  Defaulting to exp(1/x)/(1-x)^2 type cutoff potential.
  Species O : No 'logarithmic' tag. Using default grid for free atom:
  | Default logarithmic grid data [bohr] : 0.1000E-03 0.1000E+03 0.1012E+01
  Species O : On-site basis accuracy parameter (for Gram-Schmidt orthonormalisation) not specified.
  Using default value basis_acc =  0.1000000E-03.
  Species O                   : Using default innermost maximum threshold i_radial=  2 for radial functions.
  Species O                   : Default cutoff onset for free atom density etc. : 0.40000000E+01 AA.
  Species O                   : Basic radial grid will be enhanced according to radial_multiplier =   2, to contain    73 grid points.
 
  Finished reading input file 'control.in'. Consistency checks are next.
 
  Target number of points in a grid batch is not set. Defaulting to  100
  Method for grid partitioning is not set. Defaulting to parallel hash+maxmin partitioning.
  Batch size limit is not set. Defaulting to    200
  By default, will store active basis functions for each batch.
  If in need of memory, prune_basis_once .false. can be used to disable this option.
  communication_type for Hartree potential was not specified.
  Defaulting to calc_hartree .
  Pulay mixer: Number of initial linear mixing iterations not set.
  Defaulting to    0 iterations.
  Work space size for distributed Hartree potential not set.
  Defaulting to   0.200000E+03 MB.
  Algorithm-dependent basis array size parameters:
  | n_max_pulay                         :       10
  Geometry relaxation not requested: no relaxation will be performed.
  Handling of forces: Unphysical translation and rotation will be removed from forces.
  No accuracy limit for integral partition fn. given. Defaulting to  0.1000E-14.
  No threshold value for u(r) in integrations given. Defaulting to  0.1000E-05.
  No accuracy for occupation numbers given. Defaulting to  0.1000E-07.
  No threshold value for occupation numbers given. Defaulting to  0.0000E+00.
  No accuracy for fermi level given. Defaulting to  0.1000E-19.
  Maximum # of iterations to find E_F not set. Defaulting to  200.
  Preferred method for the eigenvalue solver ('KS_method') not specified in 'control.in'.
  Calling blacs routine to test compilation state
  Since scalapack support is enabled, defaulting to 'elpa'.
  Preferred method for the MBD eigenvalue solver ('mbd_eigensolver') not specified in 'control.in'.
  Calling blacs routine to test compilation state
  Since scalapack support is enabled, defaulting to 'scaLAPACK'.
  Will not use alltoall communication since running on < 1024 CPUs.
  Threshold for basis singularities not set.
  Default threshold for basis singularities:  0.1000E-04
  partition_type (choice of integration weights) for integrals was not specified.
  | Using a version of the partition function of Stratmann and coworkers ('stratmann_smoother').
  | At each grid point, the set of atoms used to build the partition table is smoothly restricted to
  | only those atoms whose free-atom density would be non-zero at that grid point.
  Partitioning for Hartree potential was not defined. Using partition_type for integrals.
  | Adjusted default value of keyword multip_moments_threshold to:       0.10000000E-11
  | This value may affect high angular momentum components of the Hartree potential in periodic systems.
  No q(lm)/r^(l+1) cutoff set for long-range Hartree potential.
  | Using default value of  0.100000E-09 .
  | Verify using the multipole_threshold keyword.
  Defaulting to new monopole extrapolation.
  Density update method: automatic selection selected.
------------------------------------------------------------


------------------------------------------------------------
          Reading geometry description geometry.in.
------------------------------------------------------------
 * Warning! You did not set the 'relativistic' flag in input file 'control.in'.
 * Since you are not attempting to treat any elements beyond Ca(Z=20), FHI-aims
 * will default to 'relativistic none'.
 * You must ensure that this is really what you want!!
 * For example, DO NOT compute total-energy differences between results from
 * different settings of the 'relativistic' flag.
  Input structure read successfully.
  The structure contains       32 atoms,  and a total of        116.000 electrons.

  Input geometry:
  | No unit cell requested.
  | Atomic structure:
  |       Atom                x [A]            y [A]            z [A]
  |    1: Species C             -1.047744         0.433628        -0.037669
  |    2: Species C             -0.711388         0.510683         1.438799
  |    3: Species O              0.425977         0.713913         1.859516
  |    4: Species H             -1.842204        -0.295496        -0.245671
  |    5: Species H             -0.141881         0.172274        -0.593634
  |    6: Species H             -1.384454         1.421085        -0.384903
  |    7: Species N             -1.784494         0.363112         2.283297
  |    8: Species C             -1.671313         0.595528         3.709536
  |    9: Species C             -1.199139        -0.576712         4.595191
  |   10: Species O             -0.655008        -0.302386         5.662737
  |   11: Species H             -2.690153         0.149443         1.879715
  |   12: Species H             -0.850112         1.314602         3.837662
  |   13: Species C             -2.958184         1.203862         4.277769
  |   14: Species H             -3.821230         0.535865         4.149616
  |   15: Species H             -3.178094         2.154030         3.774840
  |   16: Species H             -2.833507         1.395256         5.349540
  |   17: Species N             -1.329879        -1.902141         4.239116
  |   18: Species C             -2.173354        -2.641003         3.289833
  |   19: Species C             -1.805356        -2.498489         1.792497
  |   20: Species O             -2.684659        -2.318621         0.945012
  |   21: Species H             -0.945655        -2.471121         4.989408
  |   22: Species H             -1.952148        -3.697294         3.519562
  |   23: Species C             -3.673222        -2.437276         3.506784
  |   24: Species H             -4.248924        -3.151552         2.908060
  |   25: Species H             -3.995252        -1.433956         3.206420
  |   26: Species H             -3.913110        -2.578658         4.567897
  |   27: Species N             -0.504585        -2.661388         1.428280
  |   28: Species C              0.690127        -2.821254         2.246227
  |   29: Species H             -0.367448        -2.548475         0.428659
  |   30: Species H              1.492032        -3.197568         1.600788
  |   31: Species H              0.534370        -3.561181         3.041108
  |   32: Species H              1.015351        -1.872859         2.694773
  |

  | The smallest distance between any two atoms is         1.01427389 AA.
  |
  | The first atom of this pair is atom number                      7 .
  | The second atom of this pair is atom number                    11 .

  Number of empty states per atom not set in control.in - providing a guess from actual geometry.
  | Total number of empty states used during s.c.f. cycle:       71
  If you use a very high smearing, use empty_states (per atom!) in control.in to increase this value.

  Structure-dependent array size parameters: 
  | Maximum number of distinct radial functions  :       40
  | Maximum number of basis functions            :      840
  | Number of Kohn-Sham states (occupied + empty):      129
------------------------------------------------------------

------------------------------------------------------------
          Preparing all fixed parts of the calculation.
------------------------------------------------------------
  Determining machine precision:
    2.225073858507201E-308
  Setting up grids for atomic and cluster calculations.

  Creating wave function, potential, and density for free atoms.

  Species: H

  List of occupied orbitals and eigenvalues:
    n    l              occ      energy [Ha]    energy [eV]
    1    0           1.0000        -0.238382        -6.4867


  Species: C

  List of occupied orbitals and eigenvalues:
    n    l              occ      energy [Ha]    energy [eV]
    1    0           2.0000       -10.041232      -273.2358
    2    0           2.0000        -0.504327       -13.7234
    2    1           2.0000        -0.193750        -5.2722


  Species: N

  List of occupied orbitals and eigenvalues:
    n    l              occ      energy [Ha]    energy [eV]
    1    0           2.0000       -14.129007      -384.4699
    2    0           2.0000        -0.681802       -18.5528
    2    1           3.0000        -0.260543        -7.0897


  Species: O

  List of occupied orbitals and eigenvalues:
    n    l              occ      energy [Ha]    energy [eV]
    1    0           2.0000       -18.898576      -514.2564
    2    0           2.0000        -0.878795       -23.9132
    2    1           4.0000        -0.332075        -9.0362

  Creating fixed part of basis set: Ionic, confined, hydrogenic.
 
  H                    hydrogenic:
 
  List of hydrogenic basis orbitals: 
    n    l      effective z      eigenvalue [eV]  inner max. [A]     outer max. [A]     outer radius [A]   
    2    0         2.100000       -14.9965           0.193243           1.317208           5.373006
    2    1         3.500000       -41.6672           0.602369           0.602369           4.056063
    1    0         0.850000        -9.8292           0.624871           0.624871           5.373006
    2    1         3.700000       -46.5653           0.573622           0.573622           3.910002
    2    0         1.200000        -4.5995           0.334980           2.228188           5.505995
    3    2         7.000000       -74.0753           0.680699           0.680699           3.769201
 
 
  C                    hydrogenic:
 
  List of hydrogenic basis orbitals: 
    n    l      effective z      eigenvalue [eV]  inner max. [A]     outer max. [A]     outer radius [A]   
    2    1         1.700000        -9.8152           1.245706           1.245706           5.401630
    3    2         6.000000       -54.4226           0.792453           0.792453           4.178599
    2    0         4.900000       -81.6681           0.082559           0.562749           3.353238
    4    3         9.800000       -81.6681           0.863254           0.863254           4.028125
    3    1         5.200000       -40.8774           0.305389           1.215618           4.898362
    3    0         4.300000       -27.9508           0.091041           1.610311           5.401630
    5    4        14.400000      -112.8510           0.917666           0.917666           3.883070
    3    2         6.200000       -58.1113           0.763917           0.763917           4.077671
 
 
  N                    hydrogenic:
 
  List of hydrogenic basis orbitals: 
    n    l      effective z      eigenvalue [eV]  inner max. [A]     outer max. [A]     outer radius [A]   
    2    1         1.800000       -11.0118           1.177451           1.177451           5.427479
    3    2         6.800000       -69.9029           0.704619           0.704619           3.854246
    3    0         5.800000       -50.8549           0.067388           1.191934           4.629968
    4    3        10.800000       -99.1854           0.786571           0.786571           3.761152
    3    1         5.800000       -50.8549           0.274880           1.094176           4.518138
    1    0         0.800000        -8.7059           0.662839           0.662839           5.361532
    5    4        16.000000      -139.3222           0.825990           0.825990           3.625711
    3    2         4.900000       -36.2967           0.968267           0.968267           4.862000
 
 
  O                    hydrogenic:
 
  List of hydrogenic basis orbitals: 
    n    l      effective z      eigenvalue [eV]  inner max. [A]     outer max. [A]     outer radius [A]   
    2    1         1.800000       -11.0118           1.178562           1.178562           5.432602
    3    2         7.600000       -87.3182           0.624125           0.624125           3.541477
    3    0         6.400000       -61.9209           0.061167           1.081902           4.306578
    4    3        11.600000      -114.4238           0.731631           0.731631           3.585037
    3    1         6.200000       -58.1113           0.255680           1.030270           4.306578
    3    2         5.600000       -47.4081           0.847233           0.847233           4.413171
    5    4        17.600000      -168.5799           0.749740           0.749740           3.372465
    1    0         0.750000        -7.6499           0.705284           0.705284           5.366593
 

  Adding cutoff potential to free-atom effective potential.
  Creating atomic-like basis functions for current effective potential.

  Species H                   :

  List of atomic basis orbitals and eigenvalues:
    n    l      energy [Ha]    energy [eV]    outer radius [A]
    1    0        -0.238382        -6.4867       5.373006


  Species C                   :

  List of atomic basis orbitals and eigenvalues:
    n    l      energy [Ha]    energy [eV]    outer radius [A]
    1    0       -10.041232      -273.2358       1.934409
    2    0        -0.504327       -13.7234       5.271162
    2    1        -0.193750        -5.2722       5.401630


  Species N                   :

  List of atomic basis orbitals and eigenvalues:
    n    l      energy [Ha]    energy [eV]    outer radius [A]
    1    0       -14.129007      -384.4699       1.637919
    2    0        -0.681802       -18.5528       5.168461
    2    1        -0.260543        -7.0897       5.361532


  Species O                   :

  List of atomic basis orbitals and eigenvalues:
    n    l      energy [Ha]    energy [eV]    outer radius [A]
    1    0       -18.898576      -514.2564       1.415765
    2    0        -0.878795       -23.9132       5.048385
    2    1        -0.332075        -9.0362       5.301386

  Assembling full basis from fixed parts.
  | Species H :   atomic orbital   1 s accepted.
  | Species H :    hydro orbital   2 s accepted.
  | Species H :    hydro orbital   1 s accepted.
  | Species H :    hydro orbital   2 s accepted.
  | Species H :    hydro orbital   2 p accepted.
  | Species H :    hydro orbital   2 p accepted.
  | Species H :    hydro orbital   3 d accepted.
  | Species C :   atomic orbital   1 s accepted.
  | Species C :    hydro orbital   2 s accepted.
  | Species C :   atomic orbital   2 s accepted.
  | Species C :    hydro orbital   3 s accepted.
  | Species C :    hydro orbital   3 p accepted.
  | Species C :   atomic orbital   2 p accepted.
  | Species C :    hydro orbital   2 p accepted.
  | Species C :    hydro orbital   3 d accepted.
  | Species C :    hydro orbital   3 d accepted.
  | Species C :    hydro orbital   4 f accepted.
  | Species C :    hydro orbital   5 g accepted.
  | Species N :   atomic orbital   1 s accepted.
  | Species N :    hydro orbital   3 s accepted.
  | Species N :   atomic orbital   2 s accepted.
  | Species N :    hydro orbital   1 s accepted.
  | Species N :    hydro orbital   3 p accepted.
  | Species N :   atomic orbital   2 p accepted.
  | Species N :    hydro orbital   2 p accepted.
  | Species N :    hydro orbital   3 d accepted.
  | Species N :    hydro orbital   3 d accepted.
  | Species N :    hydro orbital   4 f accepted.
  | Species N :    hydro orbital   5 g accepted.
  | Species O :   atomic orbital   1 s accepted.
  | Species O :    hydro orbital   3 s accepted.
  | Species O :   atomic orbital   2 s accepted.
  | Species O :    hydro orbital   1 s accepted.
  | Species O :    hydro orbital   3 p accepted.
  | Species O :   atomic orbital   2 p accepted.
  | Species O :    hydro orbital   2 p accepted.
  | Species O :    hydro orbital   3 d accepted.
  | Species O :    hydro orbital   3 d accepted.
  | Species O :    hydro orbital   4 f accepted.
  | Species O :    hydro orbital   5 g accepted.
 
  Basis size parameters after reduction:
  | Total number of radial functions:       40
  | Total number of basis functions :      840
 
  Testing on-site integration grid accuracy.
  |  Species  Function  <phi|h_atom|phi> (log., in eV)  <phi|h_atom|phi> (rad., in eV)
           1        1                 -6.4869821809                 -6.4870742227
           1        2                 13.5044133542                 13.5041049177
           1        3                 32.7854418792                 32.7779770519
           1        4                 33.7995553101                 33.7152624900 ***
           1        5                 28.8558651799                 28.8558652046
           1        6                 59.6361831893                 59.6362535845
           1        7                 60.2733718049                 60.2733715484
           2        8               -273.2358277112               -273.2358261765
           2        9                -10.7624923123                -10.7625144012
           2       10                 17.4634079027                 17.4634252127
           2       11                 53.0363661832                 53.0366180446
           2       12                 15.0981351967                 15.0981317714
           2       13                  3.8522181899                  3.8522770949
           2       14                 12.1181835661                 12.1206868578
           2       15                 29.4320778347                 29.4320780959
           2       16                 54.8753777694                 54.8752901936
           2       17                 59.3533975461                 59.3533974833
           2       18                 93.4537491195                 93.4537492066
           3       19               -384.4698526889               -384.4698499465
           3       20                 12.5691022037                 12.5690910168
           3       21                -15.7489097511                -15.7489165588
           3       22                 27.0978334940                 27.0985589490
           3       23                 18.5949116966                 18.5949125562
           3       24                  1.2212828291                  1.2212855301
           3       25                 13.4428926797                 13.4434051125
           3       26                 35.9380614500                 35.9380613666
           3       27                 39.9231532098                 39.9231654735
           3       28                 72.9957335806                 72.9957336833
           3       29                116.4231321147                116.4231321431
           4       30               -514.2564144315               -514.2564099626
           4       31                 15.1726678541                 15.1726530877
           4       32                -21.5447785304                -21.5447874973
           4       33                 14.4944558459                 14.4944698284
           4       34                 20.8882174564                 20.8882178906
           4       35                 -2.4850315908                 -2.4850322289
           4       36                 13.8600193195                 13.8599826966
           4       37                 45.8243383616                 45.8243383675
           4       38                 52.1840606465                 52.1840622440
           4       39                 85.4074185510                 85.4074185819
           4       40                142.0983717302                142.0983717339
 * Note: Onsite integrals marked "***" above are less accurate than
 * onsite_accuracy_threshold =    0.03000 eV. Usually, this is harmless.
 * When in doubt, tighten the "radial" and/or "radial_multiplier" flags to check.

  Preparing densities etc. for the partition functions (integrals / Hartree potential).

  Preparations completed.
  max(cpu_time)          :      0.244 s.
  Wall clock time (cpu1) :      0.240 s.
------------------------------------------------------------

------------------------------------------------------------
          Begin self-consistency loop: Initialization.

          Date     :  20170309, Time     :  185326.514
------------------------------------------------------------

  Initializing index lists of integration centers etc. from given atomic structure:
  | Number of centers in hartree potential         :        32
  | Number of centers in hartree multipole         :        32
  | Number of centers in electron density summation:        32
  | Number of centers in basis integrals           :        32
  | Number of centers in integrals                 :        32
  | Number of centers in hamiltonian               :        32
  Using modified Scalapack Eigenvalue solver (ELPA)
  * Using 32 tasks for Scalapack Eigenvalue solver.
  Detailed listing of tasks and assigned k-points:
  (for non-periodic systems, the "k-point" denotes an internal label only)
   Task     0 k-point     1 on eos195
   Task     1 k-point     1 on eos195
   Task     2 k-point     1 on eos195
   Task     3 k-point     1 on eos195
   Task     4 k-point     1 on eos195
   Task     5 k-point     1 on eos195
   Task     6 k-point     1 on eos195
   Task     7 k-point     1 on eos195
   Task     8 k-point     1 on eos195
   Task     9 k-point     1 on eos195
   Task    10 k-point     1 on eos195
   Task    11 k-point     1 on eos195
   Task    12 k-point     1 on eos195
   Task    13 k-point     1 on eos195
   Task    14 k-point     1 on eos195
   Task    15 k-point     1 on eos195
   Task    16 k-point     1 on eos195
   Task    17 k-point     1 on eos195
   Task    18 k-point     1 on eos195
   Task    19 k-point     1 on eos195
   Task    20 k-point     1 on eos195
   Task    21 k-point     1 on eos195
   Task    22 k-point     1 on eos195
   Task    23 k-point     1 on eos195
   Task    24 k-point     1 on eos195
   Task    25 k-point     1 on eos195
   Task    26 k-point     1 on eos195
   Task    27 k-point     1 on eos195
   Task    28 k-point     1 on eos195
   Task    29 k-point     1 on eos195
   Task    30 k-point     1 on eos195
   Task    31 k-point     1 on eos195
  Tasks:    32 split into      8 X      4 BLACS grid
  Calculating blocksize based on n_basis =          840 max_nprow =            8 max_npcol =            4
  Scalapack blocksize set to:           16
  Required Scalapack workspace - INTEGER:            1 REAL:             1
  Partitioning the integration grid into batches with parallel hashing+maxmin method.
  | Number of batches:     5026
  | Maximal batch size:     200
  | Minimal batch size:      57
  | Average batch size:     105.000
  | Standard deviation of batch sizes:      33.578

  Integration load balanced across    32 MPI tasks.
  Work distribution over tasks is as follows:
  Task     0 has      16564 integration points.
  Task     1 has      16478 integration points.
  Task     2 has      16491 integration points.
  Task     3 has      16424 integration points.
  Task     4 has      16521 integration points.
  Task     5 has      16582 integration points.
  Task     6 has      16436 integration points.
  Task     7 has      16440 integration points.
  Task     8 has      16566 integration points.
  Task     9 has      16439 integration points.
  Task    10 has      16568 integration points.
  Task    11 has      16496 integration points.
  Task    12 has      16573 integration points.
  Task    13 has      16481 integration points.
  Task    14 has      16566 integration points.
  Task    15 has      16434 integration points.
  Task    16 has      16486 integration points.
  Task    17 has      16441 integration points.
  Task    18 has      16456 integration points.
  Task    19 has      16473 integration points.
  Task    20 has      16430 integration points.
  Task    21 has      16432 integration points.
  Task    22 has      16474 integration points.
  Task    23 has      16468 integration points.
  Task    24 has      16559 integration points.
  Task    25 has      16556 integration points.
  Task    26 has      16458 integration points.
  Task    27 has      16440 integration points.
  Task    28 has      16489 integration points.
  Task    29 has      16461 integration points.
  Task    30 has      16561 integration points.
  Task    31 has      16485 integration points.
  Initializing partition tables, free-atom densities, potentials, etc. across the integration grid (initialize_grid_storage).
  | initialize_grid_storage: Actual outermost partition radius vs. multipole_radius_free
  | (-- VB: in principle, multipole_radius_free should be larger, hence this output)
  | Species        1: Confinement radius =              6.000000000000000 AA, multipole_radius_free =              6.071692442739658 AA.
  | Species        1: outer_partition_radius set to              6.071692442739658 AA .
  | Species        2: Confinement radius =              6.000000000000000 AA, multipole_radius_free =              6.029870734432609 AA.
  | Species        2: outer_partition_radius set to              6.029870734432609 AA .
  | Species        3: Confinement radius =              6.000000000000000 AA, multipole_radius_free =              6.058726835495003 AA.
  | Species        3: outer_partition_radius set to              6.058726835495003 AA .
  | Species        4: Confinement radius =              6.000000000000000 AA, multipole_radius_free =              6.064445521808699 AA.
  | Species        4: outer_partition_radius set to              6.064445521808699 AA .
  | Original list of interatomic distances with          32 x         32 entries is created.
  | Net number of integration points:   527728
  | of which are non-zero points    :   409242
  Obtaining max. number of non-zero basis functions in each batch (get_n_compute_maxes).
  | Maximal number of non-zero basis functions:      807 in task     0
  | Maximal number of non-zero basis functions:      824 in task     1
  | Maximal number of non-zero basis functions:      831 in task     2
  | Maximal number of non-zero basis functions:      823 in task     3
  | Maximal number of non-zero basis functions:      832 in task     4
  | Maximal number of non-zero basis functions:      821 in task     5
  | Maximal number of non-zero basis functions:      828 in task     6
  | Maximal number of non-zero basis functions:      814 in task     7
  | Maximal number of non-zero basis functions:      833 in task     8
  | Maximal number of non-zero basis functions:      824 in task     9
  | Maximal number of non-zero basis functions:      833 in task    10
  | Maximal number of non-zero basis functions:      818 in task    11
  | Maximal number of non-zero basis functions:      821 in task    12
  | Maximal number of non-zero basis functions:      821 in task    13
  | Maximal number of non-zero basis functions:      817 in task    14
  | Maximal number of non-zero basis functions:      826 in task    15
  | Maximal number of non-zero basis functions:      818 in task    16
  | Maximal number of non-zero basis functions:      828 in task    17
  | Maximal number of non-zero basis functions:      823 in task    18
  | Maximal number of non-zero basis functions:      832 in task    19
  | Maximal number of non-zero basis functions:      832 in task    20
  | Maximal number of non-zero basis functions:      830 in task    21
  | Maximal number of non-zero basis functions:      821 in task    22
  | Maximal number of non-zero basis functions:      826 in task    23
  | Maximal number of non-zero basis functions:      829 in task    24
  | Maximal number of non-zero basis functions:      808 in task    25
  | Maximal number of non-zero basis functions:      823 in task    26
  | Maximal number of non-zero basis functions:      826 in task    27
  | Maximal number of non-zero basis functions:      832 in task    28
  | Maximal number of non-zero basis functions:      817 in task    29
  | Maximal number of non-zero basis functions:      819 in task    30
  | Maximal number of non-zero basis functions:      825 in task    31
  Selecting the method for density update.
  Loop over occupied states selected for charge density update.
  Integrating Hamiltonian matrix: batch-based integration.
  Time summed over all CPUs for integration: real work       25.798 s, elapsed       27.174 s
  Integrating overlap matrix.
  Time summed over all CPUs for integration: real work       16.121 s, elapsed       16.903 s
  Deallocating overlap matrix.

  Updating Kohn-Sham eigenvalues, eigenvectors, occupation numbers, and Fermi level.
  Solving generalized eigenproblem
  Solving real symmetric generalised eigenvalue problem by standard ScaLAPACK.
  Transforming overlap matrix with ScaLAPACK and checking for singularities.
  : Overlap matrix is nonsingular, using Cholesky decomposition
  | Lowest eigenvalue:  0.819583E-04
  Factoring overlap matrix with Cholesky decomposition
  Using Cholesky factor for transformation
  Using 1-stage real ELPA solver
  Determining occupation numbers for Kohn-Sham eigenstates.
  | Chemical potential (Fermi level) in eV                 : -.95073002E+01
  | Error in electron count due to remaining E_F inaccuracy: 0.00000000E+00
  | Maximum occupation number of highest empty state:  0.00E+00

  Writing Kohn-Sham eigenvalues.

  State    Occupation    Eigenvalue [Ha]    Eigenvalue [eV]
      1       2.00000         -18.974398         -516.31964
      2       2.00000         -18.974026         -516.30952
      3       2.00000         -18.973321         -516.29032
      4       2.00000         -14.255462         -387.91086
      5       2.00000         -14.255016         -387.89871
      6       2.00000         -14.250888         -387.78639
      7       2.00000         -10.171642         -276.78447
      8       2.00000         -10.170969         -276.76614
      9       2.00000         -10.170920         -276.76482
     10       2.00000         -10.166552         -276.64597
     11       2.00000         -10.149297         -276.17642
     12       2.00000         -10.147020         -276.11446
     13       2.00000         -10.136058         -275.81617
     14       2.00000         -10.133843         -275.75589
     15       2.00000         -10.132908         -275.73044
     16       2.00000          -1.134754          -30.87822
     17       2.00000          -1.130444          -30.76095
     18       2.00000          -1.129527          -30.73600
     19       2.00000          -1.018072          -27.70315
     20       2.00000          -1.013011          -27.56544
     21       2.00000          -1.000660          -27.22934
     22       2.00000          -0.886721          -24.12891
     23       2.00000          -0.877763          -23.88513
     24       2.00000          -0.842099          -22.91467
     25       2.00000          -0.818730          -22.27877
     26       2.00000          -0.776686          -21.13470
     27       2.00000          -0.762825          -20.75751
     28       2.00000          -0.702295          -19.11041
     29       2.00000          -0.694610          -18.90131
     30       2.00000          -0.666828          -18.14531
     31       2.00000          -0.639970          -17.41446
     32       2.00000          -0.622612          -16.94214
     33       2.00000          -0.615294          -16.74301
     34       2.00000          -0.604958          -16.46174
     35       2.00000          -0.592632          -16.12634
     36       2.00000          -0.576807          -15.69573
     37       2.00000          -0.565056          -15.37596
     38       2.00000          -0.561678          -15.28402
     39       2.00000          -0.558306          -15.19229
     40       2.00000          -0.551460          -15.00600
     41       2.00000          -0.550525          -14.98056
     42       2.00000          -0.544121          -14.80628
     43       2.00000          -0.536921          -14.61036
     44       2.00000          -0.528355          -14.37727
     45       2.00000          -0.520743          -14.17015
     46       2.00000          -0.515878          -14.03775
     47       2.00000          -0.510887          -13.90193
     48       2.00000          -0.499487          -13.59173
     49       2.00000          -0.497043          -13.52523
     50       2.00000          -0.484403          -13.18128
     51       2.00000          -0.479259          -13.04129
     52       2.00000          -0.470567          -12.80477
     53       2.00000          -0.416274          -11.32739
     54       2.00000          -0.410191          -11.16186
     55       2.00000          -0.402731          -10.95886
     56       2.00000          -0.384661          -10.46717
     57       2.00000          -0.381190          -10.37271
     58       2.00000          -0.377990          -10.28562
     59       0.00000          -0.168347           -4.58095
     60       0.00000          -0.162544           -4.42304
     61       0.00000          -0.155965           -4.24401
     62       0.00000          -0.084306           -2.29409
     63       0.00000          -0.069269           -1.88490
     64       0.00000          -0.066347           -1.80540
     65       0.00000          -0.050470           -1.37336
     66       0.00000          -0.040883           -1.11249
     67       0.00000          -0.039696           -1.08018
     68       0.00000          -0.030377           -0.82661
     69       0.00000          -0.028949           -0.78775
     70       0.00000          -0.023438           -0.63778
     71       0.00000          -0.021583           -0.58730
     72       0.00000          -0.018428           -0.50144
     73       0.00000          -0.012054           -0.32800
     74       0.00000          -0.007986           -0.21731
     75       0.00000          -0.006163           -0.16771
     76       0.00000          -0.000089           -0.00241
     77       0.00000           0.002655            0.07225
     78       0.00000           0.006311            0.17172
     79       0.00000           0.012069            0.32842
     80       0.00000           0.017202            0.46810
     81       0.00000           0.024439            0.66502
     82       0.00000           0.028413            0.77315
     83       0.00000           0.035626            0.96943
     84       0.00000           0.043785            1.19145
     85       0.00000           0.048216            1.31203
     86       0.00000           0.052392            1.42565
     87       0.00000           0.058040            1.57936
     88       0.00000           0.061843            1.68285
     89       0.00000           0.066635            1.81322
     90       0.00000           0.073214            1.99226
     91       0.00000           0.082352            2.24090
     92       0.00000           0.084340            2.29499
     93       0.00000           0.089427            2.43344
     94       0.00000           0.094559            2.57308
     95       0.00000           0.096899            2.63675
     96       0.00000           0.100360            2.73094
     97       0.00000           0.111659            3.03840
     98       0.00000           0.114933            3.12750
     99       0.00000           0.116373            3.16668
    100       0.00000           0.127830            3.47844
    101       0.00000           0.133388            3.62967
    102       0.00000           0.135873            3.69730
    103       0.00000           0.141547            3.85168
    104       0.00000           0.144646            3.93602
    105       0.00000           0.149170            4.05912
    106       0.00000           0.149637            4.07182
    107       0.00000           0.152087            4.13851
    108       0.00000           0.163975            4.46198
    109       0.00000           0.168057            4.57307
    110       0.00000           0.176630            4.80635
    111       0.00000           0.180125            4.90144
    112       0.00000           0.186302            5.06952
    113       0.00000           0.186628            5.07840
    114       0.00000           0.193812            5.27388
    115       0.00000           0.197235            5.36704
    116       0.00000           0.202634            5.51394
    117       0.00000           0.209794            5.70879
    118       0.00000           0.213985            5.82284
    119       0.00000           0.215546            5.86530
    120       0.00000           0.219614            5.97601
    121       0.00000           0.223260            6.07522
    122       0.00000           0.224659            6.11327
    123       0.00000           0.238288            6.48415
    124       0.00000           0.240833            6.55340
    125       0.00000           0.246909            6.71874
    126       0.00000           0.254500            6.92531
    127       0.00000           0.259968            7.07408
    128       0.00000           0.265195            7.21632
    129       0.00000           0.271952            7.40019

  Highest occupied state (VBM) at    -10.28562464 eV
  | Occupation number:      2.00000000

  Lowest unoccupied state (CBM) at    -4.58094922 eV
  | Occupation number:      0.00000000

  Overall HOMO-LUMO gap:      5.70467542 eV.
  Calculating total energy contributions from superposition of free atom densities.

  Total energy components:
  | Sum of eigenvalues            :        -437.83468477 Ha      -11914.08795464 eV
  | XC energy correction          :         -98.82634340 Ha       -2689.20162889 eV
  | XC potential correction       :         127.03172794 Ha        3456.70919256 eV
  | Free-atom electrostatic energy:        -333.64389452 Ha       -9078.91229982 eV
  | Hartree energy correction     :           0.00000000 Ha           0.00000000 eV
  | MBD@rsSCS energy              :           0.00000000 Ha           0.00000000 eV
  | Entropy correction            :          -0.00000000 Ha          -0.00000000 eV
  | ---------------------------
  | Total energy                  :        -743.27319475 Ha      -20225.49269078 eV
  | Total energy, T -> 0          :        -743.27319475 Ha      -20225.49269078 eV  <-- do not rely on this value for anything but (periodic) metals
  | Electronic free energy        :        -743.27319475 Ha      -20225.49269078 eV

  Derived energy quantities:
  | Kinetic energy                :         735.17309442 Ha       20005.07774640 eV
  | Electrostatic energy          :       -1379.61994577 Ha      -37541.36880829 eV
  | Energy correction for multipole
  | error in Hartree potential    :           0.00000000 Ha           0.00000000 eV
  | Sum of eigenvalues per atom                           :        -372.31524858 eV
  | Total energy (T->0) per atom                          :        -632.04664659 eV  <-- do not rely on this value for anything but (periodic) metals
  | Electronic free energy per atom                       :        -632.04664659 eV
  Initialize hartree_potential_storage
  Max. number of atoms included in rho_multipole:           32

  End scf initialization - timings             :  max(cpu_time)    wall_clock(cpu1)
  | Time for scf. initialization               :        2.152 s           2.152 s
  | Boundary condition initialization          :        0.004 s           0.000 s
  | Integration                                :        1.400 s           1.399 s
  | Solution of K.-S. eqns.                    :        0.076 s           0.075 s
  | Grid partitioning                          :        0.272 s           0.271 s
  | Preloading free-atom quantities on grid    :        0.028 s           0.028 s
  | Free-atom superposition energy             :        0.044 s           0.042 s
  | Total energy evaluation                    :        0.000 s           0.001 s
------------------------------------------------------------

------------------------------------------------------------
          Begin self-consistency iteration #    1

  Date     :  20170309, Time     :  185328.667
------------------------------------------------------------
  Evaluating new KS density.
  Integration grid: deviation in total charge (<rho> - N_e) =   1.421085E-14
  Pulay mixing of updated and previous charge densities.

  Evaluating partitioned Hartree potential by multipole expansion.
  | Analytical far-field extrapolation by fixed multipoles:
  | Hartree multipole sum: apparent total charge =   0.705340E-05
  Summing up the Hartree potential.
  Time summed over all CPUs for potential: real work        9.692 s, elapsed       10.054 s
  | RMS charge density error from multipole expansion :   0.108099E-01

  Integrating Hamiltonian matrix: batch-based integration.
  Time summed over all CPUs for integration: real work       25.874 s, elapsed       27.293 s

  Updating Kohn-Sham eigenvalues, eigenvectors, occupation numbers, and Fermi level.
  Solving generalized eigenproblem
  Solving real symmetric generalised eigenvalue problem by standard ScaLAPACK.
  Using Cholesky factor for transformation
  Using 2-stage real ELPA solver
  K-Point:    1, Trafo times: 1-stage=     0.021 s, 2-stage=     0.019 s ==> Using 2-stage solver
  Determining occupation numbers for Kohn-Sham eigenstates.
  | Chemical potential (Fermi level) in eV                 : -.43958955E+01
  | Error in electron count due to remaining E_F inaccuracy: 0.00000000E+00
  | Maximum occupation number of highest empty state:  0.00E+00

  Writing Kohn-Sham eigenvalues.

  State    Occupation    Eigenvalue [Ha]    Eigenvalue [eV]
      1       2.00000         -18.626764         -506.86004
      2       2.00000         -18.612526         -506.47260
      3       2.00000         -18.610730         -506.42373
      4       2.00000         -13.994962         -380.82230
      5       2.00000         -13.988484         -380.64601
      6       2.00000         -13.987513         -380.61958
      7       2.00000         -10.060611         -273.76314
      8       2.00000         -10.054510         -273.59713
      9       2.00000         -10.046072         -273.36752
     10       2.00000          -9.974763         -271.42710
     11       2.00000          -9.953783         -270.85621
     12       2.00000          -9.891014         -269.14818
     13       2.00000          -9.844102         -267.87164
     14       2.00000          -9.839638         -267.75018
     15       2.00000          -9.835730         -267.64383
     16       2.00000          -0.969140          -26.37164
     17       2.00000          -0.960833          -26.14560
     18       2.00000          -0.951666          -25.89616
     19       2.00000          -0.868130          -23.62302
     20       2.00000          -0.861631          -23.44617
     21       2.00000          -0.855098          -23.26839
     22       2.00000          -0.735255          -20.00732
     23       2.00000          -0.729764          -19.85788
     24       2.00000          -0.683096          -18.58798
     25       2.00000          -0.674302          -18.34870
     26       2.00000          -0.636698          -17.32543
     27       2.00000          -0.623334          -16.96179
     28       2.00000          -0.576020          -15.67430
     29       2.00000          -0.560368          -15.24840
     30       2.00000          -0.539194          -14.67222
     31       2.00000          -0.505895          -13.76609
     32       2.00000          -0.490714          -13.35302
     33       2.00000          -0.470203          -12.79486
     34       2.00000          -0.459330          -12.49900
     35       2.00000          -0.448221          -12.19672
     36       2.00000          -0.440616          -11.98976
     37       2.00000          -0.431179          -11.73298
     38       2.00000          -0.417496          -11.36064
     39       2.00000          -0.413829          -11.26085
     40       2.00000          -0.398406          -10.84117
     41       2.00000          -0.392936          -10.69233
     42       2.00000          -0.390937          -10.63794
     43       2.00000          -0.382138          -10.39850
     44       2.00000          -0.374456          -10.18948
     45       2.00000          -0.372449          -10.13485
     46       2.00000          -0.368107          -10.01671
     47       2.00000          -0.359996           -9.79599
     48       2.00000          -0.355119           -9.66328
     49       2.00000          -0.353044           -9.60682
     50       2.00000          -0.347773           -9.46339
     51       2.00000          -0.334300           -9.09677
     52       2.00000          -0.326515           -8.88493
     53       2.00000          -0.243259           -6.61940
     54       2.00000          -0.239706           -6.52273
     55       2.00000          -0.232414           -6.32430
     56       2.00000          -0.216495           -5.89114
     57       2.00000          -0.206764           -5.62633
     58       2.00000          -0.203944           -5.54961
     59       0.00000          -0.061023           -1.66051
     60       0.00000          -0.049658           -1.35126
     61       0.00000          -0.036989           -1.00652
     62       0.00000          -0.034999           -0.95237
     63       0.00000          -0.023115           -0.62899
     64       0.00000          -0.021113           -0.57450
     65       0.00000           0.001894            0.05154
     66       0.00000           0.003556            0.09677
     67       0.00000           0.010412            0.28333
     68       0.00000           0.017893            0.48690
     69       0.00000           0.024065            0.65483
     70       0.00000           0.031785            0.86492
     71       0.00000           0.037530            1.02125
     72       0.00000           0.044299            1.20543
     73       0.00000           0.046024            1.25237
     74       0.00000           0.052887            1.43913
     75       0.00000           0.059559            1.62069
     76       0.00000           0.060196            1.63802
     77       0.00000           0.063136            1.71801
     78       0.00000           0.079892            2.17396
     79       0.00000           0.082930            2.25665
     80       0.00000           0.089345            2.43121
     81       0.00000           0.095897            2.60949
     82       0.00000           0.099566            2.70934
     83       0.00000           0.102161            2.77993
     84       0.00000           0.107973            2.93809
     85       0.00000           0.114922            3.12719
     86       0.00000           0.119770            3.25911
     87       0.00000           0.124649            3.39188
     88       0.00000           0.125840            3.42429
     89       0.00000           0.131256            3.57166
     90       0.00000           0.137612            3.74461
     91       0.00000           0.143875            3.91505
     92       0.00000           0.154098            4.19321
     93       0.00000           0.162320            4.41695
     94       0.00000           0.166361            4.52692
     95       0.00000           0.166839            4.53993
     96       0.00000           0.173880            4.73152
     97       0.00000           0.175313            4.77050
     98       0.00000           0.180588            4.91405
     99       0.00000           0.182473            4.96534
    100       0.00000           0.192229            5.23080
    101       0.00000           0.197180            5.36554
    102       0.00000           0.197978            5.38726
    103       0.00000           0.200643            5.45976
    104       0.00000           0.208772            5.68096
    105       0.00000           0.214149            5.82729
    106       0.00000           0.216146            5.88163
    107       0.00000           0.223388            6.07871
    108       0.00000           0.226863            6.17325
    109       0.00000           0.233388            6.35080
    110       0.00000           0.233710            6.35956
    111       0.00000           0.242454            6.59751
    112       0.00000           0.243393            6.62305
    113       0.00000           0.251508            6.84387
    114       0.00000           0.256774            6.98717
    115       0.00000           0.265212            7.21680
    116       0.00000           0.266828            7.26075
    117       0.00000           0.272199            7.40690
    118       0.00000           0.279525            7.60627
    119       0.00000           0.284207            7.73367
    120       0.00000           0.286073            7.78445
    121       0.00000           0.291237            7.92496
    122       0.00000           0.296750            8.07497
    123       0.00000           0.303792            8.26659
    124       0.00000           0.311726            8.48249
    125       0.00000           0.321337            8.74403
    126       0.00000           0.330329            8.98870
    127       0.00000           0.332029            9.03496
    128       0.00000           0.336984            9.16981
    129       0.00000           0.347666            9.46047

  Highest occupied state (VBM) at     -5.54961066 eV
  | Occupation number:      2.00000000

  Lowest unoccupied state (CBM) at    -1.66051152 eV
  | Occupation number:      0.00000000

  Overall HOMO-LUMO gap:      3.88909914 eV.

  Total energy components:
  | Sum of eigenvalues            :        -417.44394120 Ha      -11359.22759108 eV
  | XC energy correction          :        -100.74968615 Ha       -2741.53844812 eV
  | XC potential correction       :         129.52484598 Ha        3524.55038617 eV
  | Free-atom electrostatic energy:        -333.64389452 Ha       -9078.91229982 eV
  | Hartree energy correction     :         -20.39196465 Ha        -554.89359072 eV
  | MBD@rsSCS energy              :           0.00000000 Ha           0.00000000 eV
  | Entropy correction            :          -0.00000000 Ha          -0.00000000 eV
  | ---------------------------
  | Total energy                  :        -742.70464054 Ha      -20210.02154358 eV
  | Total energy, T -> 0          :        -742.70464054 Ha      -20210.02154358 eV  <-- do not rely on this value for anything but (periodic) metals
  | Electronic free energy        :        -742.70464054 Ha      -20210.02154358 eV

  Derived energy quantities:
  | Kinetic energy                :         744.00935881 Ha       20245.52473425 eV
  | Electrostatic energy          :       -1385.96431320 Ha      -37714.00782971 eV
  | Energy correction for multipole
  | error in Hartree potential    :          -0.04332540 Ha          -1.17894401 eV
  | Sum of eigenvalues per atom                           :        -354.97586222 eV
  | Total energy (T->0) per atom                          :        -631.56317324 eV  <-- do not rely on this value for anything but (periodic) metals
  | Electronic free energy per atom                       :        -631.56317324 eV

  Self-consistency convergence accuracy:
  | Change of charge density      :  0.9029E+00
  | Change of sum of eigenvalues  :  0.5549E+03 eV
  | Change of total energy        :  0.1547E+02 eV

  End self-consistency iteration #     1       :  max(cpu_time)    wall_clock(cpu1)
  | Time for this iteration                    :        1.768 s           1.767 s
[...]
   Multipole                     :  0.366647E+00 -0.678903E-01  0.353000E+00
   Pulay + GGA                   :  0.964518E+01 -0.151369E+01  0.857553E+01
   MBD@rsSCS                     :  0.105643E-01  0.172387E-01  0.198287E-01
   ----------------------------------------------------------------
   Total forces(  20)            : -0.925631E-02  0.197624E-01  0.207163E-01
  atom #   21
   Hellmann-Feynman              : -0.574150E-02  0.772215E-01  0.484853E-02
   Ionic forces                  :  0.000000E+00  0.000000E+00  0.000000E+00
   Multipole                     : -0.104764E-01 -0.400288E-01 -0.255551E-01
   Pulay + GGA                   :  0.213395E-01 -0.464480E-01  0.349000E-01
   MBD@rsSCS                     : -0.299882E-03 -0.843927E-03 -0.115956E-01
   ----------------------------------------------------------------
   Total forces(  21)            :  0.482175E-02 -0.100992E-01  0.259787E-02
  atom #   22
   Hellmann-Feynman              : -0.317705E-01  0.596144E-01 -0.154733E-01
   Ionic forces                  :  0.000000E+00  0.000000E+00  0.000000E+00
   Multipole                     :  0.365785E-02 -0.595569E-02 -0.100687E-01
   Pulay + GGA                   :  0.282612E-01 -0.576411E-01  0.210155E-01
   MBD@rsSCS                     :  0.599979E-02  0.268716E-02 -0.344805E-02
   ----------------------------------------------------------------
   Total forces(  22)            :  0.614840E-02 -0.129526E-02 -0.797461E-02
  atom #   23
   Hellmann-Feynman              : -0.104806E+01 -0.140008E+00  0.944045E-01
   Ionic forces                  :  0.000000E+00  0.000000E+00  0.000000E+00
   Multipole                     :  0.306799E+00 -0.460599E-01  0.464289E-01
   Pulay + GGA                   :  0.730973E+00  0.171070E+00 -0.133935E+00
   MBD@rsSCS                     :  0.174568E-01  0.216142E-01 -0.459807E-02
   ----------------------------------------------------------------
   Total forces(  23)            :  0.716668E-02  0.661560E-02  0.230054E-02
  atom #   24
   Hellmann-Feynman              :  0.560241E-01  0.158057E-01 -0.130322E-01
   Ionic forces                  :  0.000000E+00  0.000000E+00  0.000000E+00
   Multipole                     : -0.138135E-01  0.308421E-01  0.159126E-01
   Pulay + GGA                   : -0.359687E-01 -0.503401E-01 -0.998975E-02
   MBD@rsSCS                     :  0.994466E-02  0.188835E-02 -0.328943E-02
   ----------------------------------------------------------------
   Total forces(  24)            :  0.161866E-01 -0.180398E-02 -0.103987E-01
  atom #   25
   Hellmann-Feynman              :  0.195380E-01 -0.555753E-01 -0.207848E-01
   Ionic forces                  :  0.000000E+00  0.000000E+00  0.000000E+00
   Multipole                     : -0.717729E-03 -0.193801E-01  0.173362E-01
   Pulay + GGA                   : -0.778462E-02  0.781622E-01 -0.550535E-02
   MBD@rsSCS                     :  0.187852E-01  0.156157E-01 -0.332780E-02
   ----------------------------------------------------------------
   Total forces(  25)            :  0.298209E-01  0.188224E-01 -0.122817E-01
  atom #   26
   Hellmann-Feynman              :  0.419832E-01 -0.645940E-02 -0.284841E-01
   Ionic forces                  :  0.000000E+00  0.000000E+00  0.000000E+00
   Multipole                     : -0.306141E-01  0.717793E-02 -0.224489E-01
   Pulay + GGA                   : -0.140640E-01 -0.117220E-01  0.537172E-01
   MBD@rsSCS                     :  0.111340E-01  0.506826E-02  0.686358E-03
   ----------------------------------------------------------------
   Total forces(  26)            :  0.843910E-02 -0.593515E-02  0.347063E-02
  atom #   27
   Hellmann-Feynman              : -0.123936E+01 -0.103933E+01 -0.600080E+00
   Ionic forces                  :  0.000000E+00  0.000000E+00  0.000000E+00
   Multipole                     : -0.163570E+00  0.985237E-01 -0.941962E-01
   Pulay + GGA                   :  0.141105E+01  0.923419E+00  0.699021E+00
   MBD@rsSCS                     : -0.179925E-01  0.248891E-01  0.222061E-01
   ----------------------------------------------------------------
   Total forces(  27)            : -0.987828E-02  0.750684E-02  0.269512E-01
  atom #   28
   Hellmann-Feynman              :  0.218550E+01 -0.670925E-01  0.126574E+01
   Ionic forces                  :  0.000000E+00  0.000000E+00  0.000000E+00
   Multipole                     : -0.135947E+00  0.103077E-01 -0.143834E+00
   Pulay + GGA                   : -0.204685E+01  0.301721E-01 -0.111500E+01
   MBD@rsSCS                     : -0.249475E-01  0.178268E-01  0.144871E-02
   ----------------------------------------------------------------
   Total forces(  28)            : -0.222396E-01 -0.878595E-02  0.835855E-02
  atom #   29
   Hellmann-Feynman              : -0.477328E-01 -0.667981E-02  0.354933E-01
   Ionic forces                  :  0.000000E+00  0.000000E+00  0.000000E+00
   Multipole                     :  0.350660E-01 -0.616837E-02  0.165852E-01
   Pulay + GGA                   :  0.177298E-01  0.310855E-02 -0.624321E-01
   MBD@rsSCS                     : -0.160450E-02  0.125535E-01  0.253283E-02
   ----------------------------------------------------------------
   Total forces(  29)            :  0.345839E-02  0.281386E-02 -0.782074E-02
  atom #   30
   Hellmann-Feynman              : -0.476080E-01  0.952308E-02 -0.158112E-02
   Ionic forces                  :  0.000000E+00  0.000000E+00  0.000000E+00
   Multipole                     :  0.104581E-01  0.122807E-01  0.396880E-01
   Pulay + GGA                   :  0.437734E-01 -0.258761E-01 -0.418486E-01
   MBD@rsSCS                     : -0.630150E-02  0.258700E-02 -0.789714E-03
   ----------------------------------------------------------------
   Total forces(  30)            :  0.322003E-03 -0.148530E-02 -0.453141E-02
  atom #   31
   Hellmann-Feynman              : -0.257408E-01  0.224270E-01 -0.478086E-01
   Ionic forces                  :  0.000000E+00  0.000000E+00  0.000000E+00
   Multipole                     :  0.217024E-01  0.289655E-01  0.161011E-02
   Pulay + GGA                   : -0.148583E-01 -0.485063E-01  0.513645E-01
   MBD@rsSCS                     : -0.147932E-01  0.501725E-02  0.516495E-02
   ----------------------------------------------------------------
   Total forces(  31)            : -0.336900E-01  0.790344E-02  0.103310E-01
  atom #   32
   Hellmann-Feynman              : -0.295986E-01  0.862266E-04 -0.392332E-01
   Ionic forces                  :  0.000000E+00  0.000000E+00  0.000000E+00
   Multipole                     : -0.166236E-02 -0.282813E-01 -0.365216E-04
   Pulay + GGA                   :  0.344627E-01  0.270048E-01  0.339289E-01
   MBD@rsSCS                     : -0.167603E-01  0.154849E-01  0.423781E-02
   ----------------------------------------------------------------
   Total forces(  32)            : -0.135585E-01  0.142946E-01 -0.110304E-02

  Removing unitary transformations (pure translations, rotations) from forces on atoms.
  Atomic forces before filtering:
  | Net force on center of mass :  -0.366203E-03 -0.800436E-04  0.334069E-03 eV/A
  | Net torque on center of mass:  -0.323441E-02 -0.138794E-02  0.594437E-03 eV
  Atomic forces after filtering:
  | Net force on center of mass :   0.111504E-16 -0.306636E-16  0.114988E-16 eV/A
  | Net torque on center of mass:  -0.430554E-16  0.210206E-16  0.634307E-16 eV

  Energy and forces in a compact form:
  | Total energy uncorrected      :         -0.202088221375865E+05 eV
  | Total energy corrected        :         -0.202088221375865E+05 eV  <-- do not rely on this value for anything but (periodic) metals
  | Electronic free energy        :         -0.202088221375865E+05 eV
  Total atomic forces (unitary forces cleaned) [eV/Ang]:
  |   1         -0.591592789727399E-02         -0.690908519851358E-02          0.198420109459917E-02
  |   2         -0.590745191514218E-02         -0.244803600438228E-01          0.169902710254078E-01
  |   3         -0.127571930686554E-02         -0.384473529816564E-03          0.805209966754487E-03
  |   4         -0.468853386335169E-02         -0.127568518572628E-01          0.175474448235387E-01
  |   5          0.728815215341185E-02          0.447362581262508E-02         -0.636272734991553E-03
  |   6          0.137053164654231E-02          0.286379539227273E-03          0.762089425536806E-02
  |   7         -0.979582811251992E-02         -0.290486729677273E-01         -0.145354643032606E-03
  |   8          0.159646202240132E-02         -0.125574354479619E-01         -0.184160460563992E-02
  |   9         -0.244760184775661E-01         -0.904483133164437E-02         -0.260316453773758E-01
  |  10         -0.111060792976124E-01          0.192920641867119E-01          0.316965919867832E-02
  |  11         -0.115350042402503E-01         -0.189845024887766E-01          0.847956368526114E-02
  |  12         -0.469681507689761E-02          0.600968838371761E-02          0.284166240908561E-02
  |  13          0.398756484605755E-02         -0.609852476719772E-02          0.254602372972849E-02
  |  14          0.103505013213395E-01         -0.139421496077388E-01         -0.141752327408889E-01
  |  15          0.944748112741748E-02         -0.367734847829619E-02         -0.950340585408285E-02
  |  16          0.170027744118019E-01         -0.650452174625779E-02          0.287197102521258E-03
  |  17          0.498457895045862E-02          0.435529671851638E-02         -0.375264617743181E-01
  |  18          0.258919247185018E-01          0.232050364171081E-01         -0.112995230156572E-01
  |  19          0.972140344118192E-02          0.384341077906971E-01          0.880126982312464E-02
  |  20         -0.926530817376323E-02          0.198022911060749E-01          0.206906532826979E-01
  |  21          0.484028068637451E-02         -0.101409545094322E-01          0.255727679423631E-02
  |  22          0.614898104866940E-02         -0.130497591809253E-02         -0.802959995428502E-02
  |  23          0.717498645914311E-02          0.661678123208229E-02          0.227974285629271E-02
  |  24          0.161862640764245E-01         -0.178874000398140E-02         -0.104279769712987E-01
  |  25          0.298332912421861E-01          0.188308762956779E-01         -0.122827050766500E-01
  |  26          0.845399615865938E-02         -0.595107667148243E-02          0.344904088850313E-02
  |  27         -0.988600176396010E-02          0.752478040975467E-02          0.269041403152371E-01
  |  28         -0.222425615472000E-01         -0.878974833059949E-02          0.830030345900118E-02
  |  29          0.344433704210833E-02          0.284846067201410E-02         -0.786676062082284E-02
  |  30          0.312173973064801E-03         -0.148276365123166E-02         -0.460189309811784E-02
  |  31         -0.336919786917246E-01          0.788668094677424E-02          0.102608449266161E-01
  |  32         -0.135524569616168E-01          0.142809470388545E-01         -0.114696316949091E-02

  ------------------------------------ 
  Start decomposition of the XC Energy 
  ------------------------------------ 
  Hartree-Fock part   :          0.000000000 Ha              0.000000000 eV
  ------------------------------------ 
  X Energy            :        -96.984516231 Ha          -2639.082961714 eV
  C Energy GGA        :         -3.872035973 Ha           -105.363459672 eV
  Total XC Energy     :       -100.856552205 Ha          -2744.446421386 eV
  LDA X and C from self-consistent density 
  X Energy LDA        :        -88.007124429 Ha          -2394.795701570 eV
  C Energy LDA        :         -7.533088092 Ha           -204.985756539 eV
  ------------------------------------ 
  End decomposition of the XC Energy 
  ------------------------------------ 
   
  ESP charge fitting starts.
  | Calculation :  00000001  of  00000001
  | Full density
  Computing multipole expansion for total density.
  Generating points for esp charges.
  Partitioning the integration grid into batches with parallel hashing+maxmin method.
  | Number of batches:     3887
  | Maximal batch size:     200
  | Minimal batch size:      53
  | Average batch size:     125.334
  | Standard deviation of batch sizes:      18.144

  Integration load balanced across    32 MPI tasks.
  Work distribution over tasks is as follows:
  Initializing partition tables, free-atom densities, potentials, etc. across the integration grid (initialize_grid_storage).
  | Original list of interatomic distances with          32 x         32 entries is created.
  | Net number of integration points:   487174
  | of which are non-zero points    :   487174
  Summing up potential from multipole expanded  density.
  Summing up the Hartree potential.
  Time summed over all CPUs for potential: real work        6.396 s, elapsed        6.599 s
  Fitting esp charges to potential.
  |
  | ESP charges fitted to the electrostatic potential :
  |
  | Atom         1: C, ESP charge:      0.74650536
  |
  | Atom         2: C, ESP charge:     -0.69714719
  |
  | Atom         3: O, ESP charge:      0.57192903
  |
  | Atom         4: H, ESP charge:     -0.20676107
  |
  | Atom         5: H, ESP charge:     -0.20922690
  |
  | Atom         6: H, ESP charge:     -0.19250671
  |
  | Atom         7: N, ESP charge:      0.28892440
  |
  | Atom         8: C, ESP charge:     -0.03697261
  |
  | Atom         9: C, ESP charge:     -0.50788239
  |
  | Atom        10: O, ESP charge:      0.52647625
  |
  | Atom        11: H, ESP charge:     -0.21125370
  |
  | Atom        12: H, ESP charge:     -0.12740616
  |
  | Atom        13: C, ESP charge:      0.51338517
  |
  | Atom        14: H, ESP charge:     -0.12853230
  |
  | Atom        15: H, ESP charge:     -0.14330903
  |
  | Atom        16: H, ESP charge:     -0.18046140
  |
  | Atom        17: N, ESP charge:      0.52562196
  |
  | Atom        18: C, ESP charge:     -0.65325202
  |
  | Atom        19: C, ESP charge:     -0.18738915
  |
  | Atom        20: O, ESP charge:      0.50298417
  |
  | Atom        21: H, ESP charge:     -0.26653067
  |
  | Atom        22: H, ESP charge:     -0.01043575
  |
  | Atom        23: C, ESP charge:      0.86785280
  |
  | Atom        24: H, ESP charge:     -0.22230190
  |
  | Atom        25: H, ESP charge:     -0.26558343
  |
  | Atom        26: H, ESP charge:     -0.19339994
  |
  | Atom        27: N, ESP charge:      0.22456115
  |
  | Atom        28: C, ESP charge:      0.55884391
  |
  | Atom        29: H, ESP charge:     -0.29919364
  |
  | Atom        30: H, ESP charge:     -0.20408112
  |
  | Atom        31: H, ESP charge:     -0.16997398
  |
  | Atom        32: H, ESP charge:     -0.21348312

  RRMS:       0.00520090

  Done.

------------------------------------------------------------------------------
  Final output of selected total energy values:

  The following output summarizes some interesting total energy values
  at the end of a run (AFTER all relaxation, molecular dynamics, etc.).

  | Total energy of the DFT / Hartree-Fock s.c.f. calculation      :         -20208.822137587 eV
  | Final zero-broadening corrected energy (caution - metals only) :         -20208.822137587 eV
  | For reference only, the value of 1 Hartree used in FHI-aims is :             27.211384500 eV

  Before relying on these values, please be sure to understand exactly which
  total energy value is referred to by a given number. Different objects may
  all carry the same name 'total energy'. Definitions:

  Total energy of the DFT / Hartree-Fock s.c.f. calculation:
  | Note that this energy does not include ANY quantities calculated after the
  | s.c.f. cycle, in particular not ANY RPA, MP2, etc. many-body perturbation terms.

  Final zero-broadening corrected energy:
  | For metallic systems only, a broadening of the occupation numbers at the Fermi
  | level can be extrapolated back to zero broadening by an electron-gas inspired
  | formula. For all systems that are not real metals, this value can be
  | meaningless and should be avoided.

------------------------------------------------------------------------------
  Methods described in the following list of references were used in this FHI-aims run.
  If you publish the results, please make sure to cite these reference if they apply.
  FHI-aims is an academic code, and for our developers (often, Ph.D. students
  and postdocs), scientific credit in the community is essential.
  Thank you for helping us!

  For any use of FHI-aims, please cite:

    Volker Blum, Ralf Gehrke, Felix Hanke, Paula Havu, Ville Havu,
    Xinguo Ren, Karsten Reuter, and Matthias Scheffler
    'Ab initio molecular simulations with numeric atom-centered orbitals'
    Computer Physics Communications 180, 2175-2196 (2009)
    http://dx.doi.org/10.1016/j.cpc.2009.06.022


  The scalable eigensolver library ELPA was used in your run.
  ELPA is essential especially for large systems on hundreds or thousands of CPUs.
  For ELPA, please cite:

    Andreas Marek, Volker Blum, Rainer Johanni, Ville Havu, Bruno Lang,
    Thomas Auckenthaler, Alexander Heinecke, Hans-Joachim Bungartz, and Hermann Lederer,
    'The ELPA Library - Scalable Parallel Eigenvalue Solutions
    for Electronic Structure Theory and Computational Science'
    The Journal of Physics: Condensed Matter 26, 213201 (2014).
    http://dx.doi.org/10.1088/0953-8984/26/21/213201


  For ELPA's efficient two-stage tridiagonalization used in your run, please cite:

    T. Auckenthaler, V. Blum, H.-J. Bungartz, T. Huckle, R. Johanni, L. Kraemer,
    B. Lang, H. Lederer, and P. R. Willems,
    'Parallel solution of partial symmetric eigenvalue problems'
    'from  electronic structure calculations'
    Parallel Computing 37, 783-794 (2011).
    http://dx.doi.org/10.1016/j.parco.2011.05.002


  For the real-space grid partitioning and parallelization used in this calculation, please cite:

    Ville Havu, Volker Blum, Paula Havu, and Matthias Scheffler,
    'Efficient O(N) integration for all-electron electronic structure calculation'
    'using numerically tabulated basis functions'
    Journal of Computational Physics 228, 8367-8379 (2009).
    http://dx.doi.org/10.1016/j.jcp.2009.08.008

  Of course, there are many other important community references, e.g., those cited in the
  above references. Our list is limited to references that describe implementations in the
  FHI-aims code. The reason is purely practical (length of this list) - please credit others as well.

------------------------------------------------------------
          Leaving FHI-aims.
          Date     :  20170309, Time     :  185402.721

          Computational steps:
          | Number of self-consistency cycles          :           14

          Detailed time accounting                     :  max(cpu_time)    wall_clock(cpu1)
          | Total time                                 :       37.050 s          37.269 s
          | Preparation time                           :        0.244 s           0.240 s
          | Grid partitioning                          :        0.272 s           0.271 s
          | Preloading free-atom quantities on grid    :        0.028 s           0.028 s
          | Free-atom superposition energy             :        0.044 s           0.042 s
          | Total time for integrations                :       13.541 s          13.519 s
          | Total time for solution of K.-S. equations :        0.532 s           0.500 s
          | Total time for density & force components  :       10.957 s          10.931 s
          | Total time for mixing                      :        0.124 s           0.105 s
          | Total time for Hartree multipole update    :        0.068 s           0.056 s
          | Total time for Hartree multipole sum       :        6.320 s           6.306 s
          | Total time for total energy evaluation     :        0.024 s           0.023 s

          Have a nice day.
------------------------------------------------------------
