  MPI-parallelism will be employed.
------------------------------------------------------------
          Invoking FHI-aims ...
          Version 150427
          Git rev.: 9dd23e0 BL: Update Version stamp
          Compiled on 2015/11/03 at 22:05:20 on host eos03.

          When using FHI-aims, please cite the following reference:

          Volker Blum, Ralf Gehrke, Felix Hanke, Paula Havu,
          Ville Havu, Xinguo Ren, Karsten Reuter, and Matthias Scheffler,
          'Ab Initio Molecular Simulations with Numeric Atom-Centered Orbitals: FHI-aims',
          Computer Physics Communications 180, 2175-2196 (2009)

          For any questions about FHI-aims, please visit the aimsclub website
          with its forums and wiki. Contributions to both the forums and the
          wiki are warmly encouraged - they are for you, and everyone is welcome there.

------------------------------------------------------------

  Date     :  20170309, Time     :  184555.412
  Time zero on CPU 1             :   0.260016000000000E+00  s.
  Internal wall clock time zero  :           258317155.412  s.

  Using       32 parallel tasks.
  Task        0 on host eos195 reporting.
  Task        1 on host eos195 reporting.
  Task        2 on host eos195 reporting.
  Task        3 on host eos195 reporting.
  Task        4 on host eos195 reporting.
  Task        5 on host eos195 reporting.
  Task        6 on host eos195 reporting.
  Task        7 on host eos195 reporting.
  Task        8 on host eos195 reporting.
  Task        9 on host eos195 reporting.
  Task       10 on host eos195 reporting.
  Task       11 on host eos195 reporting.
  Task       12 on host eos195 reporting.
  Task       13 on host eos195 reporting.
  Task       14 on host eos195 reporting.
  Task       15 on host eos195 reporting.
  Task       16 on host eos195 reporting.
  Task       17 on host eos195 reporting.
  Task       18 on host eos195 reporting.
  Task       19 on host eos195 reporting.
  Task       20 on host eos195 reporting.
  Task       21 on host eos195 reporting.
  Task       22 on host eos195 reporting.
  Task       23 on host eos195 reporting.
  Task       24 on host eos195 reporting.
  Task       25 on host eos195 reporting.
  Task       26 on host eos195 reporting.
  Task       27 on host eos195 reporting.
  Task       28 on host eos195 reporting.
  Task       29 on host eos195 reporting.
  Task       30 on host eos195 reporting.
  Task       31 on host eos195 reporting.

  Performing system and environment tests:
  | Environment variable OMP_NUM_THREADS correctly set to 1.
  | Stacksize not measured: no C compiler
  | Checking for scalapack...
  | Testing pdtran()...
  | All pdtran() tests passed.

  Obtaining array dimensions for all initial allocations:
  
  -----------------------------------------------------------------------
  Parsing control.in (first pass over file, find array dimensions only).
  The contents of control.in will be repeated verbatim below
  unless switched off by setting 'verbatim_writeout .false.' .
  in the first line of control.in .
  -----------------------------------------------------------------------
  
  #########################################################################################
  #
  # Input for System
  #
  #########################################################################################
  #
  #
  #  Physical model
  #
    xc                 pbe
    many_body_dispersion
    spin               none
    charge             0.
  #
  #  SCF convergence
  #
    occupation_type    gaussian 0.05
    mixer              pulay
      n_max_pulay        10
      charge_mix_param   0.5
    sc_accuracy_rho    1E-4
    sc_accuracy_eev    1E-2
    sc_accuracy_etot   1E-5
    sc_accuracy_forces 1E-4
    sc_iter_limit      1000
  #
  #  ESP charge
  #
    output esp
    esp equal_grid_n 80 80 80
  #
  #
  ################################################################################
  #
  #  FHI-aims code project
  # Volker Blum, Fritz Haber Institute Berlin, 2009
  #
  #  Suggested "tight" defaults for H atom (to be pasted into control.in file)
  #
  ################################################################################
    species        H
  #     global species definitions
      nucleus             1
      mass                1.00794
  #
      l_hartree           6
  #
      cut_pot             4.0  2.0  1.0
      basis_dep_cutoff    1e-4
  #
      radial_base         24 7.0
      radial_multiplier   2
      angular_grids       specified
        division   0.1930   50
        division   0.3175  110
        division   0.4293  194
        division   0.5066  302
        division   0.5626  434
  #      division   0.5922  590
  #      division   0.6227  974
  #      division   0.6868 1202
  #      outer_grid  770
        outer_grid  434
  ################################################################################
  #
  #  Definition of "minimal" basis
  #
  ################################################################################
  #     valence basis states
      valence      1  s   1.
  #     ion occupancy
      ion_occ      1  s   0.5
  ################################################################################
  #
  #  Suggested additional basis functions. For production calculations,
  #  uncomment them one after another (the most important basis functions are
  #  listed first).
  #
  #  Basis constructed for dimers: 0.5 A, 0.7 A, 1.0 A, 1.5 A, 2.5 A
  #
  ################################################################################
  #  "First tier" - improvements: -1014.90 meV to -62.69 meV
       hydro 2 s 2.1
       hydro 2 p 3.5
  #  "Second tier" - improvements: -12.89 meV to -1.83 meV
       hydro 1 s 0.85
       hydro 2 p 3.7
       hydro 2 s 1.2
       hydro 3 d 7
  #  "Third tier" - improvements: -0.25 meV to -0.12 meV
  #     hydro 4 f 11.2
  #     hydro 3 p 4.8
  #     hydro 4 d 9
  #     hydro 3 s 3.2
  ################################################################################
  #
  # For methods that use the localized form of the "resolution of identity" for
  # the two-electron Coulomb operator (RI_method LVL), particularly Hartree-Fock and
  # hybrid density functional calculations, the highest accuracy can be obtained by
  # uncommenting the line beginning with "for_aux"  below, thus adding an extra g radial
  # function to the construction of the product basis set for the expansion.
  # See Ref. New J. Phys. 17, 093020 (2015) for more information, particularly Figs. 1 and 6.
  #
  ################################################################################
  #
  # for_aux hydro 5 g 6.0
  ################################################################################
  #
  #  FHI-aims code project
  # Volker Blum, Fritz Haber Institute Berlin, 2009
  #
  #  Suggested "tight" defaults for C atom (to be pasted into control.in file)
  #
  ################################################################################
    species        C
  #     global species definitions
      nucleus             6
      mass                12.0107
  #
      l_hartree           6
  #
      cut_pot             4.0  2.0  1.0
      basis_dep_cutoff    1e-4
  #
      radial_base         34 7.0
      radial_multiplier   2
      angular_grids specified
        division   0.2187   50
        division   0.4416  110
        division   0.6335  194
        division   0.7727  302
        division   0.8772  434
  #      division   0.9334  590
  #      division   0.9924  770
  #      division   1.0230  974
  #      division   1.5020 1202
  #     outer_grid  974
        outer_grid  434
  ################################################################################
  #
  #  Definition of "minimal" basis
  #
  ################################################################################
  #     valence basis states
      valence      2  s   2.
      valence      2  p   2.
  #     ion occupancy
      ion_occ      2  s   1.
      ion_occ      2  p   1.
  ################################################################################
  #
  #  Suggested additional basis functions. For production calculations,
  #  uncomment them one after another (the most important basis functions are
  #  listed first).
  #
  #  Constructed for dimers: 1.0 A, 1.25 A, 1.5 A, 2.0 A, 3.0 A
  #
  ################################################################################
  #  "First tier" - improvements: -1214.57 meV to -155.61 meV
       hydro 2 p 1.7
       hydro 3 d 6
       hydro 2 s 4.9
  #  "Second tier" - improvements: -67.75 meV to -5.23 meV
       hydro 4 f 9.8
       hydro 3 p 5.2
       hydro 3 s 4.3
       hydro 5 g 14.4
       hydro 3 d 6.2
  #  "Third tier" - improvements: -2.43 meV to -0.60 meV
  #     hydro 2 p 5.6
  #     hydro 2 s 1.4
  #     hydro 3 d 4.9
  #     hydro 4 f 11.2
  #  "Fourth tier" - improvements: -0.39 meV to -0.18 meV
  #     hydro 2 p 2.1
  #     hydro 5 g 16.4
  #     hydro 4 d 13.2
  #     hydro 3 s 13.6
  #     hydro 4 f 17.6
  #  Further basis functions - improvements: -0.08 meV and below
  #     hydro 3 s 2
  #     hydro 3 p 6
  #     hydro 4 d 20
  ################################################################################
  #
  # For methods that use the localized form of the "resolution of identity" for
  # the two-electron Coulomb operator (RI_method LVL), particularly Hartree-Fock and
  # hybrid density functional calculations, the highest accuracy can be obtained by
  # uncommenting the line beginning with "for_aux"  below, thus adding an extra g radial
  # function to the construction of the product basis set for the expansion.
  # See Ref. New J. Phys. 17, 093020 (2015) for more information, particularly Figs. 1 and 6.
  #
  ################################################################################
  #
  # for_aux hydro 5 g 6.0
  ################################################################################
  #
  #  FHI-aims code project
  # Volker Blum, Fritz Haber Institute Berlin, 2009
  #
  #  Suggested "tight" defaults for N atom (to be pasted into control.in file)
  #
  ################################################################################
    species        N
  #     global species definitions
      nucleus             7
      mass                14.0067
  #
      l_hartree           6
  #
      cut_pot             4.0  2.0  1.0
      basis_dep_cutoff    1e-4
  #
      radial_base         35 7.0
      radial_multiplier   2
      angular_grids       specified
        division   0.1841   50
        division   0.3514  110
        division   0.5126  194
        division   0.6292  302
        division   0.6939  434
  #      division   0.7396  590
  #      division   0.7632  770
  #      division   0.8122  974
  #      division   1.1604 1202
  #      outer_grid  974
        outer_grid  434
  ################################################################################
  #
  #  Definition of "minimal" basis
  #
  ################################################################################
  #     valence basis states
      valence      2  s   2.
      valence      2  p   3.
  #     ion occupancy
      ion_occ      2  s   1.
      ion_occ      2  p   2.
  ################################################################################
  #
  #  Suggested additional basis functions. For production calculations,
  #  uncomment them one after another (the most important basis functions are
  #  listed first).
  #
  #  Constructed for dimers: 1.0 A, 1.1 A, 1.5 A, 2.0 A, 3.0 A
  #
  ################################################################################
  #  "First tier" - improvements: -1193.42 meV to -220.60 meV
       hydro 2 p 1.8
       hydro 3 d 6.8
       hydro 3 s 5.8
  #  "Second tier" - improvements: -80.21 meV to -6.86 meV
       hydro 4 f 10.8
       hydro 3 p 5.8
       hydro 1 s 0.8
       hydro 5 g 16
       hydro 3 d 4.9
  #  "Third tier" - improvements: -4.29 meV to -0.53 meV
  #     hydro 3 s 16
  #     ionic 2 p auto
  #     hydro 3 d 6.6
  #     hydro 4 f 11.6
  #  "Fourth tier" - improvements: -0.75 meV to -0.25 meV
  #     hydro 2 p 4.5
  #     hydro 2 s 2.4
  #     hydro 5 g 14.4
  #     hydro 4 d 14.4
  #     hydro 4 f 16.8
  # Further basis functions - -0.21 meV and below
  #     hydro 3 p 14.8
  #     hydro 3 s 4.4
  #     hydro 3 d 19.6
  #     hydro 5 g 12.8
  ################################################################################
  #
  # For methods that use the localized form of the "resolution of identity" for
  # the two-electron Coulomb operator (RI_method LVL), particularly Hartree-Fock and
  # hybrid density functional calculations, the highest accuracy can be obtained by
  # uncommenting the line beginning with "for_aux"  below, thus adding an extra g radial
  # function to the construction of the product basis set for the expansion.
  # See Ref. New J. Phys. 17, 093020 (2015) for more information, particularly Figs. 1 and 6.
  #
  ################################################################################
  #
  # for_aux hydro 5 g 6.0
  ################################################################################
  #
  #  FHI-aims code project
  # Volker Blum, Fritz Haber Institute Berlin, 2009
  #
  #  Suggested "tight" defaults for O atom (to be pasted into control.in file)
  #
  ################################################################################
    species        O
  #     global species definitions
      nucleus             8
      mass                15.9994
  #
      l_hartree           6
  #
      cut_pot             4.0  2.0  1.0
      basis_dep_cutoff    1e-4
  #
      radial_base         36 7.0
      radial_multiplier   2
       angular_grids specified
        division   0.1817   50
        division   0.3417  110
        division   0.4949  194
        division   0.6251  302
        division   0.8014  434
  #      division   0.8507  590
  #      division   0.8762  770
  #      division   0.9023  974
  #      division   1.2339 1202
  #      outer_grid 974
        outer_grid  434
  ################################################################################
  #
  #  Definition of "minimal" basis
  #
  ################################################################################
  #     valence basis states
      valence      2  s   2.
      valence      2  p   4.
  #     ion occupancy
      ion_occ      2  s   1.
      ion_occ      2  p   3.
  ################################################################################
  #
  #  Suggested additional basis functions. For production calculations,
  #  uncomment them one after another (the most important basis functions are
  #  listed first).
  #
  #  Constructed for dimers: 1.0 A, 1.208 A, 1.5 A, 2.0 A, 3.0 A
  #
  ################################################################################
  #  "First tier" - improvements: -699.05 meV to -159.38 meV
       hydro 2 p 1.8
       hydro 3 d 7.6
       hydro 3 s 6.4
  #  "Second tier" - improvements: -49.91 meV to -5.39 meV
       hydro 4 f 11.6
       hydro 3 p 6.2
       hydro 3 d 5.6
       hydro 5 g 17.6
       hydro 1 s 0.75
  #  "Third tier" - improvements: -2.83 meV to -0.50 meV
  #     ionic 2 p auto
  #     hydro 4 f 10.8
  #     hydro 4 d 4.7
  #     hydro 2 s 6.8
  #  "Fourth tier" - improvements: -0.40 meV to -0.12 meV
  #     hydro 3 p 5
  #     hydro 3 s 3.3
  #     hydro 5 g 15.6
  #     hydro 4 f 17.6
  #     hydro 4 d 14
  # Further basis functions - -0.08 meV and below
  #     hydro 3 s 2.1
  #     hydro 4 d 11.6
  #     hydro 3 p 16
  #     hydro 2 s 17.2
  ################################################################################
  #
  # For methods that use the localized form of the "resolution of identity" for
  # the two-electron Coulomb operator (RI_method LVL), particularly Hartree-Fock and
  # hybrid density functional calculations, the highest accuracy can be obtained by
  # uncommenting the line beginning with "for_aux"  below, thus adding an extra g radial
  # function to the construction of the product basis set for the expansion.
  # See Ref. New J. Phys. 17, 093020 (2015) for more information, particularly Figs. 1 and 6.
  #
  ################################################################################
  #
  # for_aux hydro 5 g 6.0
  
  -----------------------------------------------------------------------
  Completed first pass over input file control.in .
  -----------------------------------------------------------------------
  
  
  -----------------------------------------------------------------------
  Parsing geometry.in (first pass over file, find array dimensions only).
  The contents of geometry.in will be repeated verbatim below
  unless switched off by setting 'verbatim_writeout .false.' .
  in the first line of geometry.in .
  -----------------------------------------------------------------------
  
  #
  # This is the geometry file that corresponds to the current relaxation step.
  # If you do not want this file to be written, set the "write_restart_geometry" flag to .false.
  #
  atom      -0.09077093     -1.91555189      0.66735676 C
  atom       0.13559054     -0.68018628      1.50577120 C
  atom       1.24094368     -0.35349785      1.93820458 O
  atom      -0.36153122     -1.62650777     -0.35810611 H
  atom      -0.89881824     -2.54575705      1.06331502 H
  atom       0.84004201     -2.48773550      0.64436617 H
  atom      -0.95736844      0.12352236      1.75404711 N
  atom      -2.35907514     -0.16615607      1.49428358 C
  atom      -2.90249215      0.06182541      0.06349631 C
  atom      -3.77795038     -0.70834800     -0.32886733 O
  atom      -0.73995516      0.88576407      2.38942712 H
  atom      -2.53112109     -1.24259428      1.63097794 H
  atom      -3.24918546      0.57471442      2.50020150 C
  atom      -4.30080662      0.32737016      2.31603129 H
  atom      -3.13684054      1.66406740      2.41851603 H
  atom      -2.99474355      0.27259946      3.52474756 H
  atom      -2.52940612      1.11694471     -0.73315077 N
  atom      -1.44542403      2.09966929     -0.70400721 C
  atom      -0.06227175      1.42642591     -0.93339715 C
  atom       0.02615595      0.44207844     -1.66319734 O
  atom      -2.98112965      1.01685548     -1.63780087 H
  atom      -1.59235411      2.66522641     -1.63855668 H
  atom      -1.55461750      3.12905408      0.42663987 C
  atom      -0.92439492      4.00438281      0.21721445 H
  atom      -1.26713663      2.72679109      1.40469381 H
  atom      -2.58919128      3.48578621      0.49978361 H
  atom       1.00910289      2.04764601     -0.37519132 N
  atom       2.36436248      1.53628531     -0.51812078 C
  atom       0.84209894      2.74902472      0.33475865 H
  atom       3.06823844      2.37202640     -0.61661107 H
  atom       2.39959878      0.92234615     -1.42363650 H
  atom       2.64255618      0.91170539      0.34200856 H
  
  -----------------------------------------------------------------------
  Completed first pass over input file geometry.in .
  -----------------------------------------------------------------------
  

  Basic array size parameters:
  | Number of species                 :        4
  | Number of atoms                   :       32
  | Max. basis fn. angular momentum   :        4
  | Max. atomic/ionic basis occupied n:        2
  | Max. number of basis fn. types    :        2
  | Max. radial fns per species/type  :        8
  | Max. logarithmic grid size        :     1301
  | Max. radial integration grid size :       73
  | Max. angular integration grid size:      434
  | Max. angular grid division number :        8
  | Radial grid for Hartree potential :     1301
  | Number of spin channels           :        1

------------------------------------------------------------
          Reading file control.in.
------------------------------------------------------------
  XC: Using PBE gradient-corrected functionals.
  Self-consistent screening and van der Waals energy (TS, TS+SCS,MBD) module
  Spin treatment: No spin polarisation.
  Charge =   0.000000E+00: Neutral system requested explicitly.
  Occupation type: Gaussian broadening, width =   0.500000E-01 eV.
  Using pulay charge density mixing.
  Pulay mixing - number of memorized iterations:   10
  Charge density mixing - mixing parameter:     0.5000
  Convergence accuracy of self-consistent charge density:  0.1000E-03
  Convergence accuracy of sum of eigenvalues:  0.1000E-01
  Convergence accuracy of total energy:  0.1000E-04
  Convergence accuracy of forces:  0.1000E-03
  Maximum number of s.-c. iterations  :  1000
  Fitting ESP-charges to Potential. 
  | Esp charge output options: 
  | ESP Grid method: 3, cubic grid
  | Number of points in x, ,y, z:  0080 0080 0080
  |
 
  Reading configuration options for species H                   .
  | Found nuclear charge :   1.0000
  | Found atomic mass :    1.00794000000000      amu
  | Found l_max for Hartree potential  :   6
  | Found cutoff potl. onset [A], width [A], scale factor :    4.00000    2.00000    1.00000
  | Threshold for basis-dependent cutoff potential is   0.100000E-03
  | Found data for basic radial integration grid :    24 points, outermost radius =    7.000 A
  | Found multiplier for basic radial grid :   2
  | Found angular grid specification: user-specified.
  | Specified grid contains     6 separate shells.
  | Check grid settings after all constraints further below.
  | Found free-atom valence shell :  1 s   1.000
  | No ionic wave fns used. Skipping ion_occ.
  | Found hydrogenic basis function :  2 s   2.100
  | Found hydrogenic basis function :  2 p   3.500
  | Found hydrogenic basis function :  1 s   0.850
  | Found hydrogenic basis function :  2 p   3.700
  | Found hydrogenic basis function :  2 s   1.200
  | Found hydrogenic basis function :  3 d   7.000
  Species H                   : Missing cutoff potential type.
  Defaulting to exp(1/x)/(1-x)^2 type cutoff potential.
  Species H : No 'logarithmic' tag. Using default grid for free atom:
  | Default logarithmic grid data [bohr] : 0.1000E-03 0.1000E+03 0.1012E+01
  Species H : On-site basis accuracy parameter (for Gram-Schmidt orthonormalisation) not specified.
  Using default value basis_acc =  0.1000000E-03.
  Species H                   : Using default innermost maximum threshold i_radial=  2 for radial functions.
  Species H                   : Default cutoff onset for free atom density etc. : 0.40000000E+01 AA.
  Species H                   : Basic radial grid will be enhanced according to radial_multiplier =   2, to contain    49 grid points.
 
  Reading configuration options for species C                   .
  | Found nuclear charge :   6.0000
  | Found atomic mass :    12.0107000000000      amu
  | Found l_max for Hartree potential  :   6
  | Found cutoff potl. onset [A], width [A], scale factor :    4.00000    2.00000    1.00000
  | Threshold for basis-dependent cutoff potential is   0.100000E-03
  | Found data for basic radial integration grid :    34 points, outermost radius =    7.000 A
  | Found multiplier for basic radial grid :   2
  | Found angular grid specification: user-specified.
  | Specified grid contains     6 separate shells.
  | Check grid settings after all constraints further below.
  | Found free-atom valence shell :  2 s   2.000
  | Found free-atom valence shell :  2 p   2.000
  | No ionic wave fns used. Skipping ion_occ.
  | No ionic wave fns used. Skipping ion_occ.
  | Found hydrogenic basis function :  2 p   1.700
  | Found hydrogenic basis function :  3 d   6.000
  | Found hydrogenic basis function :  2 s   4.900
  | Found hydrogenic basis function :  4 f   9.800
  | Found hydrogenic basis function :  3 p   5.200
  | Found hydrogenic basis function :  3 s   4.300
  | Found hydrogenic basis function :  5 g  14.400
  | Found hydrogenic basis function :  3 d   6.200
  Species C                   : Missing cutoff potential type.
  Defaulting to exp(1/x)/(1-x)^2 type cutoff potential.
  Species C : No 'logarithmic' tag. Using default grid for free atom:
  | Default logarithmic grid data [bohr] : 0.1000E-03 0.1000E+03 0.1012E+01
  Species C : On-site basis accuracy parameter (for Gram-Schmidt orthonormalisation) not specified.
  Using default value basis_acc =  0.1000000E-03.
  Species C                   : Using default innermost maximum threshold i_radial=  2 for radial functions.
  Species C                   : Default cutoff onset for free atom density etc. : 0.40000000E+01 AA.
  Species C                   : Basic radial grid will be enhanced according to radial_multiplier =   2, to contain    69 grid points.
 
  Reading configuration options for species N                   .
  | Found nuclear charge :   7.0000
  | Found atomic mass :    14.0067000000000      amu
  | Found l_max for Hartree potential  :   6
  | Found cutoff potl. onset [A], width [A], scale factor :    4.00000    2.00000    1.00000
  | Threshold for basis-dependent cutoff potential is   0.100000E-03
  | Found data for basic radial integration grid :    35 points, outermost radius =    7.000 A
  | Found multiplier for basic radial grid :   2
  | Found angular grid specification: user-specified.
  | Specified grid contains     6 separate shells.
  | Check grid settings after all constraints further below.
  | Found free-atom valence shell :  2 s   2.000
  | Found free-atom valence shell :  2 p   3.000
  | No ionic wave fns used. Skipping ion_occ.
  | No ionic wave fns used. Skipping ion_occ.
  | Found hydrogenic basis function :  2 p   1.800
  | Found hydrogenic basis function :  3 d   6.800
  | Found hydrogenic basis function :  3 s   5.800
  | Found hydrogenic basis function :  4 f  10.800
  | Found hydrogenic basis function :  3 p   5.800
  | Found hydrogenic basis function :  1 s   0.800
  | Found hydrogenic basis function :  5 g  16.000
  | Found hydrogenic basis function :  3 d   4.900
  Species N                   : Missing cutoff potential type.
  Defaulting to exp(1/x)/(1-x)^2 type cutoff potential.
  Species N : No 'logarithmic' tag. Using default grid for free atom:
  | Default logarithmic grid data [bohr] : 0.1000E-03 0.1000E+03 0.1012E+01
  Species N : On-site basis accuracy parameter (for Gram-Schmidt orthonormalisation) not specified.
  Using default value basis_acc =  0.1000000E-03.
  Species N                   : Using default innermost maximum threshold i_radial=  2 for radial functions.
  Species N                   : Default cutoff onset for free atom density etc. : 0.40000000E+01 AA.
  Species N                   : Basic radial grid will be enhanced according to radial_multiplier =   2, to contain    71 grid points.
 
  Reading configuration options for species O                   .
  | Found nuclear charge :   8.0000
  | Found atomic mass :    15.9994000000000      amu
  | Found l_max for Hartree potential  :   6
  | Found cutoff potl. onset [A], width [A], scale factor :    4.00000    2.00000    1.00000
  | Threshold for basis-dependent cutoff potential is   0.100000E-03
  | Found data for basic radial integration grid :    36 points, outermost radius =    7.000 A
  | Found multiplier for basic radial grid :   2
  | Found angular grid specification: user-specified.
  | Specified grid contains     6 separate shells.
  | Check grid settings after all constraints further below.
  | Found free-atom valence shell :  2 s   2.000
  | Found free-atom valence shell :  2 p   4.000
  | No ionic wave fns used. Skipping ion_occ.
  | No ionic wave fns used. Skipping ion_occ.
  | Found hydrogenic basis function :  2 p   1.800
  | Found hydrogenic basis function :  3 d   7.600
  | Found hydrogenic basis function :  3 s   6.400
  | Found hydrogenic basis function :  4 f  11.600
  | Found hydrogenic basis function :  3 p   6.200
  | Found hydrogenic basis function :  3 d   5.600
  | Found hydrogenic basis function :  5 g  17.600
  | Found hydrogenic basis function :  1 s   0.750
  Species O                   : Missing cutoff potential type.
  Defaulting to exp(1/x)/(1-x)^2 type cutoff potential.
  Species O : No 'logarithmic' tag. Using default grid for free atom:
  | Default logarithmic grid data [bohr] : 0.1000E-03 0.1000E+03 0.1012E+01
  Species O : On-site basis accuracy parameter (for Gram-Schmidt orthonormalisation) not specified.
  Using default value basis_acc =  0.1000000E-03.
  Species O                   : Using default innermost maximum threshold i_radial=  2 for radial functions.
  Species O                   : Default cutoff onset for free atom density etc. : 0.40000000E+01 AA.
  Species O                   : Basic radial grid will be enhanced according to radial_multiplier =   2, to contain    73 grid points.
 
  Finished reading input file 'control.in'. Consistency checks are next.
 
  Target number of points in a grid batch is not set. Defaulting to  100
  Method for grid partitioning is not set. Defaulting to parallel hash+maxmin partitioning.
  Batch size limit is not set. Defaulting to    200
  By default, will store active basis functions for each batch.
  If in need of memory, prune_basis_once .false. can be used to disable this option.
  communication_type for Hartree potential was not specified.
  Defaulting to calc_hartree .
  Pulay mixer: Number of initial linear mixing iterations not set.
  Defaulting to    0 iterations.
  Work space size for distributed Hartree potential not set.
  Defaulting to   0.200000E+03 MB.
  Algorithm-dependent basis array size parameters:
  | n_max_pulay                         :       10
  Geometry relaxation not requested: no relaxation will be performed.
  Handling of forces: Unphysical translation and rotation will be removed from forces.
  No accuracy limit for integral partition fn. given. Defaulting to  0.1000E-14.
  No threshold value for u(r) in integrations given. Defaulting to  0.1000E-05.
  No accuracy for occupation numbers given. Defaulting to  0.1000E-07.
  No threshold value for occupation numbers given. Defaulting to  0.0000E+00.
  No accuracy for fermi level given. Defaulting to  0.1000E-19.
  Maximum # of iterations to find E_F not set. Defaulting to  200.
  Preferred method for the eigenvalue solver ('KS_method') not specified in 'control.in'.
  Calling blacs routine to test compilation state
  Since scalapack support is enabled, defaulting to 'elpa'.
  Preferred method for the MBD eigenvalue solver ('mbd_eigensolver') not specified in 'control.in'.
  Calling blacs routine to test compilation state
  Since scalapack support is enabled, defaulting to 'scaLAPACK'.
  Will not use alltoall communication since running on < 1024 CPUs.
  Threshold for basis singularities not set.
  Default threshold for basis singularities:  0.1000E-04
  partition_type (choice of integration weights) for integrals was not specified.
  | Using a version of the partition function of Stratmann and coworkers ('stratmann_smoother').
  | At each grid point, the set of atoms used to build the partition table is smoothly restricted to
  | only those atoms whose free-atom density would be non-zero at that grid point.
  Partitioning for Hartree potential was not defined. Using partition_type for integrals.
  | Adjusted default value of keyword multip_moments_threshold to:       0.10000000E-11
  | This value may affect high angular momentum components of the Hartree potential in periodic systems.
  No q(lm)/r^(l+1) cutoff set for long-range Hartree potential.
  | Using default value of  0.100000E-09 .
  | Verify using the multipole_threshold keyword.
  Defaulting to new monopole extrapolation.
  Density update method: automatic selection selected.
------------------------------------------------------------


------------------------------------------------------------
          Reading geometry description geometry.in.
------------------------------------------------------------
 * Warning! You did not set the 'relativistic' flag in input file 'control.in'.
 * Since you are not attempting to treat any elements beyond Ca(Z=20), FHI-aims
 * will default to 'relativistic none'.
 * You must ensure that this is really what you want!!
 * For example, DO NOT compute total-energy differences between results from
 * different settings of the 'relativistic' flag.
  Input structure read successfully.
  The structure contains       32 atoms,  and a total of        116.000 electrons.

  Input geometry:
  | No unit cell requested.
  | Atomic structure:
  |       Atom                x [A]            y [A]            z [A]
  |    1: Species C             -0.090771        -1.915552         0.667357
  |    2: Species C              0.135591        -0.680186         1.505771
  |    3: Species O              1.240944        -0.353498         1.938205
  |    4: Species H             -0.361531        -1.626508        -0.358106
  |    5: Species H             -0.898818        -2.545757         1.063315
  |    6: Species H              0.840042        -2.487735         0.644366
  |    7: Species N             -0.957368         0.123522         1.754047
  |    8: Species C             -2.359075        -0.166156         1.494284
  |    9: Species C             -2.902492         0.061825         0.063496
  |   10: Species O             -3.777950        -0.708348        -0.328867
  |   11: Species H             -0.739955         0.885764         2.389427
  |   12: Species H             -2.531121        -1.242594         1.630978
  |   13: Species C             -3.249185         0.574714         2.500202
  |   14: Species H             -4.300807         0.327370         2.316031
  |   15: Species H             -3.136841         1.664067         2.418516
  |   16: Species H             -2.994744         0.272599         3.524748
  |   17: Species N             -2.529406         1.116945        -0.733151
  |   18: Species C             -1.445424         2.099669        -0.704007
  |   19: Species C             -0.062272         1.426426        -0.933397
  |   20: Species O              0.026156         0.442078        -1.663197
  |   21: Species H             -2.981130         1.016855        -1.637801
  |   22: Species H             -1.592354         2.665226        -1.638557
  |   23: Species C             -1.554617         3.129054         0.426640
  |   24: Species H             -0.924395         4.004383         0.217214
  |   25: Species H             -1.267137         2.726791         1.404694
  |   26: Species H             -2.589191         3.485786         0.499784
  |   27: Species N              1.009103         2.047646        -0.375191
  |   28: Species C              2.364362         1.536285        -0.518121
  |   29: Species H              0.842099         2.749025         0.334759
  |   30: Species H              3.068238         2.372026        -0.616611
  |   31: Species H              2.399599         0.922346        -1.423636
  |   32: Species H              2.642556         0.911705         0.342009
  |

  | The smallest distance between any two atoms is         1.01185541 AA.
  |
  | The first atom of this pair is atom number                     27 .
  | The second atom of this pair is atom number                    29 .

  Number of empty states per atom not set in control.in - providing a guess from actual geometry.
  | Total number of empty states used during s.c.f. cycle:       71
  If you use a very high smearing, use empty_states (per atom!) in control.in to increase this value.

  Structure-dependent array size parameters: 
  | Maximum number of distinct radial functions  :       40
  | Maximum number of basis functions            :      840
  | Number of Kohn-Sham states (occupied + empty):      129
------------------------------------------------------------

------------------------------------------------------------
          Preparing all fixed parts of the calculation.
------------------------------------------------------------
  Determining machine precision:
    2.225073858507201E-308
  Setting up grids for atomic and cluster calculations.

  Creating wave function, potential, and density for free atoms.

  Species: H

  List of occupied orbitals and eigenvalues:
    n    l              occ      energy [Ha]    energy [eV]
    1    0           1.0000        -0.238382        -6.4867


  Species: C

  List of occupied orbitals and eigenvalues:
    n    l              occ      energy [Ha]    energy [eV]
    1    0           2.0000       -10.041232      -273.2358
    2    0           2.0000        -0.504327       -13.7234
    2    1           2.0000        -0.193750        -5.2722


  Species: N

  List of occupied orbitals and eigenvalues:
    n    l              occ      energy [Ha]    energy [eV]
    1    0           2.0000       -14.129007      -384.4699
    2    0           2.0000        -0.681802       -18.5528
    2    1           3.0000        -0.260543        -7.0897


  Species: O

  List of occupied orbitals and eigenvalues:
    n    l              occ      energy [Ha]    energy [eV]
    1    0           2.0000       -18.898576      -514.2564
    2    0           2.0000        -0.878795       -23.9132
    2    1           4.0000        -0.332075        -9.0362

  Creating fixed part of basis set: Ionic, confined, hydrogenic.
 
  H                    hydrogenic:
 
  List of hydrogenic basis orbitals: 
    n    l      effective z      eigenvalue [eV]  inner max. [A]     outer max. [A]     outer radius [A]   
    2    0         2.100000       -14.9965           0.193243           1.317208           5.373006
    2    1         3.500000       -41.6672           0.602369           0.602369           4.056063
    1    0         0.850000        -9.8292           0.624871           0.624871           5.373006
    2    1         3.700000       -46.5653           0.573622           0.573622           3.910002
    2    0         1.200000        -4.5995           0.334980           2.228188           5.505995
    3    2         7.000000       -74.0753           0.680699           0.680699           3.769201
 
 
  C                    hydrogenic:
 
  List of hydrogenic basis orbitals: 
    n    l      effective z      eigenvalue [eV]  inner max. [A]     outer max. [A]     outer radius [A]   
    2    1         1.700000        -9.8152           1.245706           1.245706           5.401630
    3    2         6.000000       -54.4226           0.792453           0.792453           4.178599
    2    0         4.900000       -81.6681           0.082559           0.562749           3.353238
    4    3         9.800000       -81.6681           0.863254           0.863254           4.028125
    3    1         5.200000       -40.8774           0.305389           1.215618           4.898362
    3    0         4.300000       -27.9508           0.091041           1.610311           5.401630
    5    4        14.400000      -112.8510           0.917666           0.917666           3.883070
    3    2         6.200000       -58.1113           0.763917           0.763917           4.077671
 
 
  N                    hydrogenic:
 
  List of hydrogenic basis orbitals: 
    n    l      effective z      eigenvalue [eV]  inner max. [A]     outer max. [A]     outer radius [A]   
    2    1         1.800000       -11.0118           1.177451           1.177451           5.427479
    3    2         6.800000       -69.9029           0.704619           0.704619           3.854246
    3    0         5.800000       -50.8549           0.067388           1.191934           4.629968
    4    3        10.800000       -99.1854           0.786571           0.786571           3.761152
    3    1         5.800000       -50.8549           0.274880           1.094176           4.518138
    1    0         0.800000        -8.7059           0.662839           0.662839           5.361532
    5    4        16.000000      -139.3222           0.825990           0.825990           3.625711
    3    2         4.900000       -36.2967           0.968267           0.968267           4.862000
 
 
  O                    hydrogenic:
 
  List of hydrogenic basis orbitals: 
    n    l      effective z      eigenvalue [eV]  inner max. [A]     outer max. [A]     outer radius [A]   
    2    1         1.800000       -11.0118           1.178562           1.178562           5.432602
    3    2         7.600000       -87.3182           0.624125           0.624125           3.541477
    3    0         6.400000       -61.9209           0.061167           1.081902           4.306578
    4    3        11.600000      -114.4238           0.731631           0.731631           3.585037
    3    1         6.200000       -58.1113           0.255680           1.030270           4.306578
    3    2         5.600000       -47.4081           0.847233           0.847233           4.413171
    5    4        17.600000      -168.5799           0.749740           0.749740           3.372465
    1    0         0.750000        -7.6499           0.705284           0.705284           5.366593
 

  Adding cutoff potential to free-atom effective potential.
  Creating atomic-like basis functions for current effective potential.

  Species H                   :

  List of atomic basis orbitals and eigenvalues:
    n    l      energy [Ha]    energy [eV]    outer radius [A]
    1    0        -0.238382        -6.4867       5.373006


  Species C                   :

  List of atomic basis orbitals and eigenvalues:
    n    l      energy [Ha]    energy [eV]    outer radius [A]
    1    0       -10.041232      -273.2358       1.934409
    2    0        -0.504327       -13.7234       5.271162
    2    1        -0.193750        -5.2722       5.401630


  Species N                   :

  List of atomic basis orbitals and eigenvalues:
    n    l      energy [Ha]    energy [eV]    outer radius [A]
    1    0       -14.129007      -384.4699       1.637919
    2    0        -0.681802       -18.5528       5.168461
    2    1        -0.260543        -7.0897       5.361532


  Species O                   :

  List of atomic basis orbitals and eigenvalues:
    n    l      energy [Ha]    energy [eV]    outer radius [A]
    1    0       -18.898576      -514.2564       1.415765
    2    0        -0.878795       -23.9132       5.048385
    2    1        -0.332075        -9.0362       5.301386

  Assembling full basis from fixed parts.
  | Species H :   atomic orbital   1 s accepted.
  | Species H :    hydro orbital   2 s accepted.
  | Species H :    hydro orbital   1 s accepted.
  | Species H :    hydro orbital   2 s accepted.
  | Species H :    hydro orbital   2 p accepted.
  | Species H :    hydro orbital   2 p accepted.
  | Species H :    hydro orbital   3 d accepted.
  | Species C :   atomic orbital   1 s accepted.
  | Species C :    hydro orbital   2 s accepted.
  | Species C :   atomic orbital   2 s accepted.
  | Species C :    hydro orbital   3 s accepted.
  | Species C :    hydro orbital   3 p accepted.
  | Species C :   atomic orbital   2 p accepted.
  | Species C :    hydro orbital   2 p accepted.
  | Species C :    hydro orbital   3 d accepted.
  | Species C :    hydro orbital   3 d accepted.
  | Species C :    hydro orbital   4 f accepted.
  | Species C :    hydro orbital   5 g accepted.
  | Species N :   atomic orbital   1 s accepted.
  | Species N :    hydro orbital   3 s accepted.
  | Species N :   atomic orbital   2 s accepted.
  | Species N :    hydro orbital   1 s accepted.
  | Species N :    hydro orbital   3 p accepted.
  | Species N :   atomic orbital   2 p accepted.
  | Species N :    hydro orbital   2 p accepted.
  | Species N :    hydro orbital   3 d accepted.
  | Species N :    hydro orbital   3 d accepted.
  | Species N :    hydro orbital   4 f accepted.
  | Species N :    hydro orbital   5 g accepted.
  | Species O :   atomic orbital   1 s accepted.
  | Species O :    hydro orbital   3 s accepted.
  | Species O :   atomic orbital   2 s accepted.
  | Species O :    hydro orbital   1 s accepted.
  | Species O :    hydro orbital   3 p accepted.
  | Species O :   atomic orbital   2 p accepted.
  | Species O :    hydro orbital   2 p accepted.
  | Species O :    hydro orbital   3 d accepted.
  | Species O :    hydro orbital   3 d accepted.
  | Species O :    hydro orbital   4 f accepted.
  | Species O :    hydro orbital   5 g accepted.
 
  Basis size parameters after reduction:
  | Total number of radial functions:       40
  | Total number of basis functions :      840
 
  Testing on-site integration grid accuracy.
  |  Species  Function  <phi|h_atom|phi> (log., in eV)  <phi|h_atom|phi> (rad., in eV)
           1        1                 -6.4869821809                 -6.4870742227
           1        2                 13.5044133542                 13.5041049177
           1        3                 32.7854418792                 32.7779770519
           1        4                 33.7995553101                 33.7152624900 ***
           1        5                 28.8558651799                 28.8558652046
           1        6                 59.6361831893                 59.6362535845
           1        7                 60.2733718049                 60.2733715484
           2        8               -273.2358277112               -273.2358261765
           2        9                -10.7624923123                -10.7625144012
           2       10                 17.4634079027                 17.4634252127
           2       11                 53.0363661832                 53.0366180446
           2       12                 15.0981351967                 15.0981317714
           2       13                  3.8522181899                  3.8522770949
           2       14                 12.1181835661                 12.1206868578
           2       15                 29.4320778347                 29.4320780959
           2       16                 54.8753777694                 54.8752901936
           2       17                 59.3533975461                 59.3533974833
           2       18                 93.4537491195                 93.4537492066
           3       19               -384.4698526889               -384.4698499465
           3       20                 12.5691022037                 12.5690910168
           3       21                -15.7489097511                -15.7489165588
           3       22                 27.0978334940                 27.0985589490
           3       23                 18.5949116966                 18.5949125562
           3       24                  1.2212828291                  1.2212855301
           3       25                 13.4428926797                 13.4434051125
           3       26                 35.9380614500                 35.9380613666
           3       27                 39.9231532098                 39.9231654735
           3       28                 72.9957335806                 72.9957336833
           3       29                116.4231321147                116.4231321431
           4       30               -514.2564144315               -514.2564099626
           4       31                 15.1726678541                 15.1726530877
           4       32                -21.5447785304                -21.5447874973
           4       33                 14.4944558459                 14.4944698284
           4       34                 20.8882174564                 20.8882178906
           4       35                 -2.4850315908                 -2.4850322289
           4       36                 13.8600193195                 13.8599826966
           4       37                 45.8243383616                 45.8243383675
           4       38                 52.1840606465                 52.1840622440
           4       39                 85.4074185510                 85.4074185819
           4       40                142.0983717302                142.0983717339
 * Note: Onsite integrals marked "***" above are less accurate than
 * onsite_accuracy_threshold =    0.03000 eV. Usually, this is harmless.
 * When in doubt, tighten the "radial" and/or "radial_multiplier" flags to check.

  Preparing densities etc. for the partition functions (integrals / Hartree potential).

  Preparations completed.
  max(cpu_time)          :      0.240 s.
  Wall clock time (cpu1) :      0.239 s.
------------------------------------------------------------

------------------------------------------------------------
          Begin self-consistency loop: Initialization.

          Date     :  20170309, Time     :  184556.439
------------------------------------------------------------

  Initializing index lists of integration centers etc. from given atomic structure:
  | Number of centers in hartree potential         :        32
  | Number of centers in hartree multipole         :        32
  | Number of centers in electron density summation:        32
  | Number of centers in basis integrals           :        32
  | Number of centers in integrals                 :        32
  | Number of centers in hamiltonian               :        32
  Using modified Scalapack Eigenvalue solver (ELPA)
  * Using 32 tasks for Scalapack Eigenvalue solver.
  Detailed listing of tasks and assigned k-points:
  (for non-periodic systems, the "k-point" denotes an internal label only)
   Task     0 k-point     1 on eos195
   Task     1 k-point     1 on eos195
   Task     2 k-point     1 on eos195
   Task     3 k-point     1 on eos195
   Task     4 k-point     1 on eos195
   Task     5 k-point     1 on eos195
   Task     6 k-point     1 on eos195
   Task     7 k-point     1 on eos195
   Task     8 k-point     1 on eos195
   Task     9 k-point     1 on eos195
   Task    10 k-point     1 on eos195
   Task    11 k-point     1 on eos195
   Task    12 k-point     1 on eos195
   Task    13 k-point     1 on eos195
   Task    14 k-point     1 on eos195
   Task    15 k-point     1 on eos195
   Task    16 k-point     1 on eos195
   Task    17 k-point     1 on eos195
   Task    18 k-point     1 on eos195
   Task    19 k-point     1 on eos195
   Task    20 k-point     1 on eos195
   Task    21 k-point     1 on eos195
   Task    22 k-point     1 on eos195
   Task    23 k-point     1 on eos195
   Task    24 k-point     1 on eos195
   Task    25 k-point     1 on eos195
   Task    26 k-point     1 on eos195
   Task    27 k-point     1 on eos195
   Task    28 k-point     1 on eos195
   Task    29 k-point     1 on eos195
   Task    30 k-point     1 on eos195
   Task    31 k-point     1 on eos195
  Tasks:    32 split into      8 X      4 BLACS grid
  Calculating blocksize based on n_basis =          840 max_nprow =            8 max_npcol =            4
  Scalapack blocksize set to:           16
  Required Scalapack workspace - INTEGER:            1 REAL:             1
  Partitioning the integration grid into batches with parallel hashing+maxmin method.
  | Number of batches:     5046
  | Maximal batch size:     200
  | Minimal batch size:      50
  | Average batch size:     104.583
  | Standard deviation of batch sizes:      34.481

  Integration load balanced across    32 MPI tasks.
  Work distribution over tasks is as follows:
  Task     0 has      16474 integration points.
  Task     1 has      16542 integration points.
  Task     2 has      16546 integration points.
  Task     3 has      16520 integration points.
  Task     4 has      16453 integration points.
  Task     5 has      16526 integration points.
  Task     6 has      16441 integration points.
  Task     7 has      16470 integration points.
  Task     8 has      16510 integration points.
  Task     9 has      16465 integration points.
  Task    10 has      16448 integration points.
  Task    11 has      16520 integration points.
  Task    12 has      16541 integration points.
  Task    13 has      16470 integration points.
  Task    14 has      16459 integration points.
  Task    15 has      16478 integration points.
  Task    16 has      16423 integration points.
  Task    17 has      16521 integration points.
  Task    18 has      16426 integration points.
  Task    19 has      16462 integration points.
  Task    20 has      16513 integration points.
  Task    21 has      16515 integration points.
  Task    22 has      16516 integration points.
  Task    23 has      16522 integration points.
  Task    24 has      16508 integration points.
  Task    25 has      16524 integration points.
  Task    26 has      16529 integration points.
  Task    27 has      16531 integration points.
  Task    28 has      16445 integration points.
  Task    29 has      16430 integration points.
  Task    30 has      16478 integration points.
  Task    31 has      16522 integration points.
  Initializing partition tables, free-atom densities, potentials, etc. across the integration grid (initialize_grid_storage).
  | initialize_grid_storage: Actual outermost partition radius vs. multipole_radius_free
  | (-- VB: in principle, multipole_radius_free should be larger, hence this output)
  | Species        1: Confinement radius =              6.000000000000000 AA, multipole_radius_free =              6.071692442739658 AA.
  | Species        1: outer_partition_radius set to              6.071692442739658 AA .
  | Species        2: Confinement radius =              6.000000000000000 AA, multipole_radius_free =              6.029870734432609 AA.
  | Species        2: outer_partition_radius set to              6.029870734432609 AA .
  | Species        3: Confinement radius =              6.000000000000000 AA, multipole_radius_free =              6.058726835495003 AA.
  | Species        3: outer_partition_radius set to              6.058726835495003 AA .
  | Species        4: Confinement radius =              6.000000000000000 AA, multipole_radius_free =              6.064445521808699 AA.
  | Species        4: outer_partition_radius set to              6.064445521808699 AA .
  | Original list of interatomic distances with          32 x         32 entries is created.
  | Net number of integration points:   527728
  | of which are non-zero points    :   411054
  Obtaining max. number of non-zero basis functions in each batch (get_n_compute_maxes).
  | Maximal number of non-zero basis functions:      814 in task     0
  | Maximal number of non-zero basis functions:      799 in task     1
  | Maximal number of non-zero basis functions:      820 in task     2
  | Maximal number of non-zero basis functions:      806 in task     3
  | Maximal number of non-zero basis functions:      825 in task     4
  | Maximal number of non-zero basis functions:      824 in task     5
  | Maximal number of non-zero basis functions:      824 in task     6
  | Maximal number of non-zero basis functions:      820 in task     7
  | Maximal number of non-zero basis functions:      823 in task     8
  | Maximal number of non-zero basis functions:      825 in task     9
  | Maximal number of non-zero basis functions:      815 in task    10
  | Maximal number of non-zero basis functions:      822 in task    11
  | Maximal number of non-zero basis functions:      826 in task    12
  | Maximal number of non-zero basis functions:      821 in task    13
  | Maximal number of non-zero basis functions:      827 in task    14
  | Maximal number of non-zero basis functions:      810 in task    15
  | Maximal number of non-zero basis functions:      823 in task    16
  | Maximal number of non-zero basis functions:      822 in task    17
  | Maximal number of non-zero basis functions:      810 in task    18
  | Maximal number of non-zero basis functions:      818 in task    19
  | Maximal number of non-zero basis functions:      812 in task    20
  | Maximal number of non-zero basis functions:      825 in task    21
  | Maximal number of non-zero basis functions:      825 in task    22
  | Maximal number of non-zero basis functions:      811 in task    23
  | Maximal number of non-zero basis functions:      811 in task    24
  | Maximal number of non-zero basis functions:      827 in task    25
  | Maximal number of non-zero basis functions:      827 in task    26
  | Maximal number of non-zero basis functions:      824 in task    27
  | Maximal number of non-zero basis functions:      825 in task    28
  | Maximal number of non-zero basis functions:      825 in task    29
  | Maximal number of non-zero basis functions:      817 in task    30
  | Maximal number of non-zero basis functions:      820 in task    31
  Selecting the method for density update.
  Loop over occupied states selected for charge density update.
  Integrating Hamiltonian matrix: batch-based integration.
  Time summed over all CPUs for integration: real work       25.465 s, elapsed       26.761 s
  Integrating overlap matrix.
  Time summed over all CPUs for integration: real work       15.757 s, elapsed       16.434 s
  Deallocating overlap matrix.

  Updating Kohn-Sham eigenvalues, eigenvectors, occupation numbers, and Fermi level.
  Solving generalized eigenproblem
  Solving real symmetric generalised eigenvalue problem by standard ScaLAPACK.
  Transforming overlap matrix with ScaLAPACK and checking for singularities.
  : Overlap matrix is nonsingular, using Cholesky decomposition
  | Lowest eigenvalue:  0.882110E-04
  Factoring overlap matrix with Cholesky decomposition
  Using Cholesky factor for transformation
  Using 1-stage real ELPA solver
  Determining occupation numbers for Kohn-Sham eigenstates.
  | Chemical potential (Fermi level) in eV                 : -.97347086E+01
  | Error in electron count due to remaining E_F inaccuracy: 0.00000000E+00
  | Maximum occupation number of highest empty state:  0.00E+00

  Writing Kohn-Sham eigenvalues.

  State    Occupation    Eigenvalue [Ha]    Eigenvalue [eV]
      1       2.00000         -18.974575         -516.32445
      2       2.00000         -18.974115         -516.31194
      3       2.00000         -18.973699         -516.30061
      4       2.00000         -14.256827         -387.94800
      5       2.00000         -14.252988         -387.84354
      6       2.00000         -14.252257         -387.82365
      7       2.00000         -10.171738         -276.78707
      8       2.00000         -10.171136         -276.77071
      9       2.00000         -10.170964         -276.76602
     10       2.00000         -10.166801         -276.65273
     11       2.00000         -10.148505         -276.15488
     12       2.00000         -10.146675         -276.10508
     13       2.00000         -10.135681         -275.80591
     14       2.00000         -10.134294         -275.76816
     15       2.00000         -10.132972         -275.73220
     16       2.00000          -1.134899          -30.88217
     17       2.00000          -1.130856          -30.77217
     18       2.00000          -1.130124          -30.75224
     19       2.00000          -1.016078          -27.64888
     20       2.00000          -1.013995          -27.59220
     21       2.00000          -1.004564          -27.33559
     22       2.00000          -0.882306          -24.00877
     23       2.00000          -0.878084          -23.89389
     24       2.00000          -0.848044          -23.07646
     25       2.00000          -0.816953          -22.23041
     26       2.00000          -0.775094          -21.09139
     27       2.00000          -0.762476          -20.74804
     28       2.00000          -0.699487          -19.03401
     29       2.00000          -0.691989          -18.82997
     30       2.00000          -0.671972          -18.28529
     31       2.00000          -0.644142          -17.52800
     32       2.00000          -0.626220          -17.04031
     33       2.00000          -0.609731          -16.59162
     34       2.00000          -0.601681          -16.37256
     35       2.00000          -0.592856          -16.13244
     36       2.00000          -0.582670          -15.85526
     37       2.00000          -0.565248          -15.38119
     38       2.00000          -0.563198          -15.32540
     39       2.00000          -0.558623          -15.20089
     40       2.00000          -0.549891          -14.96329
     41       2.00000          -0.546487          -14.87067
     42       2.00000          -0.542757          -14.76916
     43       2.00000          -0.535947          -14.58385
     44       2.00000          -0.526401          -14.32410
     45       2.00000          -0.522979          -14.23098
     46       2.00000          -0.517894          -14.09261
     47       2.00000          -0.511600          -13.92135
     48       2.00000          -0.504752          -13.73499
     49       2.00000          -0.495054          -13.47112
     50       2.00000          -0.486267          -13.23200
     51       2.00000          -0.477403          -12.99079
     52       2.00000          -0.471658          -12.83447
     53       2.00000          -0.411696          -11.20281
     54       2.00000          -0.405539          -11.03527
     55       2.00000          -0.402910          -10.96373
     56       2.00000          -0.389356          -10.59491
     57       2.00000          -0.384289          -10.45704
     58       2.00000          -0.376731          -10.25136
     59       0.00000          -0.167572           -4.55987
     60       0.00000          -0.160488           -4.36710
     61       0.00000          -0.156770           -4.26594
     62       0.00000          -0.084377           -2.29601
     63       0.00000          -0.068019           -1.85088
     64       0.00000          -0.062623           -1.70407
     65       0.00000          -0.054357           -1.47912
     66       0.00000          -0.046112           -1.25478
     67       0.00000          -0.036649           -0.99728
     68       0.00000          -0.032312           -0.87925
     69       0.00000          -0.028420           -0.77334
     70       0.00000          -0.024987           -0.67993
     71       0.00000          -0.022376           -0.60889
     72       0.00000          -0.016933           -0.46078
     73       0.00000          -0.012556           -0.34167
     74       0.00000          -0.007850           -0.21362
     75       0.00000          -0.005680           -0.15455
     76       0.00000          -0.002029           -0.05520
     77       0.00000           0.002721            0.07404
     78       0.00000           0.007956            0.21650
     79       0.00000           0.012996            0.35363
     80       0.00000           0.016878            0.45927
     81       0.00000           0.027106            0.73758
     82       0.00000           0.030128            0.81983
     83       0.00000           0.031216            0.84943
     84       0.00000           0.041560            1.13090
     85       0.00000           0.043683            1.18867
     86       0.00000           0.051262            1.39491
     87       0.00000           0.058987            1.60513
     88       0.00000           0.062552            1.70212
     89       0.00000           0.067023            1.82378
     90       0.00000           0.075672            2.05914
     91       0.00000           0.078416            2.13380
     92       0.00000           0.082531            2.24577
     93       0.00000           0.087994            2.39443
     94       0.00000           0.098892            2.69098
     95       0.00000           0.101591            2.76444
     96       0.00000           0.111813            3.04258
     97       0.00000           0.113361            3.08470
     98       0.00000           0.116972            3.18297
     99       0.00000           0.121548            3.30749
    100       0.00000           0.124758            3.39484
    101       0.00000           0.126309            3.43705
    102       0.00000           0.137665            3.74606
    103       0.00000           0.141365            3.84674
    104       0.00000           0.148293            4.03525
    105       0.00000           0.151916            4.13385
    106       0.00000           0.154537            4.20515
    107       0.00000           0.157929            4.29746
    108       0.00000           0.165551            4.50488
    109       0.00000           0.167091            4.54677
    110       0.00000           0.169977            4.62532
    111       0.00000           0.174228            4.74098
    112       0.00000           0.183372            4.98982
    113       0.00000           0.187479            5.10156
    114       0.00000           0.193219            5.25777
    115       0.00000           0.194392            5.28968
    116       0.00000           0.197680            5.37915
    117       0.00000           0.202579            5.51245
    118       0.00000           0.205433            5.59012
    119       0.00000           0.210660            5.73235
    120       0.00000           0.225886            6.14666
    121       0.00000           0.229101            6.23417
    122       0.00000           0.229429            6.24309
    123       0.00000           0.234958            6.39353
    124       0.00000           0.246243            6.70061
    125       0.00000           0.246809            6.71602
    126       0.00000           0.258452            7.03282
    127       0.00000           0.262526            7.14369
    128       0.00000           0.272815            7.42368
    129       0.00000           0.278972            7.59121

  Highest occupied state (VBM) at    -10.25136415 eV
  | Occupation number:      2.00000000

  Lowest unoccupied state (CBM) at    -4.55987485 eV
  | Occupation number:      0.00000000

  Overall HOMO-LUMO gap:      5.69148930 eV.
  Calculating total energy contributions from superposition of free atom densities.

  Total energy components:
  | Sum of eigenvalues            :        -437.84825365 Ha      -11914.45718262 eV
  | XC energy correction          :         -98.82863029 Ha       -2689.26385852 eV
  | XC potential correction       :         127.03432611 Ha        3456.77989240 eV
  | Free-atom electrostatic energy:        -333.62896012 Ha       -9078.50591403 eV
  | Hartree energy correction     :           0.00000000 Ha           0.00000000 eV
  | MBD@rsSCS energy              :           0.00000000 Ha           0.00000000 eV
  | Entropy correction            :          -0.00000000 Ha          -0.00000000 eV
  | ---------------------------
  | Total energy                  :        -743.27151795 Ha      -20225.44706278 eV
  | Total energy, T -> 0          :        -743.27151795 Ha      -20225.44706278 eV  <-- do not rely on this value for anything but (periodic) metals
  | Electronic free energy        :        -743.27151795 Ha      -20225.44706278 eV

  Derived energy quantities:
  | Kinetic energy                :         735.17924941 Ha       20005.24523222 eV
  | Electrostatic energy          :       -1379.62213707 Ha      -37541.42843648 eV
  | Energy correction for multipole
  | error in Hartree potential    :           0.00000000 Ha           0.00000000 eV
  | Sum of eigenvalues per atom                           :        -372.32678696 eV
  | Total energy (T->0) per atom                          :        -632.04522071 eV  <-- do not rely on this value for anything but (periodic) metals
  | Electronic free energy per atom                       :        -632.04522071 eV
  Initialize hartree_potential_storage
  Max. number of atoms included in rho_multipole:           32

  End scf initialization - timings             :  max(cpu_time)    wall_clock(cpu1)
  | Time for scf. initialization               :        2.132 s           2.127 s
  | Boundary condition initialization          :        0.000 s           0.000 s
  | Integration                                :        1.372 s           1.371 s
  | Solution of K.-S. eqns.                    :        0.076 s           0.075 s
  | Grid partitioning                          :        0.276 s           0.273 s
  | Preloading free-atom quantities on grid    :        0.028 s           0.028 s
  | Free-atom superposition energy             :        0.044 s           0.042 s
  | Total energy evaluation                    :        0.004 s           0.001 s
------------------------------------------------------------

------------------------------------------------------------
          Begin self-consistency iteration #    1

  Date     :  20170309, Time     :  184558.566
------------------------------------------------------------
  Evaluating new KS density.
  Integration grid: deviation in total charge (<rho> - N_e) =   0.000000E+00
  Pulay mixing of updated and previous charge densities.

  Evaluating partitioned Hartree potential by multipole expansion.
  | Analytical far-field extrapolation by fixed multipoles:
  | Hartree multipole sum: apparent total charge =   0.649363E-04
  Summing up the Hartree potential.
  Time summed over all CPUs for potential: real work        9.682 s, elapsed        9.998 s
  | RMS charge density error from multipole expansion :   0.108695E-01

  Integrating Hamiltonian matrix: batch-based integration.
  Time summed over all CPUs for integration: real work       25.473 s, elapsed       26.583 s

  Updating Kohn-Sham eigenvalues, eigenvectors, occupation numbers, and Fermi level.
  Solving generalized eigenproblem
  Solving real symmetric generalised eigenvalue problem by standard ScaLAPACK.
  Using Cholesky factor for transformation
  Using 2-stage real ELPA solver
  K-Point:    1, Trafo times: 1-stage=     0.021 s, 2-stage=     0.019 s ==> Using 2-stage solver
  Determining occupation numbers for Kohn-Sham eigenstates.
  | Chemical potential (Fermi level) in eV                 : -.36554672E+01
  | Error in electron count due to remaining E_F inaccuracy: 0.00000000E+00
  | Maximum occupation number of highest empty state:  0.00E+00

  Writing Kohn-Sham eigenvalues.

  State    Occupation    Eigenvalue [Ha]    Eigenvalue [eV]
      1       2.00000         -18.613926         -506.51068
      2       2.00000         -18.612980         -506.48496
      3       2.00000         -18.612301         -506.46648
      4       2.00000         -13.992547         -380.75657
      5       2.00000         -13.988409         -380.64396
      6       2.00000         -13.984192         -380.52921
      7       2.00000         -10.056070         -273.63958
      8       2.00000         -10.051893         -273.52591
      9       2.00000         -10.047813         -273.41490
     10       2.00000          -9.977703         -271.50711
     11       2.00000          -9.967162         -271.22027
     12       2.00000          -9.871967         -268.62989
     13       2.00000          -9.859331         -268.28605
     14       2.00000          -9.849044         -268.00613
     15       2.00000          -9.834652         -267.61451
     16       2.00000          -0.965847          -26.28204
     17       2.00000          -0.955511          -26.00079
     18       2.00000          -0.954144          -25.96357
     19       2.00000          -0.866516          -23.57911
     20       2.00000          -0.860150          -23.40587
     21       2.00000          -0.857524          -23.33441
     22       2.00000          -0.740497          -20.14994
     23       2.00000          -0.730088          -19.86670
     24       2.00000          -0.688194          -18.72671
     25       2.00000          -0.665475          -18.10851
     26       2.00000          -0.640601          -17.43163
     27       2.00000          -0.627721          -17.08114
     28       2.00000          -0.567216          -15.43473
     29       2.00000          -0.559682          -15.22972
     30       2.00000          -0.546675          -14.87578
     31       2.00000          -0.513856          -13.98274
     32       2.00000          -0.493435          -13.42704
     33       2.00000          -0.481739          -13.10878
     34       2.00000          -0.455722          -12.40084
     35       2.00000          -0.441037          -12.00123
     36       2.00000          -0.435269          -11.84427
     37       2.00000          -0.423942          -11.53604
     38       2.00000          -0.411896          -11.20827
     39       2.00000          -0.409588          -11.14546
     40       2.00000          -0.405388          -11.03116
     41       2.00000          -0.401583          -10.92764
     42       2.00000          -0.389624          -10.60222
     43       2.00000          -0.382066          -10.39655
     44       2.00000          -0.377139          -10.26249
     45       2.00000          -0.375105          -10.20712
     46       2.00000          -0.369222          -10.04705
     47       2.00000          -0.360591           -9.81218
     48       2.00000          -0.357647           -9.73207
     49       2.00000          -0.352929           -9.60369
     50       2.00000          -0.341164           -9.28353
     51       2.00000          -0.335391           -9.12646
     52       2.00000          -0.333689           -9.08014
     53       2.00000          -0.239996           -6.53062
     54       2.00000          -0.233620           -6.35711
     55       2.00000          -0.229686           -6.25007
     56       2.00000          -0.212293           -5.77679
     57       2.00000          -0.210349           -5.72388
     58       2.00000          -0.204139           -5.55491
     59       0.00000          -0.052626           -1.43203
     60       0.00000          -0.051734           -1.40774
     61       0.00000          -0.041823           -1.13807
     62       0.00000          -0.036394           -0.99033
     63       0.00000          -0.018873           -0.51355
     64       0.00000          -0.014806           -0.40288
     65       0.00000          -0.009045           -0.24611
     66       0.00000           0.004538            0.12349
     67       0.00000           0.010021            0.27269
     68       0.00000           0.017490            0.47594
     69       0.00000           0.018680            0.50830
     70       0.00000           0.032792            0.89232
     71       0.00000           0.036168            0.98418
     72       0.00000           0.041623            1.13263
     73       0.00000           0.046685            1.27035
     74       0.00000           0.051975            1.41432
     75       0.00000           0.054220            1.47540
     76       0.00000           0.062749            1.70749
     77       0.00000           0.071717            1.95153
     78       0.00000           0.075394            2.05159
     79       0.00000           0.087474            2.38028
     80       0.00000           0.090455            2.46142
     81       0.00000           0.091411            2.48742
     82       0.00000           0.096326            2.62116
     83       0.00000           0.102054            2.77704
     84       0.00000           0.106431            2.89614
     85       0.00000           0.112871            3.07138
     86       0.00000           0.117802            3.20557
     87       0.00000           0.127434            3.46765
     88       0.00000           0.130507            3.55128
     89       0.00000           0.134176            3.65111
     90       0.00000           0.140924            3.83475
     91       0.00000           0.143681            3.90975
     92       0.00000           0.146597            3.98910
     93       0.00000           0.162181            4.41316
     94       0.00000           0.166228            4.52328
     95       0.00000           0.169254            4.60563
     96       0.00000           0.175039            4.76306
     97       0.00000           0.176236            4.79563
     98       0.00000           0.177704            4.83557
     99       0.00000           0.187265            5.09574
    100       0.00000           0.188955            5.14174
    101       0.00000           0.190767            5.19104
    102       0.00000           0.200962            5.46845
    103       0.00000           0.206736            5.62556
    104       0.00000           0.210849            5.73748
    105       0.00000           0.213323            5.80483
    106       0.00000           0.218899            5.95655
    107       0.00000           0.219591            5.97537
    108       0.00000           0.223817            6.09038
    109       0.00000           0.234610            6.38405
    110       0.00000           0.235857            6.41799
    111       0.00000           0.238655            6.49412
    112       0.00000           0.241664            6.57602
    113       0.00000           0.249192            6.78085
    114       0.00000           0.257201            6.99880
    115       0.00000           0.260899            7.09941
    116       0.00000           0.265391            7.22165
    117       0.00000           0.272694            7.42039
    118       0.00000           0.277548            7.55245
    119       0.00000           0.283254            7.70772
    120       0.00000           0.288428            7.84853
    121       0.00000           0.295136            8.03106
    122       0.00000           0.299910            8.16098
    123       0.00000           0.301685            8.20926
    124       0.00000           0.308682            8.39965
    125       0.00000           0.317944            8.65169
    126       0.00000           0.325761            8.86441
    127       0.00000           0.329489            8.96585
    128       0.00000           0.340092            9.25438
    129       0.00000           0.350199            9.52940

  Highest occupied state (VBM) at     -5.55491223 eV
  | Occupation number:      2.00000000

  Lowest unoccupied state (CBM) at    -1.43202619 eV
  | Occupation number:      0.00000000

  Overall HOMO-LUMO gap:      4.12288605 eV.

  Total energy components:
  | Sum of eigenvalues            :        -417.44786680 Ha      -11359.33441231 eV
  | XC energy correction          :        -100.75275978 Ha       -2741.62208587 eV
  | XC potential correction       :         129.52859579 Ha        3524.65242368 eV
  | Free-atom electrostatic energy:        -333.62896012 Ha       -9078.50591403 eV
  | Hartree energy correction     :         -20.40415489 Ha        -555.22530405 eV
  | MBD@rsSCS energy              :           0.00000000 Ha           0.00000000 eV
  | Entropy correction            :           0.00000000 Ha           0.00000000 eV
  | ---------------------------
  | Total energy                  :        -742.70514580 Ha      -20210.03529259 eV
  | Total energy, T -> 0          :        -742.70514580 Ha      -20210.03529259 eV  <-- do not rely on this value for anything but (periodic) metals
  | Electronic free energy        :        -742.70514580 Ha      -20210.03529259 eV

  Derived energy quantities:
  | Kinetic energy                :         744.02752010 Ha       20246.01892809 eV
  | Electrostatic energy          :       -1385.97990612 Ha      -37714.43213481 eV
  | Energy correction for multipole
  | error in Hartree potential    :          -0.04295137 Ha          -1.16876630 eV
  | Sum of eigenvalues per atom                           :        -354.97920038 eV
  | Total energy (T->0) per atom                          :        -631.56360289 eV  <-- do not rely on this value for anything but (periodic) metals
  | Electronic free energy per atom                       :        -631.56360289 eV

  Self-consistency convergence accuracy:
  | Change of charge density      :  0.9033E+00
  | Change of sum of eigenvalues  :  0.5551E+03 eV
  | Change of total energy        :  0.1541E+02 eV

  End self-consistency iteration #     1       :  max(cpu_time)    wall_clock(cpu1)
  | Time for this iteration                    :        1.744 s           1.742 s
[...]
   Multipole                     :  0.717717E-02  0.429583E+00  0.398040E+00
   Pulay + GGA                   : -0.481745E+00  0.104588E+02  0.785198E+01
   MBD@rsSCS                     : -0.112090E-01 -0.643975E-03  0.261829E-01
   ----------------------------------------------------------------
   Total forces(  20)            : -0.792154E-02  0.529870E-03  0.847202E-02
  atom #   21
   Hellmann-Feynman              :  0.120175E-01 -0.517750E-01  0.521418E-01
   Ionic forces                  :  0.000000E+00  0.000000E+00  0.000000E+00
   Multipole                     :  0.160725E-01  0.397082E-01 -0.433348E-02
   Pulay + GGA                   : -0.308564E-01  0.111191E-01 -0.599984E-01
   MBD@rsSCS                     :  0.796062E-02  0.222281E-02  0.484644E-02
   ----------------------------------------------------------------
   Total forces(  21)            :  0.519421E-02  0.127521E-02 -0.734356E-02
  atom #   22
   Hellmann-Feynman              :  0.229102E-02 -0.419579E-01  0.538230E-01
   Ionic forces                  :  0.000000E+00  0.000000E+00  0.000000E+00
   Multipole                     :  0.158072E-01  0.882542E-02 -0.765143E-03
   Pulay + GGA                   : -0.160246E-01  0.373621E-01 -0.537481E-01
   MBD@rsSCS                     :  0.346518E-02 -0.183821E-02  0.473545E-02
   ----------------------------------------------------------------
   Total forces(  22)            :  0.553885E-02  0.239145E-02  0.404526E-02
  atom #   23
   Hellmann-Feynman              : -0.332693E+00  0.648130E+00  0.470127E+00
   Ionic forces                  :  0.000000E+00  0.000000E+00  0.000000E+00
   Multipole                     : -0.220056E-02 -0.174031E+00 -0.207264E+00
   Pulay + GGA                   :  0.339046E+00 -0.467648E+00 -0.263049E+00
   MBD@rsSCS                     :  0.327993E-02 -0.302076E-01  0.639229E-02
   ----------------------------------------------------------------
   Total forces(  23)            :  0.743214E-02 -0.237561E-01  0.620669E-02
  atom #   24
   Hellmann-Feynman              : -0.339368E-01 -0.348893E-01 -0.390413E-01
   Ionic forces                  :  0.000000E+00  0.000000E+00  0.000000E+00
   Multipole                     : -0.507754E-02 -0.447294E-02  0.342085E-01
   Pulay + GGA                   :  0.469720E-01  0.351905E-01 -0.266198E-02
   MBD@rsSCS                     :  0.483086E-02 -0.106766E-01 -0.481492E-02
   ----------------------------------------------------------------
   Total forces(  24)            :  0.127885E-01 -0.148484E-01 -0.123098E-01
  atom #   25
   Hellmann-Feynman              : -0.961604E-02  0.121057E-01 -0.384617E-01
   Ionic forces                  :  0.000000E+00  0.000000E+00  0.000000E+00
   Multipole                     : -0.905573E-02  0.101926E-01 -0.220625E-01
   Pulay + GGA                   :  0.218102E-01 -0.270856E-01  0.575467E-01
   MBD@rsSCS                     :  0.175755E-02 -0.227347E-01 -0.152275E-02
   ----------------------------------------------------------------
   Total forces(  25)            :  0.489596E-02 -0.275219E-01 -0.450023E-02
  atom #   26
   Hellmann-Feynman              :  0.229605E-01 -0.238442E-01 -0.475163E-01
   Ionic forces                  :  0.000000E+00  0.000000E+00  0.000000E+00
   Multipole                     :  0.257777E-01  0.519611E-02  0.261603E-01
   Pulay + GGA                   : -0.524552E-01  0.291912E-01  0.147163E-01
   MBD@rsSCS                     : -0.177326E-02 -0.128769E-01 -0.766102E-03
   ----------------------------------------------------------------
   Total forces(  26)            : -0.549028E-02 -0.233382E-02 -0.740580E-02
  atom #   27
   Hellmann-Feynman              : -0.749498E+00  0.107331E+01 -0.134825E+01
   Ionic forces                  :  0.000000E+00  0.000000E+00  0.000000E+00
   Multipole                     : -0.200635E+00 -0.911770E-01 -0.122802E+00
   Pulay + GGA                   :  0.955820E+00 -0.958702E+00  0.146110E+01
   MBD@rsSCS                     : -0.330710E-01 -0.149411E-01  0.107367E-01
   ----------------------------------------------------------------
   Total forces(  27)            : -0.273836E-01  0.849007E-02  0.786219E-03
  atom #   28
   Hellmann-Feynman              :  0.231258E+01 -0.110749E+01 -0.283834E+00
   Ionic forces                  :  0.000000E+00  0.000000E+00  0.000000E+00
   Multipole                     : -0.167472E+00  0.936012E-01  0.301472E-01
   Pulay + GGA                   : -0.212736E+01  0.101743E+01  0.243966E+00
   MBD@rsSCS                     : -0.178447E-01 -0.712341E-02  0.774245E-02
   ----------------------------------------------------------------
   Total forces(  28)            : -0.101798E-03 -0.358395E-02 -0.197768E-02
  atom #   29
   Hellmann-Feynman              :  0.503651E-02 -0.294290E-01 -0.188829E-01
   Ionic forces                  :  0.000000E+00  0.000000E+00  0.000000E+00
   Multipole                     :  0.237917E-01 -0.899986E-02 -0.191026E-01
   Pulay + GGA                   : -0.223248E-01  0.523121E-01  0.382338E-01
   MBD@rsSCS                     : -0.612160E-02 -0.739785E-02  0.212475E-02
   ----------------------------------------------------------------
   Total forces(  29)            :  0.381770E-03  0.648538E-02  0.237307E-02
  atom #   30
   Hellmann-Feynman              : -0.521039E-01 -0.367849E-02 -0.321358E-02
   Ionic forces                  :  0.000000E+00  0.000000E+00  0.000000E+00
   Multipole                     :  0.136918E-01 -0.413000E-01  0.461478E-02
   Pulay + GGA                   :  0.418601E-01  0.487097E-01  0.224575E-03
   MBD@rsSCS                     : -0.671076E-02 -0.277960E-03  0.715406E-03
   ----------------------------------------------------------------
   Total forces(  30)            : -0.326281E-02  0.345325E-02  0.234119E-02
  atom #   31
   Hellmann-Feynman              : -0.623133E-01  0.203324E-01  0.130908E-01
   Ionic forces                  :  0.000000E+00  0.000000E+00  0.000000E+00
   Multipole                     :  0.389092E-01  0.750361E-02  0.327032E-01
   Pulay + GGA                   :  0.248724E-01 -0.271089E-01 -0.522973E-01
   MBD@rsSCS                     : -0.773715E-02 -0.766010E-03  0.261531E-02
   ----------------------------------------------------------------
   Total forces(  31)            : -0.626894E-02 -0.388884E-04 -0.388800E-02
  atom #   32
   Hellmann-Feynman              : -0.580692E-01  0.756048E-02 -0.112146E-02
   Ionic forces                  :  0.000000E+00  0.000000E+00  0.000000E+00
   Multipole                     :  0.169649E-01  0.176561E-01 -0.276122E-01
   Pulay + GGA                   :  0.415982E-01 -0.192263E-01  0.294263E-01
   MBD@rsSCS                     : -0.131269E-01 -0.354131E-02  0.263897E-02
   ----------------------------------------------------------------
   Total forces(  32)            : -0.126330E-01  0.244897E-02  0.333160E-02

  Removing unitary transformations (pure translations, rotations) from forces on atoms.
  Atomic forces before filtering:
  | Net force on center of mass :  -0.581598E-03 -0.378140E-04  0.408374E-03 eV/A
  | Net torque on center of mass:  -0.578935E-03  0.222043E-02  0.771541E-04 eV
  Atomic forces after filtering:
  | Net force on center of mass :  -0.557519E-17  0.432077E-16  0.975658E-17 eV/A
  | Net torque on center of mass:  -0.293643E-16 -0.737566E-17 -0.295026E-17 eV

  Energy and forces in a compact form:
  | Total energy uncorrected      :         -0.202087941976801E+05 eV
  | Total energy corrected        :         -0.202087941976801E+05 eV  <-- do not rely on this value for anything but (periodic) metals
  | Electronic free energy        :         -0.202087941976801E+05 eV
  Total atomic forces (unitary forces cleaned) [eV/Ang]:
  |   1         -0.166990373046428E-01          0.825072670874195E-02          0.715520159987584E-02
  |   2         -0.131873248484283E-01          0.952179301724435E-02         -0.144066940226435E-01
  |   3          0.990167906074377E-02         -0.959980292600056E-03         -0.698653199624718E-02
  |   4         -0.936228711066131E-02          0.207449053043621E-01          0.332665360420675E-02
  |   5         -0.907368453266369E-02          0.139712187196931E-01          0.781187136336697E-02
  |   6          0.470597864484594E-02         -0.376394968003856E-03          0.284068334462243E-02
  |   7         -0.191745513104057E-01          0.777865706793376E-02         -0.366995741948966E-01
  |   8          0.237232594399646E-01         -0.287150876514494E-02         -0.193984122628307E-01
  |   9          0.303536116868573E-01          0.211603003688123E-01          0.364832296029921E-02
  |  10         -0.112646703660531E-01         -0.639002164548496E-03          0.165228456342355E-01
  |  11         -0.193505991804691E-01          0.111700038764873E-01          0.133778719373877E-01
  |  12          0.798365878198980E-02         -0.431253201466143E-02          0.425229045841914E-02
  |  13         -0.390659829485469E-02         -0.384625717394885E-02         -0.746954228369169E-02
  |  14          0.372500567374874E-02         -0.949215854469579E-02         -0.126862942606145E-01
  |  15          0.260226551250060E-01          0.586759717312950E-02         -0.189748924722669E-01
  |  16          0.158281220008811E-01         -0.536202109656224E-02         -0.850883471933908E-02
  |  17          0.160966261526123E-01          0.753560049319787E-03          0.239474794104671E-01
  |  18          0.101613090394234E-03         -0.128479302547784E-01          0.152905774981971E-01
  |  19         -0.996279246642060E-02         -0.115591388557747E-01          0.367696814133452E-01
  |  20         -0.787692974292352E-02          0.538833396584517E-03          0.846929631803258E-02
  |  21          0.523841823911678E-02          0.128358183573541E-02         -0.738082546155188E-02
  |  22          0.558279064101094E-02          0.240006213948396E-02          0.403067621587842E-02
  |  23          0.745089533757658E-02         -0.237547283455561E-01          0.619419711121404E-02
  |  24          0.128096596668246E-01         -0.148462037834991E-01         -0.123115295923191E-01
  |  25          0.490288839121184E-02         -0.275239571861239E-01         -0.451064537495779E-02
  |  26         -0.547246813624801E-02         -0.233289148821168E-02         -0.742961844135684E-02
  |  27         -0.273549034807113E-01          0.849466155562374E-02          0.801093279249130E-03
  |  28         -0.712918423977735E-04         -0.357862321391576E-02         -0.194812195237971E-02
  |  29          0.401705888355317E-03          0.648745653811883E-02          0.238837735610946E-02
  |  30         -0.323124052761764E-02          0.345903341839076E-02          0.238223681663389E-02
  |  31         -0.622731971058463E-02         -0.303756359727184E-04         -0.386017904835849E-02
  |  32         -0.126128689660579E-01          0.245131261433664E-02          0.336233976191349E-02

  ------------------------------------ 
  Start decomposition of the XC Energy 
  ------------------------------------ 
  Hartree-Fock part   :          0.000000000 Ha              0.000000000 eV
  ------------------------------------ 
  X Energy            :        -96.984625527 Ha          -2639.085935813 eV
  C Energy GGA        :         -3.871309382 Ha           -105.343688106 eV
  Total XC Energy     :       -100.855934909 Ha          -2744.429623919 eV
  LDA X and C from self-consistent density 
  X Energy LDA        :        -88.006225493 Ha          -2394.771240289 eV
  C Energy LDA        :         -7.532938329 Ha           -204.981681296 eV
  ------------------------------------ 
  End decomposition of the XC Energy 
  ------------------------------------ 
   
  ESP charge fitting starts.
  | Calculation :  00000001  of  00000001
  | Full density
  Computing multipole expansion for total density.
  Generating points for esp charges.
  Partitioning the integration grid into batches with parallel hashing+maxmin method.
  | Number of batches:     3910
  | Maximal batch size:     200
  | Minimal batch size:      53
  | Average batch size:     124.792
  | Standard deviation of batch sizes:      17.737

  Integration load balanced across    32 MPI tasks.
  Work distribution over tasks is as follows:
  Initializing partition tables, free-atom densities, potentials, etc. across the integration grid (initialize_grid_storage).
  | Original list of interatomic distances with          32 x         32 entries is created.
  | Net number of integration points:   487936
  | of which are non-zero points    :   487936
  Summing up potential from multipole expanded  density.
  Summing up the Hartree potential.
  Time summed over all CPUs for potential: real work        6.432 s, elapsed        6.693 s
  Fitting esp charges to potential.
  |
  | ESP charges fitted to the electrostatic potential :
  |
  | Atom         1: C, ESP charge:      0.63693375
  |
  | Atom         2: C, ESP charge:     -0.68174763
  |
  | Atom         3: O, ESP charge:      0.56514515
  |
  | Atom         4: H, ESP charge:     -0.21810340
  |
  | Atom         5: H, ESP charge:     -0.17882327
  |
  | Atom         6: H, ESP charge:     -0.18287598
  |
  | Atom         7: N, ESP charge:      0.55229079
  |
  | Atom         8: C, ESP charge:     -0.52591884
  |
  | Atom         9: C, ESP charge:     -0.23277335
  |
  | Atom        10: O, ESP charge:      0.48866628
  |
  | Atom        11: H, ESP charge:     -0.26462234
  |
  | Atom        12: H, ESP charge:      0.01956374
  |
  | Atom        13: C, ESP charge:      0.53680819
  |
  | Atom        14: H, ESP charge:     -0.16383099
  |
  | Atom        15: H, ESP charge:     -0.13716413
  |
  | Atom        16: H, ESP charge:     -0.13625839
  |
  | Atom        17: N, ESP charge:      0.25896181
  |
  | Atom        18: C, ESP charge:      0.22750429
  |
  | Atom        19: C, ESP charge:     -0.50931237
  |
  | Atom        20: O, ESP charge:      0.49736881
  |
  | Atom        21: H, ESP charge:     -0.28358933
  |
  | Atom        22: H, ESP charge:     -0.18113462
  |
  | Atom        23: C, ESP charge:      0.29228024
  |
  | Atom        24: H, ESP charge:     -0.07528820
  |
  | Atom        25: H, ESP charge:     -0.07780658
  |
  | Atom        26: H, ESP charge:     -0.13103229
  |
  | Atom        27: N, ESP charge:      0.31949550
  |
  | Atom        28: C, ESP charge:      0.52947663
  |
  | Atom        29: H, ESP charge:     -0.33968156
  |
  | Atom        30: H, ESP charge:     -0.17300464
  |
  | Atom        31: H, ESP charge:     -0.21922005
  |
  | Atom        32: H, ESP charge:     -0.21230723

  RRMS:       0.00345125

  Done.

------------------------------------------------------------------------------
  Final output of selected total energy values:

  The following output summarizes some interesting total energy values
  at the end of a run (AFTER all relaxation, molecular dynamics, etc.).

  | Total energy of the DFT / Hartree-Fock s.c.f. calculation      :         -20208.794197680 eV
  | Final zero-broadening corrected energy (caution - metals only) :         -20208.794197680 eV
  | For reference only, the value of 1 Hartree used in FHI-aims is :             27.211384500 eV

  Before relying on these values, please be sure to understand exactly which
  total energy value is referred to by a given number. Different objects may
  all carry the same name 'total energy'. Definitions:

  Total energy of the DFT / Hartree-Fock s.c.f. calculation:
  | Note that this energy does not include ANY quantities calculated after the
  | s.c.f. cycle, in particular not ANY RPA, MP2, etc. many-body perturbation terms.

  Final zero-broadening corrected energy:
  | For metallic systems only, a broadening of the occupation numbers at the Fermi
  | level can be extrapolated back to zero broadening by an electron-gas inspired
  | formula. For all systems that are not real metals, this value can be
  | meaningless and should be avoided.

------------------------------------------------------------------------------
  Methods described in the following list of references were used in this FHI-aims run.
  If you publish the results, please make sure to cite these reference if they apply.
  FHI-aims is an academic code, and for our developers (often, Ph.D. students
  and postdocs), scientific credit in the community is essential.
  Thank you for helping us!

  For any use of FHI-aims, please cite:

    Volker Blum, Ralf Gehrke, Felix Hanke, Paula Havu, Ville Havu,
    Xinguo Ren, Karsten Reuter, and Matthias Scheffler
    'Ab initio molecular simulations with numeric atom-centered orbitals'
    Computer Physics Communications 180, 2175-2196 (2009)
    http://dx.doi.org/10.1016/j.cpc.2009.06.022


  The scalable eigensolver library ELPA was used in your run.
  ELPA is essential especially for large systems on hundreds or thousands of CPUs.
  For ELPA, please cite:

    Andreas Marek, Volker Blum, Rainer Johanni, Ville Havu, Bruno Lang,
    Thomas Auckenthaler, Alexander Heinecke, Hans-Joachim Bungartz, and Hermann Lederer,
    'The ELPA Library - Scalable Parallel Eigenvalue Solutions
    for Electronic Structure Theory and Computational Science'
    The Journal of Physics: Condensed Matter 26, 213201 (2014).
    http://dx.doi.org/10.1088/0953-8984/26/21/213201


  For ELPA's efficient two-stage tridiagonalization used in your run, please cite:

    T. Auckenthaler, V. Blum, H.-J. Bungartz, T. Huckle, R. Johanni, L. Kraemer,
    B. Lang, H. Lederer, and P. R. Willems,
    'Parallel solution of partial symmetric eigenvalue problems'
    'from  electronic structure calculations'
    Parallel Computing 37, 783-794 (2011).
    http://dx.doi.org/10.1016/j.parco.2011.05.002


  For the real-space grid partitioning and parallelization used in this calculation, please cite:

    Ville Havu, Volker Blum, Paula Havu, and Matthias Scheffler,
    'Efficient O(N) integration for all-electron electronic structure calculation'
    'using numerically tabulated basis functions'
    Journal of Computational Physics 228, 8367-8379 (2009).
    http://dx.doi.org/10.1016/j.jcp.2009.08.008

  Of course, there are many other important community references, e.g., those cited in the
  above references. Our list is limited to references that describe implementations in the
  FHI-aims code. The reason is purely practical (length of this list) - please credit others as well.

------------------------------------------------------------
          Leaving FHI-aims.
          Date     :  20170309, Time     :  184632.073

          Computational steps:
          | Number of self-consistency cycles          :           14

          Detailed time accounting                     :  max(cpu_time)    wall_clock(cpu1)
          | Total time                                 :       36.474 s          36.661 s
          | Preparation time                           :        0.240 s           0.239 s
          | Grid partitioning                          :        0.276 s           0.273 s
          | Preloading free-atom quantities on grid    :        0.028 s           0.028 s
          | Free-atom superposition energy             :        0.044 s           0.042 s
          | Total time for integrations                :       13.173 s          13.154 s
          | Total time for solution of K.-S. equations :        0.532 s           0.495 s
          | Total time for density & force components  :       10.805 s          10.783 s
          | Total time for mixing                      :        0.124 s           0.105 s
          | Total time for Hartree multipole update    :        0.064 s           0.058 s
          | Total time for Hartree multipole sum       :        6.300 s           6.265 s
          | Total time for total energy evaluation     :        0.024 s           0.017 s

          Have a nice day.
------------------------------------------------------------
