  MPI-parallelism will be employed.
------------------------------------------------------------
          Invoking FHI-aims ...
          Version 150427
          Git rev.: 9dd23e0 BL: Update Version stamp
          Compiled on 2015/11/03 at 22:05:20 on host eos03.

          When using FHI-aims, please cite the following reference:

          Volker Blum, Ralf Gehrke, Felix Hanke, Paula Havu,
          Ville Havu, Xinguo Ren, Karsten Reuter, and Matthias Scheffler,
          'Ab Initio Molecular Simulations with Numeric Atom-Centered Orbitals: FHI-aims',
          Computer Physics Communications 180, 2175-2196 (2009)

          For any questions about FHI-aims, please visit the aimsclub website
          with its forums and wiki. Contributions to both the forums and the
          wiki are warmly encouraged - they are for you, and everyone is welcome there.

------------------------------------------------------------

  Date     :  20170309, Time     :  182425.642
  Time zero on CPU 1             :   0.392024000000000E+00  s.
  Internal wall clock time zero  :           258315865.642  s.

  Using       32 parallel tasks.
  Task        0 on host eos026 reporting.
  Task        1 on host eos026 reporting.
  Task        2 on host eos026 reporting.
  Task        3 on host eos026 reporting.
  Task        4 on host eos026 reporting.
  Task        5 on host eos026 reporting.
  Task        6 on host eos026 reporting.
  Task        7 on host eos026 reporting.
  Task        8 on host eos026 reporting.
  Task        9 on host eos026 reporting.
  Task       10 on host eos026 reporting.
  Task       11 on host eos026 reporting.
  Task       12 on host eos026 reporting.
  Task       13 on host eos026 reporting.
  Task       14 on host eos026 reporting.
  Task       15 on host eos026 reporting.
  Task       16 on host eos026 reporting.
  Task       17 on host eos026 reporting.
  Task       18 on host eos026 reporting.
  Task       19 on host eos026 reporting.
  Task       20 on host eos026 reporting.
  Task       21 on host eos026 reporting.
  Task       22 on host eos026 reporting.
  Task       23 on host eos026 reporting.
  Task       24 on host eos026 reporting.
  Task       25 on host eos026 reporting.
  Task       26 on host eos026 reporting.
  Task       27 on host eos026 reporting.
  Task       28 on host eos026 reporting.
  Task       29 on host eos026 reporting.
  Task       30 on host eos026 reporting.
  Task       31 on host eos026 reporting.

  Performing system and environment tests:
  | Environment variable OMP_NUM_THREADS correctly set to 1.
  | Stacksize not measured: no C compiler
  | Checking for scalapack...
  | Testing pdtran()...
  | All pdtran() tests passed.

  Obtaining array dimensions for all initial allocations:
  
  -----------------------------------------------------------------------
  Parsing control.in (first pass over file, find array dimensions only).
  The contents of control.in will be repeated verbatim below
  unless switched off by setting 'verbatim_writeout .false.' .
  in the first line of control.in .
  -----------------------------------------------------------------------
  
  #########################################################################################
  #
  # Input for System
  #
  #########################################################################################
  #
  #
  #  Physical model
  #
    xc                 pbe
    many_body_dispersion
    spin               none
    charge             0.
  #
  #  SCF convergence
  #
    occupation_type    gaussian 0.05
    mixer              pulay
      n_max_pulay        10
      charge_mix_param   0.5
    sc_accuracy_rho    1E-4
    sc_accuracy_eev    1E-2
    sc_accuracy_etot   1E-5
    sc_accuracy_forces 1E-4
    sc_iter_limit      1000
  #
  #  ESP charge
  #
    output esp
    esp equal_grid_n 80 80 80
  #
  #
  ################################################################################
  #
  #  FHI-aims code project
  # Volker Blum, Fritz Haber Institute Berlin, 2009
  #
  #  Suggested "tight" defaults for H atom (to be pasted into control.in file)
  #
  ################################################################################
    species        H
  #     global species definitions
      nucleus             1
      mass                1.00794
  #
      l_hartree           6
  #
      cut_pot             4.0  2.0  1.0
      basis_dep_cutoff    1e-4
  #
      radial_base         24 7.0
      radial_multiplier   2
      angular_grids       specified
        division   0.1930   50
        division   0.3175  110
        division   0.4293  194
        division   0.5066  302
        division   0.5626  434
  #      division   0.5922  590
  #      division   0.6227  974
  #      division   0.6868 1202
  #      outer_grid  770
        outer_grid  434
  ################################################################################
  #
  #  Definition of "minimal" basis
  #
  ################################################################################
  #     valence basis states
      valence      1  s   1.
  #     ion occupancy
      ion_occ      1  s   0.5
  ################################################################################
  #
  #  Suggested additional basis functions. For production calculations,
  #  uncomment them one after another (the most important basis functions are
  #  listed first).
  #
  #  Basis constructed for dimers: 0.5 A, 0.7 A, 1.0 A, 1.5 A, 2.5 A
  #
  ################################################################################
  #  "First tier" - improvements: -1014.90 meV to -62.69 meV
       hydro 2 s 2.1
       hydro 2 p 3.5
  #  "Second tier" - improvements: -12.89 meV to -1.83 meV
       hydro 1 s 0.85
       hydro 2 p 3.7
       hydro 2 s 1.2
       hydro 3 d 7
  #  "Third tier" - improvements: -0.25 meV to -0.12 meV
  #     hydro 4 f 11.2
  #     hydro 3 p 4.8
  #     hydro 4 d 9
  #     hydro 3 s 3.2
  ################################################################################
  #
  # For methods that use the localized form of the "resolution of identity" for
  # the two-electron Coulomb operator (RI_method LVL), particularly Hartree-Fock and
  # hybrid density functional calculations, the highest accuracy can be obtained by
  # uncommenting the line beginning with "for_aux"  below, thus adding an extra g radial
  # function to the construction of the product basis set for the expansion.
  # See Ref. New J. Phys. 17, 093020 (2015) for more information, particularly Figs. 1 and 6.
  #
  ################################################################################
  #
  # for_aux hydro 5 g 6.0
  ################################################################################
  #
  #  FHI-aims code project
  # Volker Blum, Fritz Haber Institute Berlin, 2009
  #
  #  Suggested "tight" defaults for C atom (to be pasted into control.in file)
  #
  ################################################################################
    species        C
  #     global species definitions
      nucleus             6
      mass                12.0107
  #
      l_hartree           6
  #
      cut_pot             4.0  2.0  1.0
      basis_dep_cutoff    1e-4
  #
      radial_base         34 7.0
      radial_multiplier   2
      angular_grids specified
        division   0.2187   50
        division   0.4416  110
        division   0.6335  194
        division   0.7727  302
        division   0.8772  434
  #      division   0.9334  590
  #      division   0.9924  770
  #      division   1.0230  974
  #      division   1.5020 1202
  #     outer_grid  974
        outer_grid  434
  ################################################################################
  #
  #  Definition of "minimal" basis
  #
  ################################################################################
  #     valence basis states
      valence      2  s   2.
      valence      2  p   2.
  #     ion occupancy
      ion_occ      2  s   1.
      ion_occ      2  p   1.
  ################################################################################
  #
  #  Suggested additional basis functions. For production calculations,
  #  uncomment them one after another (the most important basis functions are
  #  listed first).
  #
  #  Constructed for dimers: 1.0 A, 1.25 A, 1.5 A, 2.0 A, 3.0 A
  #
  ################################################################################
  #  "First tier" - improvements: -1214.57 meV to -155.61 meV
       hydro 2 p 1.7
       hydro 3 d 6
       hydro 2 s 4.9
  #  "Second tier" - improvements: -67.75 meV to -5.23 meV
       hydro 4 f 9.8
       hydro 3 p 5.2
       hydro 3 s 4.3
       hydro 5 g 14.4
       hydro 3 d 6.2
  #  "Third tier" - improvements: -2.43 meV to -0.60 meV
  #     hydro 2 p 5.6
  #     hydro 2 s 1.4
  #     hydro 3 d 4.9
  #     hydro 4 f 11.2
  #  "Fourth tier" - improvements: -0.39 meV to -0.18 meV
  #     hydro 2 p 2.1
  #     hydro 5 g 16.4
  #     hydro 4 d 13.2
  #     hydro 3 s 13.6
  #     hydro 4 f 17.6
  #  Further basis functions - improvements: -0.08 meV and below
  #     hydro 3 s 2
  #     hydro 3 p 6
  #     hydro 4 d 20
  ################################################################################
  #
  # For methods that use the localized form of the "resolution of identity" for
  # the two-electron Coulomb operator (RI_method LVL), particularly Hartree-Fock and
  # hybrid density functional calculations, the highest accuracy can be obtained by
  # uncommenting the line beginning with "for_aux"  below, thus adding an extra g radial
  # function to the construction of the product basis set for the expansion.
  # See Ref. New J. Phys. 17, 093020 (2015) for more information, particularly Figs. 1 and 6.
  #
  ################################################################################
  #
  # for_aux hydro 5 g 6.0
  ################################################################################
  #
  #  FHI-aims code project
  # Volker Blum, Fritz Haber Institute Berlin, 2009
  #
  #  Suggested "tight" defaults for N atom (to be pasted into control.in file)
  #
  ################################################################################
    species        N
  #     global species definitions
      nucleus             7
      mass                14.0067
  #
      l_hartree           6
  #
      cut_pot             4.0  2.0  1.0
      basis_dep_cutoff    1e-4
  #
      radial_base         35 7.0
      radial_multiplier   2
      angular_grids       specified
        division   0.1841   50
        division   0.3514  110
        division   0.5126  194
        division   0.6292  302
        division   0.6939  434
  #      division   0.7396  590
  #      division   0.7632  770
  #      division   0.8122  974
  #      division   1.1604 1202
  #      outer_grid  974
        outer_grid  434
  ################################################################################
  #
  #  Definition of "minimal" basis
  #
  ################################################################################
  #     valence basis states
      valence      2  s   2.
      valence      2  p   3.
  #     ion occupancy
      ion_occ      2  s   1.
      ion_occ      2  p   2.
  ################################################################################
  #
  #  Suggested additional basis functions. For production calculations,
  #  uncomment them one after another (the most important basis functions are
  #  listed first).
  #
  #  Constructed for dimers: 1.0 A, 1.1 A, 1.5 A, 2.0 A, 3.0 A
  #
  ################################################################################
  #  "First tier" - improvements: -1193.42 meV to -220.60 meV
       hydro 2 p 1.8
       hydro 3 d 6.8
       hydro 3 s 5.8
  #  "Second tier" - improvements: -80.21 meV to -6.86 meV
       hydro 4 f 10.8
       hydro 3 p 5.8
       hydro 1 s 0.8
       hydro 5 g 16
       hydro 3 d 4.9
  #  "Third tier" - improvements: -4.29 meV to -0.53 meV
  #     hydro 3 s 16
  #     ionic 2 p auto
  #     hydro 3 d 6.6
  #     hydro 4 f 11.6
  #  "Fourth tier" - improvements: -0.75 meV to -0.25 meV
  #     hydro 2 p 4.5
  #     hydro 2 s 2.4
  #     hydro 5 g 14.4
  #     hydro 4 d 14.4
  #     hydro 4 f 16.8
  # Further basis functions - -0.21 meV and below
  #     hydro 3 p 14.8
  #     hydro 3 s 4.4
  #     hydro 3 d 19.6
  #     hydro 5 g 12.8
  ################################################################################
  #
  # For methods that use the localized form of the "resolution of identity" for
  # the two-electron Coulomb operator (RI_method LVL), particularly Hartree-Fock and
  # hybrid density functional calculations, the highest accuracy can be obtained by
  # uncommenting the line beginning with "for_aux"  below, thus adding an extra g radial
  # function to the construction of the product basis set for the expansion.
  # See Ref. New J. Phys. 17, 093020 (2015) for more information, particularly Figs. 1 and 6.
  #
  ################################################################################
  #
  # for_aux hydro 5 g 6.0
  ################################################################################
  #
  #  FHI-aims code project
  # Volker Blum, Fritz Haber Institute Berlin, 2009
  #
  #  Suggested "tight" defaults for O atom (to be pasted into control.in file)
  #
  ################################################################################
    species        O
  #     global species definitions
      nucleus             8
      mass                15.9994
  #
      l_hartree           6
  #
      cut_pot             4.0  2.0  1.0
      basis_dep_cutoff    1e-4
  #
      radial_base         36 7.0
      radial_multiplier   2
       angular_grids specified
        division   0.1817   50
        division   0.3417  110
        division   0.4949  194
        division   0.6251  302
        division   0.8014  434
  #      division   0.8507  590
  #      division   0.8762  770
  #      division   0.9023  974
  #      division   1.2339 1202
  #      outer_grid 974
        outer_grid  434
  ################################################################################
  #
  #  Definition of "minimal" basis
  #
  ################################################################################
  #     valence basis states
      valence      2  s   2.
      valence      2  p   4.
  #     ion occupancy
      ion_occ      2  s   1.
      ion_occ      2  p   3.
  ################################################################################
  #
  #  Suggested additional basis functions. For production calculations,
  #  uncomment them one after another (the most important basis functions are
  #  listed first).
  #
  #  Constructed for dimers: 1.0 A, 1.208 A, 1.5 A, 2.0 A, 3.0 A
  #
  ################################################################################
  #  "First tier" - improvements: -699.05 meV to -159.38 meV
       hydro 2 p 1.8
       hydro 3 d 7.6
       hydro 3 s 6.4
  #  "Second tier" - improvements: -49.91 meV to -5.39 meV
       hydro 4 f 11.6
       hydro 3 p 6.2
       hydro 3 d 5.6
       hydro 5 g 17.6
       hydro 1 s 0.75
  #  "Third tier" - improvements: -2.83 meV to -0.50 meV
  #     ionic 2 p auto
  #     hydro 4 f 10.8
  #     hydro 4 d 4.7
  #     hydro 2 s 6.8
  #  "Fourth tier" - improvements: -0.40 meV to -0.12 meV
  #     hydro 3 p 5
  #     hydro 3 s 3.3
  #     hydro 5 g 15.6
  #     hydro 4 f 17.6
  #     hydro 4 d 14
  # Further basis functions - -0.08 meV and below
  #     hydro 3 s 2.1
  #     hydro 4 d 11.6
  #     hydro 3 p 16
  #     hydro 2 s 17.2
  ################################################################################
  #
  # For methods that use the localized form of the "resolution of identity" for
  # the two-electron Coulomb operator (RI_method LVL), particularly Hartree-Fock and
  # hybrid density functional calculations, the highest accuracy can be obtained by
  # uncommenting the line beginning with "for_aux"  below, thus adding an extra g radial
  # function to the construction of the product basis set for the expansion.
  # See Ref. New J. Phys. 17, 093020 (2015) for more information, particularly Figs. 1 and 6.
  #
  ################################################################################
  #
  # for_aux hydro 5 g 6.0
  
  -----------------------------------------------------------------------
  Completed first pass over input file control.in .
  -----------------------------------------------------------------------
  
  
  -----------------------------------------------------------------------
  Parsing geometry.in (first pass over file, find array dimensions only).
  The contents of geometry.in will be repeated verbatim below
  unless switched off by setting 'verbatim_writeout .false.' .
  in the first line of geometry.in .
  -----------------------------------------------------------------------
  
  #
  # This is the geometry file that corresponds to the current relaxation step.
  # If you do not want this file to be written, set the "write_restart_geometry" flag to .false.
  #
  atom       0.20432918      0.67597852     -0.21849744 C
  atom       0.32691445     -0.14757346      1.04870618 C
  atom       1.38205975     -0.66581194      1.40355622 O
  atom      -0.59289267      0.30074814     -0.87505135 H
  atom       1.16055757      0.62982036     -0.74557967 H
  atom      -0.03084069      1.72609576      0.00648089 H
  atom      -0.81401378     -0.29817082      1.80673126 N
  atom      -2.09927231      0.34970811      1.60961665 C
  atom      -2.14211735      1.88711654      1.81158006 C
  atom      -2.87207879      2.55548796      1.08159195 O
  atom      -0.67599222     -0.85001924      2.65038932 H
  atom      -2.39203639      0.25342125      0.55411140 H
  atom      -3.17197054     -0.34689953      2.45434189 C
  atom      -2.90970674     -0.35280328      3.52018511 H
  atom      -3.28749823     -1.38679387      2.12319764 H
  atom      -4.13488029      0.16364966      2.33570697 H
  atom      -1.37236462      2.50395994      2.76953892 N
  atom      -0.59034397      1.95922470      3.87816172 C
  atom      -1.43580575      1.34359335      5.01578535 C
  atom      -0.95767449      0.47497619      5.74144772 O
  atom      -1.46438185      3.51749864      2.72788705 H
  atom       0.04725498      1.14344849      3.52081941 H
  atom       0.31075678      3.05790215      4.44976729 C
  atom       0.88314914      2.66211623      5.29598820 H
  atom      -0.28307967      3.91215644      4.80727735 H
  atom       1.01665276      3.41045714      3.68695282 H
  atom      -2.68932246      1.85537851      5.16141262 N
  atom      -3.61847751      1.37714690      6.16681362 C
  atom      -3.01942479      2.49677250      4.44870280 H
  atom      -4.05138063      2.21587007      6.72739246 H
  atom      -3.06200997      0.73196307      6.85497961 H
  atom      -4.43491892      0.79264448      5.71652697 H
  
  -----------------------------------------------------------------------
  Completed first pass over input file geometry.in .
  -----------------------------------------------------------------------
  

  Basic array size parameters:
  | Number of species                 :        4
  | Number of atoms                   :       32
  | Max. basis fn. angular momentum   :        4
  | Max. atomic/ionic basis occupied n:        2
  | Max. number of basis fn. types    :        2
  | Max. radial fns per species/type  :        8
  | Max. logarithmic grid size        :     1301
  | Max. radial integration grid size :       73
  | Max. angular integration grid size:      434
  | Max. angular grid division number :        8
  | Radial grid for Hartree potential :     1301
  | Number of spin channels           :        1

------------------------------------------------------------
          Reading file control.in.
------------------------------------------------------------
  XC: Using PBE gradient-corrected functionals.
  Self-consistent screening and van der Waals energy (TS, TS+SCS,MBD) module
  Spin treatment: No spin polarisation.
  Charge =   0.000000E+00: Neutral system requested explicitly.
  Occupation type: Gaussian broadening, width =   0.500000E-01 eV.
  Using pulay charge density mixing.
  Pulay mixing - number of memorized iterations:   10
  Charge density mixing - mixing parameter:     0.5000
  Convergence accuracy of self-consistent charge density:  0.1000E-03
  Convergence accuracy of sum of eigenvalues:  0.1000E-01
  Convergence accuracy of total energy:  0.1000E-04
  Convergence accuracy of forces:  0.1000E-03
  Maximum number of s.-c. iterations  :  1000
  Fitting ESP-charges to Potential. 
  | Esp charge output options: 
  | ESP Grid method: 3, cubic grid
  | Number of points in x, ,y, z:  0080 0080 0080
  |
 
  Reading configuration options for species H                   .
  | Found nuclear charge :   1.0000
  | Found atomic mass :    1.00794000000000      amu
  | Found l_max for Hartree potential  :   6
  | Found cutoff potl. onset [A], width [A], scale factor :    4.00000    2.00000    1.00000
  | Threshold for basis-dependent cutoff potential is   0.100000E-03
  | Found data for basic radial integration grid :    24 points, outermost radius =    7.000 A
  | Found multiplier for basic radial grid :   2
  | Found angular grid specification: user-specified.
  | Specified grid contains     6 separate shells.
  | Check grid settings after all constraints further below.
  | Found free-atom valence shell :  1 s   1.000
  | No ionic wave fns used. Skipping ion_occ.
  | Found hydrogenic basis function :  2 s   2.100
  | Found hydrogenic basis function :  2 p   3.500
  | Found hydrogenic basis function :  1 s   0.850
  | Found hydrogenic basis function :  2 p   3.700
  | Found hydrogenic basis function :  2 s   1.200
  | Found hydrogenic basis function :  3 d   7.000
  Species H                   : Missing cutoff potential type.
  Defaulting to exp(1/x)/(1-x)^2 type cutoff potential.
  Species H : No 'logarithmic' tag. Using default grid for free atom:
  | Default logarithmic grid data [bohr] : 0.1000E-03 0.1000E+03 0.1012E+01
  Species H : On-site basis accuracy parameter (for Gram-Schmidt orthonormalisation) not specified.
  Using default value basis_acc =  0.1000000E-03.
  Species H                   : Using default innermost maximum threshold i_radial=  2 for radial functions.
  Species H                   : Default cutoff onset for free atom density etc. : 0.40000000E+01 AA.
  Species H                   : Basic radial grid will be enhanced according to radial_multiplier =   2, to contain    49 grid points.
 
  Reading configuration options for species C                   .
  | Found nuclear charge :   6.0000
  | Found atomic mass :    12.0107000000000      amu
  | Found l_max for Hartree potential  :   6
  | Found cutoff potl. onset [A], width [A], scale factor :    4.00000    2.00000    1.00000
  | Threshold for basis-dependent cutoff potential is   0.100000E-03
  | Found data for basic radial integration grid :    34 points, outermost radius =    7.000 A
  | Found multiplier for basic radial grid :   2
  | Found angular grid specification: user-specified.
  | Specified grid contains     6 separate shells.
  | Check grid settings after all constraints further below.
  | Found free-atom valence shell :  2 s   2.000
  | Found free-atom valence shell :  2 p   2.000
  | No ionic wave fns used. Skipping ion_occ.
  | No ionic wave fns used. Skipping ion_occ.
  | Found hydrogenic basis function :  2 p   1.700
  | Found hydrogenic basis function :  3 d   6.000
  | Found hydrogenic basis function :  2 s   4.900
  | Found hydrogenic basis function :  4 f   9.800
  | Found hydrogenic basis function :  3 p   5.200
  | Found hydrogenic basis function :  3 s   4.300
  | Found hydrogenic basis function :  5 g  14.400
  | Found hydrogenic basis function :  3 d   6.200
  Species C                   : Missing cutoff potential type.
  Defaulting to exp(1/x)/(1-x)^2 type cutoff potential.
  Species C : No 'logarithmic' tag. Using default grid for free atom:
  | Default logarithmic grid data [bohr] : 0.1000E-03 0.1000E+03 0.1012E+01
  Species C : On-site basis accuracy parameter (for Gram-Schmidt orthonormalisation) not specified.
  Using default value basis_acc =  0.1000000E-03.
  Species C                   : Using default innermost maximum threshold i_radial=  2 for radial functions.
  Species C                   : Default cutoff onset for free atom density etc. : 0.40000000E+01 AA.
  Species C                   : Basic radial grid will be enhanced according to radial_multiplier =   2, to contain    69 grid points.
 
  Reading configuration options for species N                   .
  | Found nuclear charge :   7.0000
  | Found atomic mass :    14.0067000000000      amu
  | Found l_max for Hartree potential  :   6
  | Found cutoff potl. onset [A], width [A], scale factor :    4.00000    2.00000    1.00000
  | Threshold for basis-dependent cutoff potential is   0.100000E-03
  | Found data for basic radial integration grid :    35 points, outermost radius =    7.000 A
  | Found multiplier for basic radial grid :   2
  | Found angular grid specification: user-specified.
  | Specified grid contains     6 separate shells.
  | Check grid settings after all constraints further below.
  | Found free-atom valence shell :  2 s   2.000
  | Found free-atom valence shell :  2 p   3.000
  | No ionic wave fns used. Skipping ion_occ.
  | No ionic wave fns used. Skipping ion_occ.
  | Found hydrogenic basis function :  2 p   1.800
  | Found hydrogenic basis function :  3 d   6.800
  | Found hydrogenic basis function :  3 s   5.800
  | Found hydrogenic basis function :  4 f  10.800
  | Found hydrogenic basis function :  3 p   5.800
  | Found hydrogenic basis function :  1 s   0.800
  | Found hydrogenic basis function :  5 g  16.000
  | Found hydrogenic basis function :  3 d   4.900
  Species N                   : Missing cutoff potential type.
  Defaulting to exp(1/x)/(1-x)^2 type cutoff potential.
  Species N : No 'logarithmic' tag. Using default grid for free atom:
  | Default logarithmic grid data [bohr] : 0.1000E-03 0.1000E+03 0.1012E+01
  Species N : On-site basis accuracy parameter (for Gram-Schmidt orthonormalisation) not specified.
  Using default value basis_acc =  0.1000000E-03.
  Species N                   : Using default innermost maximum threshold i_radial=  2 for radial functions.
  Species N                   : Default cutoff onset for free atom density etc. : 0.40000000E+01 AA.
  Species N                   : Basic radial grid will be enhanced according to radial_multiplier =   2, to contain    71 grid points.
 
  Reading configuration options for species O                   .
  | Found nuclear charge :   8.0000
  | Found atomic mass :    15.9994000000000      amu
  | Found l_max for Hartree potential  :   6
  | Found cutoff potl. onset [A], width [A], scale factor :    4.00000    2.00000    1.00000
  | Threshold for basis-dependent cutoff potential is   0.100000E-03
  | Found data for basic radial integration grid :    36 points, outermost radius =    7.000 A
  | Found multiplier for basic radial grid :   2
  | Found angular grid specification: user-specified.
  | Specified grid contains     6 separate shells.
  | Check grid settings after all constraints further below.
  | Found free-atom valence shell :  2 s   2.000
  | Found free-atom valence shell :  2 p   4.000
  | No ionic wave fns used. Skipping ion_occ.
  | No ionic wave fns used. Skipping ion_occ.
  | Found hydrogenic basis function :  2 p   1.800
  | Found hydrogenic basis function :  3 d   7.600
  | Found hydrogenic basis function :  3 s   6.400
  | Found hydrogenic basis function :  4 f  11.600
  | Found hydrogenic basis function :  3 p   6.200
  | Found hydrogenic basis function :  3 d   5.600
  | Found hydrogenic basis function :  5 g  17.600
  | Found hydrogenic basis function :  1 s   0.750
  Species O                   : Missing cutoff potential type.
  Defaulting to exp(1/x)/(1-x)^2 type cutoff potential.
  Species O : No 'logarithmic' tag. Using default grid for free atom:
  | Default logarithmic grid data [bohr] : 0.1000E-03 0.1000E+03 0.1012E+01
  Species O : On-site basis accuracy parameter (for Gram-Schmidt orthonormalisation) not specified.
  Using default value basis_acc =  0.1000000E-03.
  Species O                   : Using default innermost maximum threshold i_radial=  2 for radial functions.
  Species O                   : Default cutoff onset for free atom density etc. : 0.40000000E+01 AA.
  Species O                   : Basic radial grid will be enhanced according to radial_multiplier =   2, to contain    73 grid points.
 
  Finished reading input file 'control.in'. Consistency checks are next.
 
  Target number of points in a grid batch is not set. Defaulting to  100
  Method for grid partitioning is not set. Defaulting to parallel hash+maxmin partitioning.
  Batch size limit is not set. Defaulting to    200
  By default, will store active basis functions for each batch.
  If in need of memory, prune_basis_once .false. can be used to disable this option.
  communication_type for Hartree potential was not specified.
  Defaulting to calc_hartree .
  Pulay mixer: Number of initial linear mixing iterations not set.
  Defaulting to    0 iterations.
  Work space size for distributed Hartree potential not set.
  Defaulting to   0.200000E+03 MB.
  Algorithm-dependent basis array size parameters:
  | n_max_pulay                         :       10
  Geometry relaxation not requested: no relaxation will be performed.
  Handling of forces: Unphysical translation and rotation will be removed from forces.
  No accuracy limit for integral partition fn. given. Defaulting to  0.1000E-14.
  No threshold value for u(r) in integrations given. Defaulting to  0.1000E-05.
  No accuracy for occupation numbers given. Defaulting to  0.1000E-07.
  No threshold value for occupation numbers given. Defaulting to  0.0000E+00.
  No accuracy for fermi level given. Defaulting to  0.1000E-19.
  Maximum # of iterations to find E_F not set. Defaulting to  200.
  Preferred method for the eigenvalue solver ('KS_method') not specified in 'control.in'.
  Calling blacs routine to test compilation state
  Since scalapack support is enabled, defaulting to 'elpa'.
  Preferred method for the MBD eigenvalue solver ('mbd_eigensolver') not specified in 'control.in'.
  Calling blacs routine to test compilation state
  Since scalapack support is enabled, defaulting to 'scaLAPACK'.
  Will not use alltoall communication since running on < 1024 CPUs.
  Threshold for basis singularities not set.
  Default threshold for basis singularities:  0.1000E-04
  partition_type (choice of integration weights) for integrals was not specified.
  | Using a version of the partition function of Stratmann and coworkers ('stratmann_smoother').
  | At each grid point, the set of atoms used to build the partition table is smoothly restricted to
  | only those atoms whose free-atom density would be non-zero at that grid point.
  Partitioning for Hartree potential was not defined. Using partition_type for integrals.
  | Adjusted default value of keyword multip_moments_threshold to:       0.10000000E-11
  | This value may affect high angular momentum components of the Hartree potential in periodic systems.
  No q(lm)/r^(l+1) cutoff set for long-range Hartree potential.
  | Using default value of  0.100000E-09 .
  | Verify using the multipole_threshold keyword.
  Defaulting to new monopole extrapolation.
  Density update method: automatic selection selected.
------------------------------------------------------------


------------------------------------------------------------
          Reading geometry description geometry.in.
------------------------------------------------------------
 * Warning! You did not set the 'relativistic' flag in input file 'control.in'.
 * Since you are not attempting to treat any elements beyond Ca(Z=20), FHI-aims
 * will default to 'relativistic none'.
 * You must ensure that this is really what you want!!
 * For example, DO NOT compute total-energy differences between results from
 * different settings of the 'relativistic' flag.
  Input structure read successfully.
  The structure contains       32 atoms,  and a total of        116.000 electrons.

  Input geometry:
  | No unit cell requested.
  | Atomic structure:
  |       Atom                x [A]            y [A]            z [A]
  |    1: Species C              0.204329         0.675979        -0.218497
  |    2: Species C              0.326914        -0.147573         1.048706
  |    3: Species O              1.382060        -0.665812         1.403556
  |    4: Species H             -0.592893         0.300748        -0.875051
  |    5: Species H              1.160558         0.629820        -0.745580
  |    6: Species H             -0.030841         1.726096         0.006481
  |    7: Species N             -0.814014        -0.298171         1.806731
  |    8: Species C             -2.099272         0.349708         1.609617
  |    9: Species C             -2.142117         1.887117         1.811580
  |   10: Species O             -2.872079         2.555488         1.081592
  |   11: Species H             -0.675992        -0.850019         2.650389
  |   12: Species H             -2.392036         0.253421         0.554111
  |   13: Species C             -3.171971        -0.346900         2.454342
  |   14: Species H             -2.909707        -0.352803         3.520185
  |   15: Species H             -3.287498        -1.386794         2.123198
  |   16: Species H             -4.134880         0.163650         2.335707
  |   17: Species N             -1.372365         2.503960         2.769539
  |   18: Species C             -0.590344         1.959225         3.878162
  |   19: Species C             -1.435806         1.343593         5.015785
  |   20: Species O             -0.957674         0.474976         5.741448
  |   21: Species H             -1.464382         3.517499         2.727887
  |   22: Species H              0.047255         1.143448         3.520819
  |   23: Species C              0.310757         3.057902         4.449767
  |   24: Species H              0.883149         2.662116         5.295988
  |   25: Species H             -0.283080         3.912156         4.807277
  |   26: Species H              1.016653         3.410457         3.686953
  |   27: Species N             -2.689322         1.855379         5.161413
  |   28: Species C             -3.618478         1.377147         6.166814
  |   29: Species H             -3.019425         2.496773         4.448703
  |   30: Species H             -4.051381         2.215870         6.727392
  |   31: Species H             -3.062010         0.731963         6.854980
  |   32: Species H             -4.434919         0.792644         5.716527
  |

  | The smallest distance between any two atoms is         1.01405576 AA.
  |
  | The first atom of this pair is atom number                     27 .
  | The second atom of this pair is atom number                    29 .

  Number of empty states per atom not set in control.in - providing a guess from actual geometry.
  | Total number of empty states used during s.c.f. cycle:       71
  If you use a very high smearing, use empty_states (per atom!) in control.in to increase this value.

  Structure-dependent array size parameters: 
  | Maximum number of distinct radial functions  :       40
  | Maximum number of basis functions            :      840
  | Number of Kohn-Sham states (occupied + empty):      129
------------------------------------------------------------

------------------------------------------------------------
          Preparing all fixed parts of the calculation.
------------------------------------------------------------
  Determining machine precision:
    2.225073858507201E-308
  Setting up grids for atomic and cluster calculations.

  Creating wave function, potential, and density for free atoms.

  Species: H

  List of occupied orbitals and eigenvalues:
    n    l              occ      energy [Ha]    energy [eV]
    1    0           1.0000        -0.238382        -6.4867


  Species: C

  List of occupied orbitals and eigenvalues:
    n    l              occ      energy [Ha]    energy [eV]
    1    0           2.0000       -10.041232      -273.2358
    2    0           2.0000        -0.504327       -13.7234
    2    1           2.0000        -0.193750        -5.2722


  Species: N

  List of occupied orbitals and eigenvalues:
    n    l              occ      energy [Ha]    energy [eV]
    1    0           2.0000       -14.129007      -384.4699
    2    0           2.0000        -0.681802       -18.5528
    2    1           3.0000        -0.260543        -7.0897


  Species: O

  List of occupied orbitals and eigenvalues:
    n    l              occ      energy [Ha]    energy [eV]
    1    0           2.0000       -18.898576      -514.2564
    2    0           2.0000        -0.878795       -23.9132
    2    1           4.0000        -0.332075        -9.0362

  Creating fixed part of basis set: Ionic, confined, hydrogenic.
 
  H                    hydrogenic:
 
  List of hydrogenic basis orbitals: 
    n    l      effective z      eigenvalue [eV]  inner max. [A]     outer max. [A]     outer radius [A]   
    2    0         2.100000       -14.9965           0.193243           1.317208           5.373006
    2    1         3.500000       -41.6672           0.602369           0.602369           4.056063
    1    0         0.850000        -9.8292           0.624871           0.624871           5.373006
    2    1         3.700000       -46.5653           0.573622           0.573622           3.910002
    2    0         1.200000        -4.5995           0.334980           2.228188           5.505995
    3    2         7.000000       -74.0753           0.680699           0.680699           3.769201
 
 
  C                    hydrogenic:
 
  List of hydrogenic basis orbitals: 
    n    l      effective z      eigenvalue [eV]  inner max. [A]     outer max. [A]     outer radius [A]   
    2    1         1.700000        -9.8152           1.245706           1.245706           5.401630
    3    2         6.000000       -54.4226           0.792453           0.792453           4.178599
    2    0         4.900000       -81.6681           0.082559           0.562749           3.353238
    4    3         9.800000       -81.6681           0.863254           0.863254           4.028125
    3    1         5.200000       -40.8774           0.305389           1.215618           4.898362
    3    0         4.300000       -27.9508           0.091041           1.610311           5.401630
    5    4        14.400000      -112.8510           0.917666           0.917666           3.883070
    3    2         6.200000       -58.1113           0.763917           0.763917           4.077671
 
 
  N                    hydrogenic:
 
  List of hydrogenic basis orbitals: 
    n    l      effective z      eigenvalue [eV]  inner max. [A]     outer max. [A]     outer radius [A]   
    2    1         1.800000       -11.0118           1.177451           1.177451           5.427479
    3    2         6.800000       -69.9029           0.704619           0.704619           3.854246
    3    0         5.800000       -50.8549           0.067388           1.191934           4.629968
    4    3        10.800000       -99.1854           0.786571           0.786571           3.761152
    3    1         5.800000       -50.8549           0.274880           1.094176           4.518138
    1    0         0.800000        -8.7059           0.662839           0.662839           5.361532
    5    4        16.000000      -139.3222           0.825990           0.825990           3.625711
    3    2         4.900000       -36.2967           0.968267           0.968267           4.862000
 
 
  O                    hydrogenic:
 
  List of hydrogenic basis orbitals: 
    n    l      effective z      eigenvalue [eV]  inner max. [A]     outer max. [A]     outer radius [A]   
    2    1         1.800000       -11.0118           1.178562           1.178562           5.432602
    3    2         7.600000       -87.3182           0.624125           0.624125           3.541477
    3    0         6.400000       -61.9209           0.061167           1.081902           4.306578
    4    3        11.600000      -114.4238           0.731631           0.731631           3.585037
    3    1         6.200000       -58.1113           0.255680           1.030270           4.306578
    3    2         5.600000       -47.4081           0.847233           0.847233           4.413171
    5    4        17.600000      -168.5799           0.749740           0.749740           3.372465
    1    0         0.750000        -7.6499           0.705284           0.705284           5.366593
 

  Adding cutoff potential to free-atom effective potential.
  Creating atomic-like basis functions for current effective potential.

  Species H                   :

  List of atomic basis orbitals and eigenvalues:
    n    l      energy [Ha]    energy [eV]    outer radius [A]
    1    0        -0.238382        -6.4867       5.373006


  Species C                   :

  List of atomic basis orbitals and eigenvalues:
    n    l      energy [Ha]    energy [eV]    outer radius [A]
    1    0       -10.041232      -273.2358       1.934409
    2    0        -0.504327       -13.7234       5.271162
    2    1        -0.193750        -5.2722       5.401630


  Species N                   :

  List of atomic basis orbitals and eigenvalues:
    n    l      energy [Ha]    energy [eV]    outer radius [A]
    1    0       -14.129007      -384.4699       1.637919
    2    0        -0.681802       -18.5528       5.168461
    2    1        -0.260543        -7.0897       5.361532


  Species O                   :

  List of atomic basis orbitals and eigenvalues:
    n    l      energy [Ha]    energy [eV]    outer radius [A]
    1    0       -18.898576      -514.2564       1.415765
    2    0        -0.878795       -23.9132       5.048385
    2    1        -0.332075        -9.0362       5.301386

  Assembling full basis from fixed parts.
  | Species H :   atomic orbital   1 s accepted.
  | Species H :    hydro orbital   2 s accepted.
  | Species H :    hydro orbital   1 s accepted.
  | Species H :    hydro orbital   2 s accepted.
  | Species H :    hydro orbital   2 p accepted.
  | Species H :    hydro orbital   2 p accepted.
  | Species H :    hydro orbital   3 d accepted.
  | Species C :   atomic orbital   1 s accepted.
  | Species C :    hydro orbital   2 s accepted.
  | Species C :   atomic orbital   2 s accepted.
  | Species C :    hydro orbital   3 s accepted.
  | Species C :    hydro orbital   3 p accepted.
  | Species C :   atomic orbital   2 p accepted.
  | Species C :    hydro orbital   2 p accepted.
  | Species C :    hydro orbital   3 d accepted.
  | Species C :    hydro orbital   3 d accepted.
  | Species C :    hydro orbital   4 f accepted.
  | Species C :    hydro orbital   5 g accepted.
  | Species N :   atomic orbital   1 s accepted.
  | Species N :    hydro orbital   3 s accepted.
  | Species N :   atomic orbital   2 s accepted.
  | Species N :    hydro orbital   1 s accepted.
  | Species N :    hydro orbital   3 p accepted.
  | Species N :   atomic orbital   2 p accepted.
  | Species N :    hydro orbital   2 p accepted.
  | Species N :    hydro orbital   3 d accepted.
  | Species N :    hydro orbital   3 d accepted.
  | Species N :    hydro orbital   4 f accepted.
  | Species N :    hydro orbital   5 g accepted.
  | Species O :   atomic orbital   1 s accepted.
  | Species O :    hydro orbital   3 s accepted.
  | Species O :   atomic orbital   2 s accepted.
  | Species O :    hydro orbital   1 s accepted.
  | Species O :    hydro orbital   3 p accepted.
  | Species O :   atomic orbital   2 p accepted.
  | Species O :    hydro orbital   2 p accepted.
  | Species O :    hydro orbital   3 d accepted.
  | Species O :    hydro orbital   3 d accepted.
  | Species O :    hydro orbital   4 f accepted.
  | Species O :    hydro orbital   5 g accepted.
 
  Basis size parameters after reduction:
  | Total number of radial functions:       40
  | Total number of basis functions :      840
 
  Testing on-site integration grid accuracy.
  |  Species  Function  <phi|h_atom|phi> (log., in eV)  <phi|h_atom|phi> (rad., in eV)
           1        1                 -6.4869821809                 -6.4870742227
           1        2                 13.5044133542                 13.5041049177
           1        3                 32.7854418792                 32.7779770519
           1        4                 33.7995553101                 33.7152624900 ***
           1        5                 28.8558651799                 28.8558652046
           1        6                 59.6361831893                 59.6362535845
           1        7                 60.2733718049                 60.2733715484
           2        8               -273.2358277112               -273.2358261765
           2        9                -10.7624923123                -10.7625144012
           2       10                 17.4634079027                 17.4634252127
           2       11                 53.0363661832                 53.0366180446
           2       12                 15.0981351967                 15.0981317714
           2       13                  3.8522181899                  3.8522770949
           2       14                 12.1181835661                 12.1206868578
           2       15                 29.4320778347                 29.4320780959
           2       16                 54.8753777694                 54.8752901936
           2       17                 59.3533975461                 59.3533974833
           2       18                 93.4537491195                 93.4537492066
           3       19               -384.4698526889               -384.4698499465
           3       20                 12.5691022037                 12.5690910168
           3       21                -15.7489097511                -15.7489165588
           3       22                 27.0978334940                 27.0985589490
           3       23                 18.5949116966                 18.5949125562
           3       24                  1.2212828291                  1.2212855301
           3       25                 13.4428926797                 13.4434051125
           3       26                 35.9380614500                 35.9380613666
           3       27                 39.9231532098                 39.9231654735
           3       28                 72.9957335806                 72.9957336833
           3       29                116.4231321147                116.4231321431
           4       30               -514.2564144315               -514.2564099626
           4       31                 15.1726678541                 15.1726530877
           4       32                -21.5447785304                -21.5447874973
           4       33                 14.4944558459                 14.4944698284
           4       34                 20.8882174564                 20.8882178906
           4       35                 -2.4850315908                 -2.4850322289
           4       36                 13.8600193195                 13.8599826966
           4       37                 45.8243383616                 45.8243383675
           4       38                 52.1840606465                 52.1840622440
           4       39                 85.4074185510                 85.4074185819
           4       40                142.0983717302                142.0983717339
 * Note: Onsite integrals marked "***" above are less accurate than
 * onsite_accuracy_threshold =    0.03000 eV. Usually, this is harmless.
 * When in doubt, tighten the "radial" and/or "radial_multiplier" flags to check.

  Preparing densities etc. for the partition functions (integrals / Hartree potential).

  Preparations completed.
  max(cpu_time)          :      0.232 s.
  Wall clock time (cpu1) :      0.235 s.
------------------------------------------------------------

------------------------------------------------------------
          Begin self-consistency loop: Initialization.

          Date     :  20170309, Time     :  182426.695
------------------------------------------------------------

  Initializing index lists of integration centers etc. from given atomic structure:
  | Number of centers in hartree potential         :        32
  | Number of centers in hartree multipole         :        32
  | Number of centers in electron density summation:        32
  | Number of centers in basis integrals           :        32
  | Number of centers in integrals                 :        32
  | Number of centers in hamiltonian               :        32
  Using modified Scalapack Eigenvalue solver (ELPA)
  * Using 32 tasks for Scalapack Eigenvalue solver.
  Detailed listing of tasks and assigned k-points:
  (for non-periodic systems, the "k-point" denotes an internal label only)
   Task     0 k-point     1 on eos026
   Task     1 k-point     1 on eos026
   Task     2 k-point     1 on eos026
   Task     3 k-point     1 on eos026
   Task     4 k-point     1 on eos026
   Task     5 k-point     1 on eos026
   Task     6 k-point     1 on eos026
   Task     7 k-point     1 on eos026
   Task     8 k-point     1 on eos026
   Task     9 k-point     1 on eos026
   Task    10 k-point     1 on eos026
   Task    11 k-point     1 on eos026
   Task    12 k-point     1 on eos026
   Task    13 k-point     1 on eos026
   Task    14 k-point     1 on eos026
   Task    15 k-point     1 on eos026
   Task    16 k-point     1 on eos026
   Task    17 k-point     1 on eos026
   Task    18 k-point     1 on eos026
   Task    19 k-point     1 on eos026
   Task    20 k-point     1 on eos026
   Task    21 k-point     1 on eos026
   Task    22 k-point     1 on eos026
   Task    23 k-point     1 on eos026
   Task    24 k-point     1 on eos026
   Task    25 k-point     1 on eos026
   Task    26 k-point     1 on eos026
   Task    27 k-point     1 on eos026
   Task    28 k-point     1 on eos026
   Task    29 k-point     1 on eos026
   Task    30 k-point     1 on eos026
   Task    31 k-point     1 on eos026
  Tasks:    32 split into      8 X      4 BLACS grid
  Calculating blocksize based on n_basis =          840 max_nprow =            8 max_npcol =            4
  Scalapack blocksize set to:           16
  Required Scalapack workspace - INTEGER:            1 REAL:             1
  Partitioning the integration grid into batches with parallel hashing+maxmin method.
  | Number of batches:     4877
  | Maximal batch size:     196
  | Minimal batch size:      44
  | Average batch size:     108.208
  | Standard deviation of batch sizes:      34.176

  Integration load balanced across    32 MPI tasks.
  Work distribution over tasks is as follows:
  Task     0 has      16456 integration points.
  Task     1 has      16452 integration points.
  Task     2 has      16453 integration points.
  Task     3 has      16485 integration points.
  Task     4 has      16580 integration points.
  Task     5 has      16441 integration points.
  Task     6 has      16459 integration points.
  Task     7 has      16504 integration points.
  Task     8 has      16437 integration points.
  Task     9 has      16496 integration points.
  Task    10 has      16586 integration points.
  Task    11 has      16589 integration points.
  Task    12 has      16439 integration points.
  Task    13 has      16440 integration points.
  Task    14 has      16540 integration points.
  Task    15 has      16595 integration points.
  Task    16 has      16588 integration points.
  Task    17 has      16444 integration points.
  Task    18 has      16442 integration points.
  Task    19 has      16448 integration points.
  Task    20 has      16449 integration points.
  Task    21 has      16440 integration points.
  Task    22 has      16582 integration points.
  Task    23 has      16455 integration points.
  Task    24 has      16444 integration points.
  Task    25 has      16441 integration points.
  Task    26 has      16583 integration points.
  Task    27 has      16442 integration points.
  Task    28 has      16447 integration points.
  Task    29 has      16590 integration points.
  Task    30 has      16454 integration points.
  Task    31 has      16527 integration points.
  Initializing partition tables, free-atom densities, potentials, etc. across the integration grid (initialize_grid_storage).
  | initialize_grid_storage: Actual outermost partition radius vs. multipole_radius_free
  | (-- VB: in principle, multipole_radius_free should be larger, hence this output)
  | Species        1: Confinement radius =              6.000000000000000 AA, multipole_radius_free =              6.071692442739658 AA.
  | Species        1: outer_partition_radius set to              6.071692442739658 AA .
  | Species        2: Confinement radius =              6.000000000000000 AA, multipole_radius_free =              6.029870734432609 AA.
  | Species        2: outer_partition_radius set to              6.029870734432609 AA .
  | Species        3: Confinement radius =              6.000000000000000 AA, multipole_radius_free =              6.058726835495003 AA.
  | Species        3: outer_partition_radius set to              6.058726835495003 AA .
  | Species        4: Confinement radius =              6.000000000000000 AA, multipole_radius_free =              6.064445521808699 AA.
  | Species        4: outer_partition_radius set to              6.064445521808699 AA .
  | Original list of interatomic distances with          32 x         32 entries is created.
  | Net number of integration points:   527728
  | of which are non-zero points    :   412507
  Obtaining max. number of non-zero basis functions in each batch (get_n_compute_maxes).
  | Maximal number of non-zero basis functions:      798 in task     0
  | Maximal number of non-zero basis functions:      801 in task     1
  | Maximal number of non-zero basis functions:      807 in task     2
  | Maximal number of non-zero basis functions:      778 in task     3
  | Maximal number of non-zero basis functions:      799 in task     4
  | Maximal number of non-zero basis functions:      789 in task     5
  | Maximal number of non-zero basis functions:      799 in task     6
  | Maximal number of non-zero basis functions:      798 in task     7
  | Maximal number of non-zero basis functions:      799 in task     8
  | Maximal number of non-zero basis functions:      793 in task     9
  | Maximal number of non-zero basis functions:      805 in task    10
  | Maximal number of non-zero basis functions:      789 in task    11
  | Maximal number of non-zero basis functions:      813 in task    12
  | Maximal number of non-zero basis functions:      794 in task    13
  | Maximal number of non-zero basis functions:      806 in task    14
  | Maximal number of non-zero basis functions:      798 in task    15
  | Maximal number of non-zero basis functions:      800 in task    16
  | Maximal number of non-zero basis functions:      804 in task    17
  | Maximal number of non-zero basis functions:      790 in task    18
  | Maximal number of non-zero basis functions:      808 in task    19
  | Maximal number of non-zero basis functions:      783 in task    20
  | Maximal number of non-zero basis functions:      803 in task    21
  | Maximal number of non-zero basis functions:      797 in task    22
  | Maximal number of non-zero basis functions:      781 in task    23
  | Maximal number of non-zero basis functions:      807 in task    24
  | Maximal number of non-zero basis functions:      806 in task    25
  | Maximal number of non-zero basis functions:      774 in task    26
  | Maximal number of non-zero basis functions:      803 in task    27
  | Maximal number of non-zero basis functions:      795 in task    28
  | Maximal number of non-zero basis functions:      785 in task    29
  | Maximal number of non-zero basis functions:      798 in task    30
  | Maximal number of non-zero basis functions:      808 in task    31
  Selecting the method for density update.
  Loop over occupied states selected for charge density update.
  Integrating Hamiltonian matrix: batch-based integration.
  Time summed over all CPUs for integration: real work       23.699 s, elapsed       24.630 s
  Integrating overlap matrix.
  Time summed over all CPUs for integration: real work       14.480 s, elapsed       14.941 s
  Deallocating overlap matrix.

  Updating Kohn-Sham eigenvalues, eigenvectors, occupation numbers, and Fermi level.
  Solving generalized eigenproblem
  Solving real symmetric generalised eigenvalue problem by standard ScaLAPACK.
  Transforming overlap matrix with ScaLAPACK and checking for singularities.
  : Overlap matrix is nonsingular, using Cholesky decomposition
  | Lowest eigenvalue:  0.904231E-04
  Factoring overlap matrix with Cholesky decomposition
  Using Cholesky factor for transformation
  Using 1-stage real ELPA solver
  Determining occupation numbers for Kohn-Sham eigenstates.
  | Chemical potential (Fermi level) in eV                 : -.94079526E+01
  | Error in electron count due to remaining E_F inaccuracy: 0.00000000E+00
  | Maximum occupation number of highest empty state:  0.00E+00

  Writing Kohn-Sham eigenvalues.

  State    Occupation    Eigenvalue [Ha]    Eigenvalue [eV]
      1       2.00000         -18.974300         -516.31696
      2       2.00000         -18.974141         -516.31264
      3       2.00000         -18.973960         -516.30771
      4       2.00000         -14.256491         -387.93885
      5       2.00000         -14.253306         -387.85219
      6       2.00000         -14.252315         -387.82524
      7       2.00000         -10.171121         -276.77027
      8       2.00000         -10.171060         -276.76861
      9       2.00000         -10.171023         -276.76762
     10       2.00000         -10.166835         -276.65366
     11       2.00000         -10.148802         -276.16294
     12       2.00000         -10.148411         -276.15231
     13       2.00000         -10.135562         -275.80269
     14       2.00000         -10.135005         -275.78751
     15       2.00000         -10.132580         -275.72153
     16       2.00000          -1.133299          -30.83863
     17       2.00000          -1.131422          -30.78756
     18       2.00000          -1.130043          -30.75003
     19       2.00000          -1.022310          -27.81848
     20       2.00000          -1.013507          -27.57894
     21       2.00000          -1.001174          -27.24333
     22       2.00000          -0.883719          -24.04722
     23       2.00000          -0.876657          -23.85504
     24       2.00000          -0.846321          -23.02956
     25       2.00000          -0.820338          -22.32254
     26       2.00000          -0.768004          -20.89844
     27       2.00000          -0.758110          -20.62923
     28       2.00000          -0.702164          -19.10686
     29       2.00000          -0.690669          -18.79405
     30       2.00000          -0.683573          -18.60096
     31       2.00000          -0.644530          -17.53855
     32       2.00000          -0.629039          -17.11702
     33       2.00000          -0.614447          -16.71996
     34       2.00000          -0.601089          -16.35646
     35       2.00000          -0.581067          -15.81165
     36       2.00000          -0.578146          -15.73217
     37       2.00000          -0.569346          -15.49270
     38       2.00000          -0.561813          -15.28772
     39       2.00000          -0.557686          -15.17541
     40       2.00000          -0.552401          -15.03160
     41       2.00000          -0.544458          -14.81547
     42       2.00000          -0.539990          -14.69386
     43       2.00000          -0.534502          -14.54453
     44       2.00000          -0.527597          -14.35664
     45       2.00000          -0.523254          -14.23845
     46       2.00000          -0.518761          -14.11622
     47       2.00000          -0.512930          -13.95754
     48       2.00000          -0.502746          -13.68043
     49       2.00000          -0.497595          -13.54024
     50       2.00000          -0.487157          -13.25622
     51       2.00000          -0.477953          -13.00575
     52       2.00000          -0.474577          -12.91391
     53       2.00000          -0.418117          -11.37755
     54       2.00000          -0.410968          -11.18300
     55       2.00000          -0.401772          -10.93278
     56       2.00000          -0.386540          -10.51829
     57       2.00000          -0.376900          -10.25598
     58       2.00000          -0.375814          -10.22641
     59       0.00000          -0.168785           -4.59288
     60       0.00000          -0.162061           -4.40990
     61       0.00000          -0.155823           -4.24017
     62       0.00000          -0.083576           -2.27422
     63       0.00000          -0.062030           -1.68793
     64       0.00000          -0.058051           -1.57966
     65       0.00000          -0.051403           -1.39873
     66       0.00000          -0.044645           -1.21484
     67       0.00000          -0.036546           -0.99446
     68       0.00000          -0.030679           -0.83481
     69       0.00000          -0.028250           -0.76873
     70       0.00000          -0.026084           -0.70978
     71       0.00000          -0.022365           -0.60858
     72       0.00000          -0.020733           -0.56417
     73       0.00000          -0.012470           -0.33934
     74       0.00000          -0.008799           -0.23942
     75       0.00000          -0.004604           -0.12528
     76       0.00000          -0.000905           -0.02462
     77       0.00000           0.002105            0.05727
     78       0.00000           0.005748            0.15641
     79       0.00000           0.009665            0.26299
     80       0.00000           0.015470            0.42096
     81       0.00000           0.016662            0.45341
     82       0.00000           0.027314            0.74324
     83       0.00000           0.032977            0.89736
     84       0.00000           0.034145            0.92914
     85       0.00000           0.048638            1.32351
     86       0.00000           0.052071            1.41694
     87       0.00000           0.058480            1.59133
     88       0.00000           0.062052            1.68851
     89       0.00000           0.068029            1.85117
     90       0.00000           0.072545            1.97406
     91       0.00000           0.078488            2.13578
     92       0.00000           0.082264            2.23853
     93       0.00000           0.084621            2.30267
     94       0.00000           0.091469            2.48900
     95       0.00000           0.100421            2.73260
     96       0.00000           0.106818            2.90667
     97       0.00000           0.107246            2.91831
     98       0.00000           0.110798            3.01497
     99       0.00000           0.112919            3.07269
    100       0.00000           0.120110            3.26835
    101       0.00000           0.120908            3.29008
    102       0.00000           0.134864            3.66982
    103       0.00000           0.137437            3.73984
    104       0.00000           0.141422            3.84830
    105       0.00000           0.148001            4.02732
    106       0.00000           0.153781            4.18460
    107       0.00000           0.158773            4.32042
    108       0.00000           0.164473            4.47552
    109       0.00000           0.173208            4.71324
    110       0.00000           0.175071            4.76394
    111       0.00000           0.179394            4.88155
    112       0.00000           0.185143            5.03799
    113       0.00000           0.188627            5.13280
    114       0.00000           0.189932            5.16831
    115       0.00000           0.192037            5.22561
    116       0.00000           0.195413            5.31745
    117       0.00000           0.202067            5.49852
    118       0.00000           0.206482            5.61865
    119       0.00000           0.210526            5.72870
    120       0.00000           0.218221            5.93810
    121       0.00000           0.219418            5.97067
    122       0.00000           0.222477            6.05391
    123       0.00000           0.227855            6.20026
    124       0.00000           0.237490            6.46244
    125       0.00000           0.243314            6.62092
    126       0.00000           0.249060            6.77725
    127       0.00000           0.255225            6.94503
    128       0.00000           0.265127            7.21447
    129       0.00000           0.277077            7.53965

  Highest occupied state (VBM) at    -10.22641383 eV
  | Occupation number:      2.00000000

  Lowest unoccupied state (CBM) at    -4.59288076 eV
  | Occupation number:      0.00000000

  Overall HOMO-LUMO gap:      5.63353307 eV.
  Calculating total energy contributions from superposition of free atom densities.

  Total energy components:
  | Sum of eigenvalues            :        -437.85483175 Ha      -11914.63618194 eV
  | XC energy correction          :         -98.82009326 Ha       -2689.03155404 eV
  | XC potential correction       :         127.02199201 Ha        3456.44426465 eV
  | Free-atom electrostatic energy:        -333.62739221 Ha       -9078.46324926 eV
  | Hartree energy correction     :           0.00000000 Ha           0.00000000 eV
  | MBD@rsSCS energy              :           0.00000000 Ha           0.00000000 eV
  | Entropy correction            :          -0.00000000 Ha          -0.00000000 eV
  | ---------------------------
  | Total energy                  :        -743.28032521 Ha      -20225.68672058 eV
  | Total energy, T -> 0          :        -743.28032521 Ha      -20225.68672058 eV  <-- do not rely on this value for anything but (periodic) metals
  | Electronic free energy        :        -743.28032521 Ha      -20225.68672058 eV

  Derived energy quantities:
  | Kinetic energy                :         735.16261209 Ha       20004.79250759 eV
  | Electrostatic energy          :       -1379.62284404 Ha      -37541.44767413 eV
  | Energy correction for multipole
  | error in Hartree potential    :           0.00000000 Ha           0.00000000 eV
  | Sum of eigenvalues per atom                           :        -372.33238069 eV
  | Total energy (T->0) per atom                          :        -632.05271002 eV  <-- do not rely on this value for anything but (periodic) metals
  | Electronic free energy per atom                       :        -632.05271002 eV
  Initialize hartree_potential_storage
  Max. number of atoms included in rho_multipole:           32

  End scf initialization - timings             :  max(cpu_time)    wall_clock(cpu1)
  | Time for scf. initialization               :        2.000 s           1.997 s
  | Boundary condition initialization          :        0.004 s           0.000 s
  | Integration                                :        1.260 s           1.258 s
  | Solution of K.-S. eqns.                    :        0.076 s           0.075 s
  | Grid partitioning                          :        0.296 s           0.290 s
  | Preloading free-atom quantities on grid    :        0.028 s           0.028 s
  | Free-atom superposition energy             :        0.044 s           0.040 s
  | Total energy evaluation                    :        0.004 s           0.001 s
------------------------------------------------------------

------------------------------------------------------------
          Begin self-consistency iteration #    1

  Date     :  20170309, Time     :  182428.692
------------------------------------------------------------
  Evaluating new KS density.
  Integration grid: deviation in total charge (<rho> - N_e) =   4.263256E-14
  Pulay mixing of updated and previous charge densities.

  Evaluating partitioned Hartree potential by multipole expansion.
  | Analytical far-field extrapolation by fixed multipoles:
  | Hartree multipole sum: apparent total charge =  -0.109970E-03
  Summing up the Hartree potential.
  Time summed over all CPUs for potential: real work        9.645 s, elapsed        9.960 s
  | RMS charge density error from multipole expansion :   0.109088E-01

  Integrating Hamiltonian matrix: batch-based integration.
  Time summed over all CPUs for integration: real work       23.492 s, elapsed       24.253 s

  Updating Kohn-Sham eigenvalues, eigenvectors, occupation numbers, and Fermi level.
  Solving generalized eigenproblem
  Solving real symmetric generalised eigenvalue problem by standard ScaLAPACK.
  Using Cholesky factor for transformation
  Using 2-stage real ELPA solver
  K-Point:    1, Trafo times: 1-stage=     0.021 s, 2-stage=     0.019 s ==> Using 2-stage solver
  Determining occupation numbers for Kohn-Sham eigenstates.
  | Chemical potential (Fermi level) in eV                 : -.37934423E+01
  | Error in electron count due to remaining E_F inaccuracy: 0.00000000E+00
  | Maximum occupation number of highest empty state:  0.00E+00

  Writing Kohn-Sham eigenvalues.

  State    Occupation    Eigenvalue [Ha]    Eigenvalue [eV]
      1       2.00000         -18.632080         -507.00469
      2       2.00000         -18.618729         -506.64139
      3       2.00000         -18.608179         -506.35431
      4       2.00000         -14.012520         -381.30006
      5       2.00000         -13.995014         -380.82371
      6       2.00000         -13.992613         -380.75838
      7       2.00000         -10.075271         -274.16208
      8       2.00000         -10.054386         -273.59376
      9       2.00000         -10.051854         -273.52486
     10       2.00000          -9.974060         -271.40797
     11       2.00000          -9.973572         -271.39470
     12       2.00000          -9.888172         -269.07084
     13       2.00000          -9.851043         -268.06051
     14       2.00000          -9.847717         -267.97003
     15       2.00000          -9.846920         -267.94834
     16       2.00000          -0.980912          -26.69198
     17       2.00000          -0.962892          -26.20161
     18       2.00000          -0.955821          -26.00920
     19       2.00000          -0.884536          -24.06945
     20       2.00000          -0.867765          -23.61309
     21       2.00000          -0.861706          -23.44822
     22       2.00000          -0.742771          -20.21183
     23       2.00000          -0.732801          -19.94053
     24       2.00000          -0.696387          -18.94965
     25       2.00000          -0.678768          -18.47021
     26       2.00000          -0.637629          -17.35076
     27       2.00000          -0.624615          -16.99663
     28       2.00000          -0.581665          -15.82790
     29       2.00000          -0.564250          -15.35402
     30       2.00000          -0.562452          -15.30511
     31       2.00000          -0.522669          -14.22255
     32       2.00000          -0.501787          -13.65432
     33       2.00000          -0.483012          -13.14343
     34       2.00000          -0.458690          -12.48159
     35       2.00000          -0.447474          -12.17639
     36       2.00000          -0.443161          -12.05903
     37       2.00000          -0.432373          -11.76548
     38       2.00000          -0.421179          -11.46085
     39       2.00000          -0.416431          -11.33167
     40       2.00000          -0.407800          -11.09680
     41       2.00000          -0.395335          -10.75760
     42       2.00000          -0.392748          -10.68723
     43       2.00000          -0.390762          -10.63316
     44       2.00000          -0.384675          -10.46753
     45       2.00000          -0.382332          -10.40379
     46       2.00000          -0.372560          -10.13787
     47       2.00000          -0.369592          -10.05711
     48       2.00000          -0.361107           -9.82622
     49       2.00000          -0.355516           -9.67409
     50       2.00000          -0.350940           -9.54957
     51       2.00000          -0.342563           -9.32162
     52       2.00000          -0.335539           -9.13047
     53       2.00000          -0.261880           -7.12611
     54       2.00000          -0.245400           -6.67768
     55       2.00000          -0.237464           -6.46172
     56       2.00000          -0.218763           -5.95285
     57       2.00000          -0.213196           -5.80137
     58       2.00000          -0.205766           -5.59917
     59       0.00000          -0.068187           -1.85546
     60       0.00000          -0.049050           -1.33473
     61       0.00000          -0.042323           -1.15167
     62       0.00000          -0.040231           -1.09474
     63       0.00000          -0.020890           -0.56844
     64       0.00000          -0.018287           -0.49762
     65       0.00000          -0.004057           -0.11040
     66       0.00000           0.003499            0.09520
     67       0.00000           0.009440            0.25687
     68       0.00000           0.010777            0.29326
     69       0.00000           0.015703            0.42730
     70       0.00000           0.031107            0.84646
     71       0.00000           0.034891            0.94943
     72       0.00000           0.041333            1.12474
     73       0.00000           0.042772            1.16390
     74       0.00000           0.048419            1.31756
     75       0.00000           0.051177            1.39259
     76       0.00000           0.054229            1.47565
     77       0.00000           0.060678            1.65114
     78       0.00000           0.069589            1.89361
     79       0.00000           0.075435            2.05268
     80       0.00000           0.081081            2.20633
     81       0.00000           0.086674            2.35853
     82       0.00000           0.096011            2.61258
     83       0.00000           0.096884            2.63636
     84       0.00000           0.103202            2.80827
     85       0.00000           0.106558            2.89958
     86       0.00000           0.107496            2.92511
     87       0.00000           0.115576            3.14499
     88       0.00000           0.125870            3.42509
     89       0.00000           0.131347            3.57412
     90       0.00000           0.133642            3.63657
     91       0.00000           0.139321            3.79112
     92       0.00000           0.140189            3.81473
     93       0.00000           0.147396            4.01086
     94       0.00000           0.151855            4.13219
     95       0.00000           0.158078            4.30153
     96       0.00000           0.165581            4.50570
     97       0.00000           0.171956            4.67916
     98       0.00000           0.177206            4.82203
     99       0.00000           0.179383            4.88126
    100       0.00000           0.183231            4.98598
    101       0.00000           0.187600            5.10486
    102       0.00000           0.189177            5.14777
    103       0.00000           0.195954            5.33219
    104       0.00000           0.206889            5.62974
    105       0.00000           0.210493            5.72781
    106       0.00000           0.214785            5.84459
    107       0.00000           0.217286            5.91265
    108       0.00000           0.220585            6.00243
    109       0.00000           0.228259            6.21123
    110       0.00000           0.231858            6.30918
    111       0.00000           0.237788            6.47055
    112       0.00000           0.241632            6.57514
    113       0.00000           0.244283            6.64729
    114       0.00000           0.245414            6.67805
    115       0.00000           0.250143            6.80674
    116       0.00000           0.258011            7.02085
    117       0.00000           0.265373            7.22117
    118       0.00000           0.266740            7.25837
    119       0.00000           0.271617            7.39108
    120       0.00000           0.280750            7.63959
    121       0.00000           0.286380            7.79278
    122       0.00000           0.288056            7.83841
    123       0.00000           0.297146            8.08576
    124       0.00000           0.306514            8.34067
    125       0.00000           0.309521            8.42250
    126       0.00000           0.314783            8.56569
    127       0.00000           0.322761            8.78279
    128       0.00000           0.328825            8.94778
    129       0.00000           0.343490            9.34684

  Highest occupied state (VBM) at     -5.59917243 eV
  | Occupation number:      2.00000000

  Lowest unoccupied state (CBM) at    -1.85546359 eV
  | Occupation number:      0.00000000

  Overall HOMO-LUMO gap:      3.74370884 eV.

  Total energy components:
  | Sum of eigenvalues            :        -418.21562578 Ha      -11380.22619705 eV
  | XC energy correction          :        -100.75043564 Ha       -2741.55884272 eV
  | XC potential correction       :         129.52494735 Ha        3524.55314455 eV
  | Free-atom electrostatic energy:        -333.62739221 Ha       -9078.46324926 eV
  | Hartree energy correction     :         -19.64690199 Ha        -534.61940423 eV
  | MBD@rsSCS energy              :           0.00000000 Ha           0.00000000 eV
  | Entropy correction            :           0.00000000 Ha           0.00000000 eV
  | ---------------------------
  | Total energy                  :        -742.71540828 Ha      -20210.31454871 eV
  | Total energy, T -> 0          :        -742.71540828 Ha      -20210.31454871 eV  <-- do not rely on this value for anything but (periodic) metals
  | Electronic free energy        :        -742.71540828 Ha      -20210.31454871 eV

  Derived energy quantities:
  | Kinetic energy                :         744.02902159 Ha       20246.05978560 eV
  | Electrostatic energy          :       -1385.99399423 Ha      -37714.81549159 eV
  | Energy correction for multipole
  | error in Hartree potential    :          -0.04209466 Ha          -1.14545387 eV
  | Sum of eigenvalues per atom                           :        -355.63206866 eV
  | Total energy (T->0) per atom                          :        -631.57232965 eV  <-- do not rely on this value for anything but (periodic) metals
  | Electronic free energy per atom                       :        -631.57232965 eV

  Self-consistency convergence accuracy:
  | Change of charge density      :  0.9031E+00
  | Change of sum of eigenvalues  :  0.5344E+03 eV
  | Change of total energy        :  0.1537E+02 eV

  End self-consistency iteration #     1       :  max(cpu_time)    wall_clock(cpu1)
  | Time for this iteration                    :        1.636 s           1.636 s
[...]
   Multipole                     : -0.294041E+00  0.436986E+00 -0.297134E+00
   Pulay + GGA                   : -0.562874E+01  0.922641E+01 -0.738321E+01
   MBD@rsSCS                     : -0.355835E-02  0.957353E-02 -0.212081E-01
   ----------------------------------------------------------------
   Total forces(  20)            :  0.432191E-02  0.167662E-01  0.815131E-04
  atom #   21
   Hellmann-Feynman              : -0.153714E-01 -0.452063E-01 -0.363273E-01
   Ionic forces                  :  0.000000E+00  0.000000E+00  0.000000E+00
   Multipole                     :  0.194882E-01  0.125938E-02  0.342768E-01
   Pulay + GGA                   : -0.396568E-03  0.570517E-01  0.119469E-01
   MBD@rsSCS                     :  0.278097E-02 -0.610164E-02  0.806864E-02
   ----------------------------------------------------------------
   Total forces(  21)            :  0.650121E-02  0.700315E-02  0.179650E-01
  atom #   22
   Hellmann-Feynman              : -0.731705E-02  0.411680E-01  0.215267E-01
   Ionic forces                  :  0.000000E+00  0.000000E+00  0.000000E+00
   Multipole                     : -0.105944E-01  0.677013E-03 -0.109905E-02
   Pulay + GGA                   :  0.225175E-01 -0.445414E-01 -0.271784E-01
   MBD@rsSCS                     : -0.296767E-02 -0.105071E-01 -0.119101E-01
   ----------------------------------------------------------------
   Total forces(  22)            :  0.163838E-02 -0.132034E-01 -0.186608E-01
  atom #   23
   Hellmann-Feynman              :  0.785754E+00  0.713469E+00  0.444964E+00
   Ionic forces                  :  0.000000E+00  0.000000E+00  0.000000E+00
   Multipole                     : -0.911152E-01 -0.242016E+00 -0.107284E+00
   Pulay + GGA                   : -0.687189E+00 -0.468185E+00 -0.324923E+00
   MBD@rsSCS                     : -0.128288E-01 -0.918541E-02 -0.544981E-02
   ----------------------------------------------------------------
   Total forces(  23)            : -0.537822E-02 -0.591713E-02  0.730730E-02
  atom #   24
   Hellmann-Feynman              : -0.420474E-01 -0.402773E-01 -0.353652E-01
   Ionic forces                  :  0.000000E+00  0.000000E+00  0.000000E+00
   Multipole                     :  0.378269E-02  0.392340E-01 -0.107694E-01
   Pulay + GGA                   :  0.375678E-01 -0.655748E-02  0.474116E-01
   MBD@rsSCS                     : -0.795533E-02 -0.739731E-02 -0.222116E-02
   ----------------------------------------------------------------
   Total forces(  24)            : -0.865226E-02 -0.149981E-01 -0.944249E-03
  atom #   25
   Hellmann-Feynman              :  0.163569E-01 -0.394012E-01  0.593394E-02
   Ionic forces                  :  0.000000E+00  0.000000E+00  0.000000E+00
   Multipole                     :  0.238838E-01 -0.969616E-02 -0.988757E-02
   Pulay + GGA                   : -0.409184E-01  0.480495E-01 -0.160418E-02
   MBD@rsSCS                     : -0.106653E-01 -0.753743E-02 -0.399566E-02
   ----------------------------------------------------------------
   Total forces(  25)            : -0.113430E-01 -0.858533E-02 -0.955347E-02
  atom #   26
   Hellmann-Feynman              : -0.290362E-01 -0.456874E-01  0.742658E-02
   Ionic forces                  :  0.000000E+00  0.000000E+00  0.000000E+00
   Multipole                     : -0.793900E-02  0.181717E-01  0.314797E-01
   Pulay + GGA                   :  0.325604E-01  0.277875E-01 -0.423592E-01
   MBD@rsSCS                     : -0.805156E-02 -0.641107E-02 -0.607962E-02
   ----------------------------------------------------------------
   Total forces(  26)            : -0.124664E-01 -0.613923E-02 -0.953261E-02
  atom #   27
   Hellmann-Feynman              :  0.112840E+01  0.921656E+00  0.333739E-01
   Ionic forces                  :  0.000000E+00  0.000000E+00  0.000000E+00
   Multipole                     :  0.290635E+00 -0.901189E-01 -0.582082E-02
   Pulay + GGA                   : -0.142478E+01 -0.831711E+00 -0.152030E-01
   MBD@rsSCS                     :  0.214319E-01 -0.731902E-02 -0.257630E-01
   ----------------------------------------------------------------
   Total forces(  27)            :  0.156822E-01 -0.749291E-02 -0.134130E-01
  atom #   28
   Hellmann-Feynman              : -0.126084E+01 -0.912586E+00  0.185956E+01
   Ionic forces                  :  0.000000E+00  0.000000E+00  0.000000E+00
   Multipole                     :  0.114736E+00  0.896751E-01 -0.122097E+00
   Pulay + GGA                   :  0.114079E+01  0.822916E+00 -0.171754E+01
   MBD@rsSCS                     :  0.121862E-01 -0.236681E-02 -0.133491E-01
   ----------------------------------------------------------------
   Total forces(  28)            :  0.686975E-02 -0.236120E-02  0.657745E-02
  atom #   29
   Hellmann-Feynman              :  0.255747E-01 -0.255971E-01  0.390294E-02
   Ionic forces                  :  0.000000E+00  0.000000E+00  0.000000E+00
   Multipole                     : -0.231424E-01 -0.635332E-02  0.374295E-01
   Pulay + GGA                   : -0.101174E-01  0.412717E-01 -0.379804E-01
   MBD@rsSCS                     :  0.474596E-02 -0.417446E-02 -0.103114E-01
   ----------------------------------------------------------------
   Total forces(  29)            : -0.293920E-02  0.514687E-02 -0.695929E-02
  atom #   30
   Hellmann-Feynman              :  0.401962E-01 -0.646605E-02 -0.320443E-01
   Ionic forces                  :  0.000000E+00  0.000000E+00  0.000000E+00
   Multipole                     : -0.100687E-01 -0.372239E-01 -0.105295E-02
   Pulay + GGA                   : -0.344932E-01  0.463725E-01  0.328841E-01
   MBD@rsSCS                     :  0.507247E-02  0.661787E-04 -0.478263E-02
   ----------------------------------------------------------------
   Total forces(  30)            :  0.706875E-03  0.274877E-02 -0.499576E-02
  atom #   31
   Hellmann-Feynman              :  0.419207E-01  0.214688E-01 -0.483917E-01
   Ionic forces                  :  0.000000E+00  0.000000E+00  0.000000E+00
   Multipole                     : -0.510796E-01  0.107581E-01  0.463850E-02
   Pulay + GGA                   :  0.105950E-01 -0.337837E-01  0.482059E-01
   MBD@rsSCS                     :  0.300220E-02  0.195494E-02 -0.641974E-02
   ----------------------------------------------------------------
   Total forces(  31)            :  0.443824E-02  0.398163E-03 -0.196702E-02
  atom #   32
   Hellmann-Feynman              :  0.400807E-01  0.248651E-01  0.271853E-02
   Ionic forces                  :  0.000000E+00  0.000000E+00  0.000000E+00
   Multipole                     :  0.903037E-02  0.131111E-01  0.265499E-01
   Pulay + GGA                   : -0.546360E-01 -0.325460E-01 -0.234975E-01
   MBD@rsSCS                     :  0.602482E-02 -0.159075E-02 -0.943199E-02
   ----------------------------------------------------------------
   Total forces(  32)            :  0.499954E-03  0.383946E-02 -0.366113E-02

  Removing unitary transformations (pure translations, rotations) from forces on atoms.
  Atomic forces before filtering:
  | Net force on center of mass :  -0.368878E-03 -0.642661E-04 -0.162643E-03 eV/A
  | Net torque on center of mass:  -0.136523E-02  0.313022E-02 -0.830534E-03 eV
  Atomic forces after filtering:
  | Net force on center of mass :  -0.313605E-17  0.696899E-18 -0.132411E-16 eV/A
  | Net torque on center of mass:   0.177016E-16  0.545799E-16 -0.199143E-16 eV

  Energy and forces in a compact form:
  | Total energy uncorrected      :         -0.202089827883397E+05 eV
  | Total energy corrected        :         -0.202089827883397E+05 eV  <-- do not rely on this value for anything but (periodic) metals
  | Electronic free energy        :         -0.202089827883397E+05 eV
  Total atomic forces (unitary forces cleaned) [eV/Ang]:
  |   1         -0.205204375130476E-01         -0.215212312569702E-02          0.746361047110753E-02
  |   2         -0.185235052869391E-01          0.978231654877152E-02          0.115616739957015E-01
  |   3          0.346510108354433E-02          0.250775650987543E-02         -0.315395230678852E-02
  |   4         -0.115103254720419E-01         -0.474885571358722E-02          0.163141899103308E-01
  |   5          0.324764103935470E-02         -0.321009062295328E-02          0.199658490002988E-02
  |   6         -0.185607694358650E-01         -0.728386473679801E-02          0.157039990662548E-01
  |   7         -0.653844126402870E-02          0.313830487362277E-01         -0.321406849746682E-02
  |   8          0.342454973488955E-01          0.127697117418725E-01         -0.438409276690782E-02
  |   9          0.269633785747247E-01         -0.195975904562149E-01          0.278196942024409E-01
  |  10         -0.102058699973322E-01         -0.884555314804165E-02         -0.250862071049328E-02
  |  11         -0.109672132672295E-01          0.367700001682468E-02          0.112958860876183E-01
  |  12          0.117122847422898E-01         -0.310033233023560E-02         -0.769061454828013E-02
  |  13          0.178498024431467E-02          0.352439343451337E-02         -0.856706283781812E-02
  |  14          0.214836458222678E-01          0.148777449472242E-01          0.725185103878023E-02
  |  15          0.144156232349528E-01          0.246306000747400E-02         -0.707993822389157E-02
  |  16          0.195887350658304E-02          0.850010609576054E-02         -0.127622000134383E-01
  |  17          0.397885514969063E-02         -0.129719281002967E-01          0.154180082972513E-01
  |  18         -0.140744420928169E-01         -0.136738934335557E-01         -0.180621983482719E-01
  |  19         -0.120423409657376E-01          0.901655502344494E-02         -0.975279912885249E-02
  |  20          0.429996826033491E-02          0.167535104676421E-01          0.889703705130554E-04
  |  21          0.651403524276146E-02          0.700698148073531E-02          0.179833180059096E-01
  |  22          0.164393096160022E-02         -0.132023192553142E-01         -0.186367532918790E-01
  |  23         -0.538678895137109E-02         -0.592098458866002E-02          0.734561558093569E-02
  |  24         -0.867113174082240E-02         -0.150060576586254E-01         -0.900890981667058E-03
  |  25         -0.113571307623912E-01         -0.859192264650658E-02         -0.951785301044569E-02
  |  26         -0.124656475941773E-01         -0.613789486054921E-02         -0.948329406757169E-02
  |  27          0.156659541337493E-01         -0.750439271090057E-02         -0.134197139368296E-01
  |  28          0.684130788650185E-02         -0.237951128373278E-02          0.655614029909774E-02
  |  29         -0.294708048411813E-02          0.513904442738684E-02         -0.696660114904598E-02
  |  30          0.670293072886411E-03          0.272675074553927E-02         -0.501780867855371E-02
  |  31          0.440180398350485E-02          0.376596630564057E-03         -0.198490760858053E-02
  |  32          0.477950539961703E-03          0.382273785781238E-02         -0.369617211918910E-02

  ------------------------------------ 
  Start decomposition of the XC Energy 
  ------------------------------------ 
  Hartree-Fock part   :          0.000000000 Ha              0.000000000 eV
  ------------------------------------ 
  X Energy            :        -96.984799709 Ha          -2639.090675544 eV
  C Energy GGA        :         -3.869149815 Ha           -105.284923295 eV
  Total XC Energy     :       -100.853949524 Ha          -2744.375598839 eV
  LDA X and C from self-consistent density 
  X Energy LDA        :        -88.001827840 Ha          -2394.651574067 eV
  C Energy LDA        :         -7.531971289 Ha           -204.955366788 eV
  ------------------------------------ 
  End decomposition of the XC Energy 
  ------------------------------------ 
   
  ESP charge fitting starts.
  | Calculation :  00000001  of  00000001
  | Full density
  Computing multipole expansion for total density.
  Generating points for esp charges.
  Partitioning the integration grid into batches with parallel hashing+maxmin method.
  | Number of batches:     3803
  | Maximal batch size:     200
  | Minimal batch size:      93
  | Average batch size:     127.993
  | Standard deviation of batch sizes:      19.775

  Integration load balanced across    32 MPI tasks.
  Work distribution over tasks is as follows:
  Initializing partition tables, free-atom densities, potentials, etc. across the integration grid (initialize_grid_storage).
  | Original list of interatomic distances with          32 x         32 entries is created.
  | Net number of integration points:   486759
  | of which are non-zero points    :   486759
  Summing up potential from multipole expanded  density.
  Summing up the Hartree potential.
  Time summed over all CPUs for potential: real work        6.353 s, elapsed        6.642 s
  Fitting esp charges to potential.
  |
  | ESP charges fitted to the electrostatic potential :
  |
  | Atom         1: C, ESP charge:      0.56936138
  |
  | Atom         2: C, ESP charge:     -0.63868842
  |
  | Atom         3: O, ESP charge:      0.53056752
  |
  | Atom         4: H, ESP charge:     -0.17044543
  |
  | Atom         5: H, ESP charge:     -0.16953309
  |
  | Atom         6: H, ESP charge:     -0.15422627
  |
  | Atom         7: N, ESP charge:      0.55862347
  |
  | Atom         8: C, ESP charge:     -0.52217766
  |
  | Atom         9: C, ESP charge:     -0.25172114
  |
  | Atom        10: O, ESP charge:      0.51345867
  |
  | Atom        11: H, ESP charge:     -0.26766188
  |
  | Atom        12: H, ESP charge:      0.02014085
  |
  | Atom        13: C, ESP charge:      0.56183553
  |
  | Atom        14: H, ESP charge:     -0.15387969
  |
  | Atom        15: H, ESP charge:     -0.14740884
  |
  | Atom        16: H, ESP charge:     -0.15088148
  |
  | Atom        17: N, ESP charge:      0.18029050
  |
  | Atom        18: C, ESP charge:      0.00909945
  |
  | Atom        19: C, ESP charge:     -0.45870206
  |
  | Atom        20: O, ESP charge:      0.50299005
  |
  | Atom        21: H, ESP charge:     -0.21706846
  |
  | Atom        22: H, ESP charge:     -0.06565696
  |
  | Atom        23: C, ESP charge:      0.34151594
  |
  | Atom        24: H, ESP charge:     -0.14228176
  |
  | Atom        25: H, ESP charge:     -0.07482748
  |
  | Atom        26: H, ESP charge:     -0.11871308
  |
  | Atom        27: N, ESP charge:      0.22195376
  |
  | Atom        28: C, ESP charge:      0.31281585
  |
  | Atom        29: H, ESP charge:     -0.23030288
  |
  | Atom        30: H, ESP charge:     -0.12410645
  |
  | Atom        31: H, ESP charge:     -0.15098769
  |
  | Atom        32: H, ESP charge:     -0.11338224

  RRMS:       0.00483920

  Done.

------------------------------------------------------------------------------
  Final output of selected total energy values:

  The following output summarizes some interesting total energy values
  at the end of a run (AFTER all relaxation, molecular dynamics, etc.).

  | Total energy of the DFT / Hartree-Fock s.c.f. calculation      :         -20208.982788340 eV
  | Final zero-broadening corrected energy (caution - metals only) :         -20208.982788340 eV
  | For reference only, the value of 1 Hartree used in FHI-aims is :             27.211384500 eV

  Before relying on these values, please be sure to understand exactly which
  total energy value is referred to by a given number. Different objects may
  all carry the same name 'total energy'. Definitions:

  Total energy of the DFT / Hartree-Fock s.c.f. calculation:
  | Note that this energy does not include ANY quantities calculated after the
  | s.c.f. cycle, in particular not ANY RPA, MP2, etc. many-body perturbation terms.

  Final zero-broadening corrected energy:
  | For metallic systems only, a broadening of the occupation numbers at the Fermi
  | level can be extrapolated back to zero broadening by an electron-gas inspired
  | formula. For all systems that are not real metals, this value can be
  | meaningless and should be avoided.

------------------------------------------------------------------------------
  Methods described in the following list of references were used in this FHI-aims run.
  If you publish the results, please make sure to cite these reference if they apply.
  FHI-aims is an academic code, and for our developers (often, Ph.D. students
  and postdocs), scientific credit in the community is essential.
  Thank you for helping us!

  For any use of FHI-aims, please cite:

    Volker Blum, Ralf Gehrke, Felix Hanke, Paula Havu, Ville Havu,
    Xinguo Ren, Karsten Reuter, and Matthias Scheffler
    'Ab initio molecular simulations with numeric atom-centered orbitals'
    Computer Physics Communications 180, 2175-2196 (2009)
    http://dx.doi.org/10.1016/j.cpc.2009.06.022


  The scalable eigensolver library ELPA was used in your run.
  ELPA is essential especially for large systems on hundreds or thousands of CPUs.
  For ELPA, please cite:

    Andreas Marek, Volker Blum, Rainer Johanni, Ville Havu, Bruno Lang,
    Thomas Auckenthaler, Alexander Heinecke, Hans-Joachim Bungartz, and Hermann Lederer,
    'The ELPA Library - Scalable Parallel Eigenvalue Solutions
    for Electronic Structure Theory and Computational Science'
    The Journal of Physics: Condensed Matter 26, 213201 (2014).
    http://dx.doi.org/10.1088/0953-8984/26/21/213201


  For ELPA's efficient two-stage tridiagonalization used in your run, please cite:

    T. Auckenthaler, V. Blum, H.-J. Bungartz, T. Huckle, R. Johanni, L. Kraemer,
    B. Lang, H. Lederer, and P. R. Willems,
    'Parallel solution of partial symmetric eigenvalue problems'
    'from  electronic structure calculations'
    Parallel Computing 37, 783-794 (2011).
    http://dx.doi.org/10.1016/j.parco.2011.05.002


  For the real-space grid partitioning and parallelization used in this calculation, please cite:

    Ville Havu, Volker Blum, Paula Havu, and Matthias Scheffler,
    'Efficient O(N) integration for all-electron electronic structure calculation'
    'using numerically tabulated basis functions'
    Journal of Computational Physics 228, 8367-8379 (2009).
    http://dx.doi.org/10.1016/j.jcp.2009.08.008

  Of course, there are many other important community references, e.g., those cited in the
  above references. Our list is limited to references that describe implementations in the
  FHI-aims code. The reason is purely practical (length of this list) - please credit others as well.

------------------------------------------------------------
          Leaving FHI-aims.
          Date     :  20170309, Time     :  182500.782

          Computational steps:
          | Number of self-consistency cycles          :           14

          Detailed time accounting                     :  max(cpu_time)    wall_clock(cpu1)
          | Total time                                 :       34.970 s          35.140 s
          | Preparation time                           :        0.232 s           0.235 s
          | Grid partitioning                          :        0.296 s           0.290 s
          | Preloading free-atom quantities on grid    :        0.028 s           0.028 s
          | Free-atom superposition energy             :        0.044 s           0.040 s
          | Total time for integrations                :       12.101 s          12.077 s
          | Total time for solution of K.-S. equations :        0.552 s           0.518 s
          | Total time for density & force components  :       10.273 s          10.258 s
          | Total time for mixing                      :        0.124 s           0.102 s
          | Total time for Hartree multipole update    :        0.060 s           0.058 s
          | Total time for Hartree multipole sum       :        6.360 s           6.321 s
          | Total time for total energy evaluation     :        0.028 s           0.017 s

          Have a nice day.
------------------------------------------------------------
