  MPI-parallelism will be employed.
------------------------------------------------------------
          Invoking FHI-aims ...
          Version 150427
          Git rev.: 9dd23e0 BL: Update Version stamp
          Compiled on 2015/11/03 at 22:05:20 on host eos03.

          When using FHI-aims, please cite the following reference:

          Volker Blum, Ralf Gehrke, Felix Hanke, Paula Havu,
          Ville Havu, Xinguo Ren, Karsten Reuter, and Matthias Scheffler,
          'Ab Initio Molecular Simulations with Numeric Atom-Centered Orbitals: FHI-aims',
          Computer Physics Communications 180, 2175-2196 (2009)

          For any questions about FHI-aims, please visit the aimsclub website
          with its forums and wiki. Contributions to both the forums and the
          wiki are warmly encouraged - they are for you, and everyone is welcome there.

------------------------------------------------------------

  Date     :  20170309, Time     :  190140.290
  Time zero on CPU 1             :   0.300018000000000E+00  s.
  Internal wall clock time zero  :           258318100.290  s.

  Using       32 parallel tasks.
  Task        0 on host eos399 reporting.
  Task        1 on host eos399 reporting.
  Task        2 on host eos399 reporting.
  Task        3 on host eos399 reporting.
  Task        4 on host eos399 reporting.
  Task        5 on host eos399 reporting.
  Task        6 on host eos399 reporting.
  Task        7 on host eos399 reporting.
  Task        8 on host eos399 reporting.
  Task        9 on host eos399 reporting.
  Task       10 on host eos399 reporting.
  Task       11 on host eos399 reporting.
  Task       12 on host eos399 reporting.
  Task       13 on host eos399 reporting.
  Task       14 on host eos399 reporting.
  Task       15 on host eos399 reporting.
  Task       16 on host eos399 reporting.
  Task       17 on host eos399 reporting.
  Task       18 on host eos399 reporting.
  Task       19 on host eos399 reporting.
  Task       20 on host eos399 reporting.
  Task       21 on host eos399 reporting.
  Task       22 on host eos399 reporting.
  Task       23 on host eos399 reporting.
  Task       24 on host eos399 reporting.
  Task       25 on host eos399 reporting.
  Task       26 on host eos399 reporting.
  Task       27 on host eos399 reporting.
  Task       28 on host eos399 reporting.
  Task       29 on host eos399 reporting.
  Task       30 on host eos399 reporting.
  Task       31 on host eos399 reporting.

  Performing system and environment tests:
  | Environment variable OMP_NUM_THREADS correctly set to 1.
  | Stacksize not measured: no C compiler
  | Checking for scalapack...
  | Testing pdtran()...
  | All pdtran() tests passed.

  Obtaining array dimensions for all initial allocations:
  
  -----------------------------------------------------------------------
  Parsing control.in (first pass over file, find array dimensions only).
  The contents of control.in will be repeated verbatim below
  unless switched off by setting 'verbatim_writeout .false.' .
  in the first line of control.in .
  -----------------------------------------------------------------------
  
  #########################################################################################
  #
  # Input for System
  #
  #########################################################################################
  #
  #
  #  Physical model
  #
    xc                 pbe
    many_body_dispersion
    spin               none
    charge             0.
  #
  #  SCF convergence
  #
    occupation_type    gaussian 0.05
    mixer              pulay
      n_max_pulay        10
      charge_mix_param   0.5
    sc_accuracy_rho    1E-4
    sc_accuracy_eev    1E-2
    sc_accuracy_etot   1E-5
    sc_accuracy_forces 1E-4
    sc_iter_limit      1000
  #
  #  ESP charge
  #
    output esp
    esp equal_grid_n 80 80 80
  #
  #
  ################################################################################
  #
  #  FHI-aims code project
  # Volker Blum, Fritz Haber Institute Berlin, 2009
  #
  #  Suggested "tight" defaults for H atom (to be pasted into control.in file)
  #
  ################################################################################
    species        H
  #     global species definitions
      nucleus             1
      mass                1.00794
  #
      l_hartree           6
  #
      cut_pot             4.0  2.0  1.0
      basis_dep_cutoff    1e-4
  #
      radial_base         24 7.0
      radial_multiplier   2
      angular_grids       specified
        division   0.1930   50
        division   0.3175  110
        division   0.4293  194
        division   0.5066  302
        division   0.5626  434
  #      division   0.5922  590
  #      division   0.6227  974
  #      division   0.6868 1202
  #      outer_grid  770
        outer_grid  434
  ################################################################################
  #
  #  Definition of "minimal" basis
  #
  ################################################################################
  #     valence basis states
      valence      1  s   1.
  #     ion occupancy
      ion_occ      1  s   0.5
  ################################################################################
  #
  #  Suggested additional basis functions. For production calculations,
  #  uncomment them one after another (the most important basis functions are
  #  listed first).
  #
  #  Basis constructed for dimers: 0.5 A, 0.7 A, 1.0 A, 1.5 A, 2.5 A
  #
  ################################################################################
  #  "First tier" - improvements: -1014.90 meV to -62.69 meV
       hydro 2 s 2.1
       hydro 2 p 3.5
  #  "Second tier" - improvements: -12.89 meV to -1.83 meV
       hydro 1 s 0.85
       hydro 2 p 3.7
       hydro 2 s 1.2
       hydro 3 d 7
  #  "Third tier" - improvements: -0.25 meV to -0.12 meV
  #     hydro 4 f 11.2
  #     hydro 3 p 4.8
  #     hydro 4 d 9
  #     hydro 3 s 3.2
  ################################################################################
  #
  # For methods that use the localized form of the "resolution of identity" for
  # the two-electron Coulomb operator (RI_method LVL), particularly Hartree-Fock and
  # hybrid density functional calculations, the highest accuracy can be obtained by
  # uncommenting the line beginning with "for_aux"  below, thus adding an extra g radial
  # function to the construction of the product basis set for the expansion.
  # See Ref. New J. Phys. 17, 093020 (2015) for more information, particularly Figs. 1 and 6.
  #
  ################################################################################
  #
  # for_aux hydro 5 g 6.0
  ################################################################################
  #
  #  FHI-aims code project
  # Volker Blum, Fritz Haber Institute Berlin, 2009
  #
  #  Suggested "tight" defaults for C atom (to be pasted into control.in file)
  #
  ################################################################################
    species        C
  #     global species definitions
      nucleus             6
      mass                12.0107
  #
      l_hartree           6
  #
      cut_pot             4.0  2.0  1.0
      basis_dep_cutoff    1e-4
  #
      radial_base         34 7.0
      radial_multiplier   2
      angular_grids specified
        division   0.2187   50
        division   0.4416  110
        division   0.6335  194
        division   0.7727  302
        division   0.8772  434
  #      division   0.9334  590
  #      division   0.9924  770
  #      division   1.0230  974
  #      division   1.5020 1202
  #     outer_grid  974
        outer_grid  434
  ################################################################################
  #
  #  Definition of "minimal" basis
  #
  ################################################################################
  #     valence basis states
      valence      2  s   2.
      valence      2  p   2.
  #     ion occupancy
      ion_occ      2  s   1.
      ion_occ      2  p   1.
  ################################################################################
  #
  #  Suggested additional basis functions. For production calculations,
  #  uncomment them one after another (the most important basis functions are
  #  listed first).
  #
  #  Constructed for dimers: 1.0 A, 1.25 A, 1.5 A, 2.0 A, 3.0 A
  #
  ################################################################################
  #  "First tier" - improvements: -1214.57 meV to -155.61 meV
       hydro 2 p 1.7
       hydro 3 d 6
       hydro 2 s 4.9
  #  "Second tier" - improvements: -67.75 meV to -5.23 meV
       hydro 4 f 9.8
       hydro 3 p 5.2
       hydro 3 s 4.3
       hydro 5 g 14.4
       hydro 3 d 6.2
  #  "Third tier" - improvements: -2.43 meV to -0.60 meV
  #     hydro 2 p 5.6
  #     hydro 2 s 1.4
  #     hydro 3 d 4.9
  #     hydro 4 f 11.2
  #  "Fourth tier" - improvements: -0.39 meV to -0.18 meV
  #     hydro 2 p 2.1
  #     hydro 5 g 16.4
  #     hydro 4 d 13.2
  #     hydro 3 s 13.6
  #     hydro 4 f 17.6
  #  Further basis functions - improvements: -0.08 meV and below
  #     hydro 3 s 2
  #     hydro 3 p 6
  #     hydro 4 d 20
  ################################################################################
  #
  # For methods that use the localized form of the "resolution of identity" for
  # the two-electron Coulomb operator (RI_method LVL), particularly Hartree-Fock and
  # hybrid density functional calculations, the highest accuracy can be obtained by
  # uncommenting the line beginning with "for_aux"  below, thus adding an extra g radial
  # function to the construction of the product basis set for the expansion.
  # See Ref. New J. Phys. 17, 093020 (2015) for more information, particularly Figs. 1 and 6.
  #
  ################################################################################
  #
  # for_aux hydro 5 g 6.0
  ################################################################################
  #
  #  FHI-aims code project
  # Volker Blum, Fritz Haber Institute Berlin, 2009
  #
  #  Suggested "tight" defaults for N atom (to be pasted into control.in file)
  #
  ################################################################################
    species        N
  #     global species definitions
      nucleus             7
      mass                14.0067
  #
      l_hartree           6
  #
      cut_pot             4.0  2.0  1.0
      basis_dep_cutoff    1e-4
  #
      radial_base         35 7.0
      radial_multiplier   2
      angular_grids       specified
        division   0.1841   50
        division   0.3514  110
        division   0.5126  194
        division   0.6292  302
        division   0.6939  434
  #      division   0.7396  590
  #      division   0.7632  770
  #      division   0.8122  974
  #      division   1.1604 1202
  #      outer_grid  974
        outer_grid  434
  ################################################################################
  #
  #  Definition of "minimal" basis
  #
  ################################################################################
  #     valence basis states
      valence      2  s   2.
      valence      2  p   3.
  #     ion occupancy
      ion_occ      2  s   1.
      ion_occ      2  p   2.
  ################################################################################
  #
  #  Suggested additional basis functions. For production calculations,
  #  uncomment them one after another (the most important basis functions are
  #  listed first).
  #
  #  Constructed for dimers: 1.0 A, 1.1 A, 1.5 A, 2.0 A, 3.0 A
  #
  ################################################################################
  #  "First tier" - improvements: -1193.42 meV to -220.60 meV
       hydro 2 p 1.8
       hydro 3 d 6.8
       hydro 3 s 5.8
  #  "Second tier" - improvements: -80.21 meV to -6.86 meV
       hydro 4 f 10.8
       hydro 3 p 5.8
       hydro 1 s 0.8
       hydro 5 g 16
       hydro 3 d 4.9
  #  "Third tier" - improvements: -4.29 meV to -0.53 meV
  #     hydro 3 s 16
  #     ionic 2 p auto
  #     hydro 3 d 6.6
  #     hydro 4 f 11.6
  #  "Fourth tier" - improvements: -0.75 meV to -0.25 meV
  #     hydro 2 p 4.5
  #     hydro 2 s 2.4
  #     hydro 5 g 14.4
  #     hydro 4 d 14.4
  #     hydro 4 f 16.8
  # Further basis functions - -0.21 meV and below
  #     hydro 3 p 14.8
  #     hydro 3 s 4.4
  #     hydro 3 d 19.6
  #     hydro 5 g 12.8
  ################################################################################
  #
  # For methods that use the localized form of the "resolution of identity" for
  # the two-electron Coulomb operator (RI_method LVL), particularly Hartree-Fock and
  # hybrid density functional calculations, the highest accuracy can be obtained by
  # uncommenting the line beginning with "for_aux"  below, thus adding an extra g radial
  # function to the construction of the product basis set for the expansion.
  # See Ref. New J. Phys. 17, 093020 (2015) for more information, particularly Figs. 1 and 6.
  #
  ################################################################################
  #
  # for_aux hydro 5 g 6.0
  ################################################################################
  #
  #  FHI-aims code project
  # Volker Blum, Fritz Haber Institute Berlin, 2009
  #
  #  Suggested "tight" defaults for O atom (to be pasted into control.in file)
  #
  ################################################################################
    species        O
  #     global species definitions
      nucleus             8
      mass                15.9994
  #
      l_hartree           6
  #
      cut_pot             4.0  2.0  1.0
      basis_dep_cutoff    1e-4
  #
      radial_base         36 7.0
      radial_multiplier   2
       angular_grids specified
        division   0.1817   50
        division   0.3417  110
        division   0.4949  194
        division   0.6251  302
        division   0.8014  434
  #      division   0.8507  590
  #      division   0.8762  770
  #      division   0.9023  974
  #      division   1.2339 1202
  #      outer_grid 974
        outer_grid  434
  ################################################################################
  #
  #  Definition of "minimal" basis
  #
  ################################################################################
  #     valence basis states
      valence      2  s   2.
      valence      2  p   4.
  #     ion occupancy
      ion_occ      2  s   1.
      ion_occ      2  p   3.
  ################################################################################
  #
  #  Suggested additional basis functions. For production calculations,
  #  uncomment them one after another (the most important basis functions are
  #  listed first).
  #
  #  Constructed for dimers: 1.0 A, 1.208 A, 1.5 A, 2.0 A, 3.0 A
  #
  ################################################################################
  #  "First tier" - improvements: -699.05 meV to -159.38 meV
       hydro 2 p 1.8
       hydro 3 d 7.6
       hydro 3 s 6.4
  #  "Second tier" - improvements: -49.91 meV to -5.39 meV
       hydro 4 f 11.6
       hydro 3 p 6.2
       hydro 3 d 5.6
       hydro 5 g 17.6
       hydro 1 s 0.75
  #  "Third tier" - improvements: -2.83 meV to -0.50 meV
  #     ionic 2 p auto
  #     hydro 4 f 10.8
  #     hydro 4 d 4.7
  #     hydro 2 s 6.8
  #  "Fourth tier" - improvements: -0.40 meV to -0.12 meV
  #     hydro 3 p 5
  #     hydro 3 s 3.3
  #     hydro 5 g 15.6
  #     hydro 4 f 17.6
  #     hydro 4 d 14
  # Further basis functions - -0.08 meV and below
  #     hydro 3 s 2.1
  #     hydro 4 d 11.6
  #     hydro 3 p 16
  #     hydro 2 s 17.2
  ################################################################################
  #
  # For methods that use the localized form of the "resolution of identity" for
  # the two-electron Coulomb operator (RI_method LVL), particularly Hartree-Fock and
  # hybrid density functional calculations, the highest accuracy can be obtained by
  # uncommenting the line beginning with "for_aux"  below, thus adding an extra g radial
  # function to the construction of the product basis set for the expansion.
  # See Ref. New J. Phys. 17, 093020 (2015) for more information, particularly Figs. 1 and 6.
  #
  ################################################################################
  #
  # for_aux hydro 5 g 6.0
  
  -----------------------------------------------------------------------
  Completed first pass over input file control.in .
  -----------------------------------------------------------------------
  
  
  -----------------------------------------------------------------------
  Parsing geometry.in (first pass over file, find array dimensions only).
  The contents of geometry.in will be repeated verbatim below
  unless switched off by setting 'verbatim_writeout .false.' .
  in the first line of geometry.in .
  -----------------------------------------------------------------------
  
  #
  # This is the geometry file that corresponds to the current relaxation step.
  # If you do not want this file to be written, set the "write_restart_geometry" flag to .false.
  #
  atom       0.29953193     -0.14688857      0.88008568 C
  atom       0.05321947      0.85433230      1.99182350 C
  atom       0.96450014      1.48869554      2.51467859 O
  atom       1.36432242     -0.39598296      0.88340138 H
  atom       0.05395079      0.29161083     -0.09968834 H
  atom      -0.28678891     -1.06880119      0.99757033 H
  atom      -1.24754382      1.02525941      2.42497367 N
  atom      -2.46614395      0.56992389      1.77251063 C
  atom      -2.75847176      1.42363547      0.51629833 C
  atom      -2.84626739      2.64809759      0.58199952 O
  atom      -1.34571614      1.81597558      3.05829899 H
  atom      -2.32753139     -0.48201608      1.47962601 H
  atom      -3.64529685      0.66280162      2.74171706 C
  atom      -4.56279477      0.28594225      2.27209977 H
  atom      -3.81850694      1.70915996      3.02734454 H
  atom      -3.44389992      0.07356196      3.64492747 H
  atom      -2.91134078      0.71110989     -0.63729527 N
  atom      -2.96367262      1.33479576     -1.96759611 C
  atom      -1.56730484      1.95858131     -2.25968467 C
  atom      -0.62671683      1.16656307     -2.37877983 O
  atom      -2.61209558     -0.25697719     -0.61410501 H
  atom      -2.96717196      0.48958691     -2.66958506 H
  atom      -4.25522371      2.12135209     -2.19579395 C
  atom      -4.25286903      2.58011078     -3.19303186 H
  atom      -4.41339123      2.89959993     -1.44488746 H
  atom      -5.10419783      1.42663228     -2.14974214 H
  atom      -1.37210224      3.29460893     -2.41823294 N
  atom      -2.20849398      4.43490802     -2.05622022 C
  atom      -0.39577757      3.49285188     -2.61979877 H
  atom      -1.55984572      5.31556284     -1.99689407 H
  atom      -2.67068489      4.28262946     -1.07428397 H
  atom      -2.98295606      4.63878442     -2.80862580 H
  
  -----------------------------------------------------------------------
  Completed first pass over input file geometry.in .
  -----------------------------------------------------------------------
  

  Basic array size parameters:
  | Number of species                 :        4
  | Number of atoms                   :       32
  | Max. basis fn. angular momentum   :        4
  | Max. atomic/ionic basis occupied n:        2
  | Max. number of basis fn. types    :        2
  | Max. radial fns per species/type  :        8
  | Max. logarithmic grid size        :     1301
  | Max. radial integration grid size :       73
  | Max. angular integration grid size:      434
  | Max. angular grid division number :        8
  | Radial grid for Hartree potential :     1301
  | Number of spin channels           :        1

------------------------------------------------------------
          Reading file control.in.
------------------------------------------------------------
  XC: Using PBE gradient-corrected functionals.
  Self-consistent screening and van der Waals energy (TS, TS+SCS,MBD) module
  Spin treatment: No spin polarisation.
  Charge =   0.000000E+00: Neutral system requested explicitly.
  Occupation type: Gaussian broadening, width =   0.500000E-01 eV.
  Using pulay charge density mixing.
  Pulay mixing - number of memorized iterations:   10
  Charge density mixing - mixing parameter:     0.5000
  Convergence accuracy of self-consistent charge density:  0.1000E-03
  Convergence accuracy of sum of eigenvalues:  0.1000E-01
  Convergence accuracy of total energy:  0.1000E-04
  Convergence accuracy of forces:  0.1000E-03
  Maximum number of s.-c. iterations  :  1000
  Fitting ESP-charges to Potential. 
  | Esp charge output options: 
  | ESP Grid method: 3, cubic grid
  | Number of points in x, ,y, z:  0080 0080 0080
  |
 
  Reading configuration options for species H                   .
  | Found nuclear charge :   1.0000
  | Found atomic mass :    1.00794000000000      amu
  | Found l_max for Hartree potential  :   6
  | Found cutoff potl. onset [A], width [A], scale factor :    4.00000    2.00000    1.00000
  | Threshold for basis-dependent cutoff potential is   0.100000E-03
  | Found data for basic radial integration grid :    24 points, outermost radius =    7.000 A
  | Found multiplier for basic radial grid :   2
  | Found angular grid specification: user-specified.
  | Specified grid contains     6 separate shells.
  | Check grid settings after all constraints further below.
  | Found free-atom valence shell :  1 s   1.000
  | No ionic wave fns used. Skipping ion_occ.
  | Found hydrogenic basis function :  2 s   2.100
  | Found hydrogenic basis function :  2 p   3.500
  | Found hydrogenic basis function :  1 s   0.850
  | Found hydrogenic basis function :  2 p   3.700
  | Found hydrogenic basis function :  2 s   1.200
  | Found hydrogenic basis function :  3 d   7.000
  Species H                   : Missing cutoff potential type.
  Defaulting to exp(1/x)/(1-x)^2 type cutoff potential.
  Species H : No 'logarithmic' tag. Using default grid for free atom:
  | Default logarithmic grid data [bohr] : 0.1000E-03 0.1000E+03 0.1012E+01
  Species H : On-site basis accuracy parameter (for Gram-Schmidt orthonormalisation) not specified.
  Using default value basis_acc =  0.1000000E-03.
  Species H                   : Using default innermost maximum threshold i_radial=  2 for radial functions.
  Species H                   : Default cutoff onset for free atom density etc. : 0.40000000E+01 AA.
  Species H                   : Basic radial grid will be enhanced according to radial_multiplier =   2, to contain    49 grid points.
 
  Reading configuration options for species C                   .
  | Found nuclear charge :   6.0000
  | Found atomic mass :    12.0107000000000      amu
  | Found l_max for Hartree potential  :   6
  | Found cutoff potl. onset [A], width [A], scale factor :    4.00000    2.00000    1.00000
  | Threshold for basis-dependent cutoff potential is   0.100000E-03
  | Found data for basic radial integration grid :    34 points, outermost radius =    7.000 A
  | Found multiplier for basic radial grid :   2
  | Found angular grid specification: user-specified.
  | Specified grid contains     6 separate shells.
  | Check grid settings after all constraints further below.
  | Found free-atom valence shell :  2 s   2.000
  | Found free-atom valence shell :  2 p   2.000
  | No ionic wave fns used. Skipping ion_occ.
  | No ionic wave fns used. Skipping ion_occ.
  | Found hydrogenic basis function :  2 p   1.700
  | Found hydrogenic basis function :  3 d   6.000
  | Found hydrogenic basis function :  2 s   4.900
  | Found hydrogenic basis function :  4 f   9.800
  | Found hydrogenic basis function :  3 p   5.200
  | Found hydrogenic basis function :  3 s   4.300
  | Found hydrogenic basis function :  5 g  14.400
  | Found hydrogenic basis function :  3 d   6.200
  Species C                   : Missing cutoff potential type.
  Defaulting to exp(1/x)/(1-x)^2 type cutoff potential.
  Species C : No 'logarithmic' tag. Using default grid for free atom:
  | Default logarithmic grid data [bohr] : 0.1000E-03 0.1000E+03 0.1012E+01
  Species C : On-site basis accuracy parameter (for Gram-Schmidt orthonormalisation) not specified.
  Using default value basis_acc =  0.1000000E-03.
  Species C                   : Using default innermost maximum threshold i_radial=  2 for radial functions.
  Species C                   : Default cutoff onset for free atom density etc. : 0.40000000E+01 AA.
  Species C                   : Basic radial grid will be enhanced according to radial_multiplier =   2, to contain    69 grid points.
 
  Reading configuration options for species N                   .
  | Found nuclear charge :   7.0000
  | Found atomic mass :    14.0067000000000      amu
  | Found l_max for Hartree potential  :   6
  | Found cutoff potl. onset [A], width [A], scale factor :    4.00000    2.00000    1.00000
  | Threshold for basis-dependent cutoff potential is   0.100000E-03
  | Found data for basic radial integration grid :    35 points, outermost radius =    7.000 A
  | Found multiplier for basic radial grid :   2
  | Found angular grid specification: user-specified.
  | Specified grid contains     6 separate shells.
  | Check grid settings after all constraints further below.
  | Found free-atom valence shell :  2 s   2.000
  | Found free-atom valence shell :  2 p   3.000
  | No ionic wave fns used. Skipping ion_occ.
  | No ionic wave fns used. Skipping ion_occ.
  | Found hydrogenic basis function :  2 p   1.800
  | Found hydrogenic basis function :  3 d   6.800
  | Found hydrogenic basis function :  3 s   5.800
  | Found hydrogenic basis function :  4 f  10.800
  | Found hydrogenic basis function :  3 p   5.800
  | Found hydrogenic basis function :  1 s   0.800
  | Found hydrogenic basis function :  5 g  16.000
  | Found hydrogenic basis function :  3 d   4.900
  Species N                   : Missing cutoff potential type.
  Defaulting to exp(1/x)/(1-x)^2 type cutoff potential.
  Species N : No 'logarithmic' tag. Using default grid for free atom:
  | Default logarithmic grid data [bohr] : 0.1000E-03 0.1000E+03 0.1012E+01
  Species N : On-site basis accuracy parameter (for Gram-Schmidt orthonormalisation) not specified.
  Using default value basis_acc =  0.1000000E-03.
  Species N                   : Using default innermost maximum threshold i_radial=  2 for radial functions.
  Species N                   : Default cutoff onset for free atom density etc. : 0.40000000E+01 AA.
  Species N                   : Basic radial grid will be enhanced according to radial_multiplier =   2, to contain    71 grid points.
 
  Reading configuration options for species O                   .
  | Found nuclear charge :   8.0000
  | Found atomic mass :    15.9994000000000      amu
  | Found l_max for Hartree potential  :   6
  | Found cutoff potl. onset [A], width [A], scale factor :    4.00000    2.00000    1.00000
  | Threshold for basis-dependent cutoff potential is   0.100000E-03
  | Found data for basic radial integration grid :    36 points, outermost radius =    7.000 A
  | Found multiplier for basic radial grid :   2
  | Found angular grid specification: user-specified.
  | Specified grid contains     6 separate shells.
  | Check grid settings after all constraints further below.
  | Found free-atom valence shell :  2 s   2.000
  | Found free-atom valence shell :  2 p   4.000
  | No ionic wave fns used. Skipping ion_occ.
  | No ionic wave fns used. Skipping ion_occ.
  | Found hydrogenic basis function :  2 p   1.800
  | Found hydrogenic basis function :  3 d   7.600
  | Found hydrogenic basis function :  3 s   6.400
  | Found hydrogenic basis function :  4 f  11.600
  | Found hydrogenic basis function :  3 p   6.200
  | Found hydrogenic basis function :  3 d   5.600
  | Found hydrogenic basis function :  5 g  17.600
  | Found hydrogenic basis function :  1 s   0.750
  Species O                   : Missing cutoff potential type.
  Defaulting to exp(1/x)/(1-x)^2 type cutoff potential.
  Species O : No 'logarithmic' tag. Using default grid for free atom:
  | Default logarithmic grid data [bohr] : 0.1000E-03 0.1000E+03 0.1012E+01
  Species O : On-site basis accuracy parameter (for Gram-Schmidt orthonormalisation) not specified.
  Using default value basis_acc =  0.1000000E-03.
  Species O                   : Using default innermost maximum threshold i_radial=  2 for radial functions.
  Species O                   : Default cutoff onset for free atom density etc. : 0.40000000E+01 AA.
  Species O                   : Basic radial grid will be enhanced according to radial_multiplier =   2, to contain    73 grid points.
 
  Finished reading input file 'control.in'. Consistency checks are next.
 
  Target number of points in a grid batch is not set. Defaulting to  100
  Method for grid partitioning is not set. Defaulting to parallel hash+maxmin partitioning.
  Batch size limit is not set. Defaulting to    200
  By default, will store active basis functions for each batch.
  If in need of memory, prune_basis_once .false. can be used to disable this option.
  communication_type for Hartree potential was not specified.
  Defaulting to calc_hartree .
  Pulay mixer: Number of initial linear mixing iterations not set.
  Defaulting to    0 iterations.
  Work space size for distributed Hartree potential not set.
  Defaulting to   0.200000E+03 MB.
  Algorithm-dependent basis array size parameters:
  | n_max_pulay                         :       10
  Geometry relaxation not requested: no relaxation will be performed.
  Handling of forces: Unphysical translation and rotation will be removed from forces.
  No accuracy limit for integral partition fn. given. Defaulting to  0.1000E-14.
  No threshold value for u(r) in integrations given. Defaulting to  0.1000E-05.
  No accuracy for occupation numbers given. Defaulting to  0.1000E-07.
  No threshold value for occupation numbers given. Defaulting to  0.0000E+00.
  No accuracy for fermi level given. Defaulting to  0.1000E-19.
  Maximum # of iterations to find E_F not set. Defaulting to  200.
  Preferred method for the eigenvalue solver ('KS_method') not specified in 'control.in'.
  Calling blacs routine to test compilation state
  Since scalapack support is enabled, defaulting to 'elpa'.
  Preferred method for the MBD eigenvalue solver ('mbd_eigensolver') not specified in 'control.in'.
  Calling blacs routine to test compilation state
  Since scalapack support is enabled, defaulting to 'scaLAPACK'.
  Will not use alltoall communication since running on < 1024 CPUs.
  Threshold for basis singularities not set.
  Default threshold for basis singularities:  0.1000E-04
  partition_type (choice of integration weights) for integrals was not specified.
  | Using a version of the partition function of Stratmann and coworkers ('stratmann_smoother').
  | At each grid point, the set of atoms used to build the partition table is smoothly restricted to
  | only those atoms whose free-atom density would be non-zero at that grid point.
  Partitioning for Hartree potential was not defined. Using partition_type for integrals.
  | Adjusted default value of keyword multip_moments_threshold to:       0.10000000E-11
  | This value may affect high angular momentum components of the Hartree potential in periodic systems.
  No q(lm)/r^(l+1) cutoff set for long-range Hartree potential.
  | Using default value of  0.100000E-09 .
  | Verify using the multipole_threshold keyword.
  Defaulting to new monopole extrapolation.
  Density update method: automatic selection selected.
------------------------------------------------------------


------------------------------------------------------------
          Reading geometry description geometry.in.
------------------------------------------------------------
 * Warning! You did not set the 'relativistic' flag in input file 'control.in'.
 * Since you are not attempting to treat any elements beyond Ca(Z=20), FHI-aims
 * will default to 'relativistic none'.
 * You must ensure that this is really what you want!!
 * For example, DO NOT compute total-energy differences between results from
 * different settings of the 'relativistic' flag.
  Input structure read successfully.
  The structure contains       32 atoms,  and a total of        116.000 electrons.

  Input geometry:
  | No unit cell requested.
  | Atomic structure:
  |       Atom                x [A]            y [A]            z [A]
  |    1: Species C              0.299532        -0.146889         0.880086
  |    2: Species C              0.053219         0.854332         1.991823
  |    3: Species O              0.964500         1.488696         2.514679
  |    4: Species H              1.364322        -0.395983         0.883401
  |    5: Species H              0.053951         0.291611        -0.099688
  |    6: Species H             -0.286789        -1.068801         0.997570
  |    7: Species N             -1.247544         1.025259         2.424974
  |    8: Species C             -2.466144         0.569924         1.772511
  |    9: Species C             -2.758472         1.423635         0.516298
  |   10: Species O             -2.846267         2.648098         0.582000
  |   11: Species H             -1.345716         1.815976         3.058299
  |   12: Species H             -2.327531        -0.482016         1.479626
  |   13: Species C             -3.645297         0.662802         2.741717
  |   14: Species H             -4.562795         0.285942         2.272100
  |   15: Species H             -3.818507         1.709160         3.027345
  |   16: Species H             -3.443900         0.073562         3.644927
  |   17: Species N             -2.911341         0.711110        -0.637295
  |   18: Species C             -2.963673         1.334796        -1.967596
  |   19: Species C             -1.567305         1.958581        -2.259685
  |   20: Species O             -0.626717         1.166563        -2.378780
  |   21: Species H             -2.612096        -0.256977        -0.614105
  |   22: Species H             -2.967172         0.489587        -2.669585
  |   23: Species C             -4.255224         2.121352        -2.195794
  |   24: Species H             -4.252869         2.580111        -3.193032
  |   25: Species H             -4.413391         2.899600        -1.444887
  |   26: Species H             -5.104198         1.426632        -2.149742
  |   27: Species N             -1.372102         3.294609        -2.418233
  |   28: Species C             -2.208494         4.434908        -2.056220
  |   29: Species H             -0.395778         3.492852        -2.619799
  |   30: Species H             -1.559846         5.315563        -1.996894
  |   31: Species H             -2.670685         4.282629        -1.074284
  |   32: Species H             -2.982956         4.638784        -2.808626
  |

  | The smallest distance between any two atoms is         1.01354727 AA.
  |
  | The first atom of this pair is atom number                     17 .
  | The second atom of this pair is atom number                    21 .

  Number of empty states per atom not set in control.in - providing a guess from actual geometry.
  | Total number of empty states used during s.c.f. cycle:       71
  If you use a very high smearing, use empty_states (per atom!) in control.in to increase this value.

  Structure-dependent array size parameters: 
  | Maximum number of distinct radial functions  :       40
  | Maximum number of basis functions            :      840
  | Number of Kohn-Sham states (occupied + empty):      129
------------------------------------------------------------

------------------------------------------------------------
          Preparing all fixed parts of the calculation.
------------------------------------------------------------
  Determining machine precision:
    2.225073858507201E-308
  Setting up grids for atomic and cluster calculations.

  Creating wave function, potential, and density for free atoms.

  Species: H

  List of occupied orbitals and eigenvalues:
    n    l              occ      energy [Ha]    energy [eV]
    1    0           1.0000        -0.238382        -6.4867


  Species: C

  List of occupied orbitals and eigenvalues:
    n    l              occ      energy [Ha]    energy [eV]
    1    0           2.0000       -10.041232      -273.2358
    2    0           2.0000        -0.504327       -13.7234
    2    1           2.0000        -0.193750        -5.2722


  Species: N

  List of occupied orbitals and eigenvalues:
    n    l              occ      energy [Ha]    energy [eV]
    1    0           2.0000       -14.129007      -384.4699
    2    0           2.0000        -0.681802       -18.5528
    2    1           3.0000        -0.260543        -7.0897


  Species: O

  List of occupied orbitals and eigenvalues:
    n    l              occ      energy [Ha]    energy [eV]
    1    0           2.0000       -18.898576      -514.2564
    2    0           2.0000        -0.878795       -23.9132
    2    1           4.0000        -0.332075        -9.0362

  Creating fixed part of basis set: Ionic, confined, hydrogenic.
 
  H                    hydrogenic:
 
  List of hydrogenic basis orbitals: 
    n    l      effective z      eigenvalue [eV]  inner max. [A]     outer max. [A]     outer radius [A]   
    2    0         2.100000       -14.9965           0.193243           1.317208           5.373006
    2    1         3.500000       -41.6672           0.602369           0.602369           4.056063
    1    0         0.850000        -9.8292           0.624871           0.624871           5.373006
    2    1         3.700000       -46.5653           0.573622           0.573622           3.910002
    2    0         1.200000        -4.5995           0.334980           2.228188           5.505995
    3    2         7.000000       -74.0753           0.680699           0.680699           3.769201
 
 
  C                    hydrogenic:
 
  List of hydrogenic basis orbitals: 
    n    l      effective z      eigenvalue [eV]  inner max. [A]     outer max. [A]     outer radius [A]   
    2    1         1.700000        -9.8152           1.245706           1.245706           5.401630
    3    2         6.000000       -54.4226           0.792453           0.792453           4.178599
    2    0         4.900000       -81.6681           0.082559           0.562749           3.353238
    4    3         9.800000       -81.6681           0.863254           0.863254           4.028125
    3    1         5.200000       -40.8774           0.305389           1.215618           4.898362
    3    0         4.300000       -27.9508           0.091041           1.610311           5.401630
    5    4        14.400000      -112.8510           0.917666           0.917666           3.883070
    3    2         6.200000       -58.1113           0.763917           0.763917           4.077671
 
 
  N                    hydrogenic:
 
  List of hydrogenic basis orbitals: 
    n    l      effective z      eigenvalue [eV]  inner max. [A]     outer max. [A]     outer radius [A]   
    2    1         1.800000       -11.0118           1.177451           1.177451           5.427479
    3    2         6.800000       -69.9029           0.704619           0.704619           3.854246
    3    0         5.800000       -50.8549           0.067388           1.191934           4.629968
    4    3        10.800000       -99.1854           0.786571           0.786571           3.761152
    3    1         5.800000       -50.8549           0.274880           1.094176           4.518138
    1    0         0.800000        -8.7059           0.662839           0.662839           5.361532
    5    4        16.000000      -139.3222           0.825990           0.825990           3.625711
    3    2         4.900000       -36.2967           0.968267           0.968267           4.862000
 
 
  O                    hydrogenic:
 
  List of hydrogenic basis orbitals: 
    n    l      effective z      eigenvalue [eV]  inner max. [A]     outer max. [A]     outer radius [A]   
    2    1         1.800000       -11.0118           1.178562           1.178562           5.432602
    3    2         7.600000       -87.3182           0.624125           0.624125           3.541477
    3    0         6.400000       -61.9209           0.061167           1.081902           4.306578
    4    3        11.600000      -114.4238           0.731631           0.731631           3.585037
    3    1         6.200000       -58.1113           0.255680           1.030270           4.306578
    3    2         5.600000       -47.4081           0.847233           0.847233           4.413171
    5    4        17.600000      -168.5799           0.749740           0.749740           3.372465
    1    0         0.750000        -7.6499           0.705284           0.705284           5.366593
 

  Adding cutoff potential to free-atom effective potential.
  Creating atomic-like basis functions for current effective potential.

  Species H                   :

  List of atomic basis orbitals and eigenvalues:
    n    l      energy [Ha]    energy [eV]    outer radius [A]
    1    0        -0.238382        -6.4867       5.373006


  Species C                   :

  List of atomic basis orbitals and eigenvalues:
    n    l      energy [Ha]    energy [eV]    outer radius [A]
    1    0       -10.041232      -273.2358       1.934409
    2    0        -0.504327       -13.7234       5.271162
    2    1        -0.193750        -5.2722       5.401630


  Species N                   :

  List of atomic basis orbitals and eigenvalues:
    n    l      energy [Ha]    energy [eV]    outer radius [A]
    1    0       -14.129007      -384.4699       1.637919
    2    0        -0.681802       -18.5528       5.168461
    2    1        -0.260543        -7.0897       5.361532


  Species O                   :

  List of atomic basis orbitals and eigenvalues:
    n    l      energy [Ha]    energy [eV]    outer radius [A]
    1    0       -18.898576      -514.2564       1.415765
    2    0        -0.878795       -23.9132       5.048385
    2    1        -0.332075        -9.0362       5.301386

  Assembling full basis from fixed parts.
  | Species H :   atomic orbital   1 s accepted.
  | Species H :    hydro orbital   2 s accepted.
  | Species H :    hydro orbital   1 s accepted.
  | Species H :    hydro orbital   2 s accepted.
  | Species H :    hydro orbital   2 p accepted.
  | Species H :    hydro orbital   2 p accepted.
  | Species H :    hydro orbital   3 d accepted.
  | Species C :   atomic orbital   1 s accepted.
  | Species C :    hydro orbital   2 s accepted.
  | Species C :   atomic orbital   2 s accepted.
  | Species C :    hydro orbital   3 s accepted.
  | Species C :    hydro orbital   3 p accepted.
  | Species C :   atomic orbital   2 p accepted.
  | Species C :    hydro orbital   2 p accepted.
  | Species C :    hydro orbital   3 d accepted.
  | Species C :    hydro orbital   3 d accepted.
  | Species C :    hydro orbital   4 f accepted.
  | Species C :    hydro orbital   5 g accepted.
  | Species N :   atomic orbital   1 s accepted.
  | Species N :    hydro orbital   3 s accepted.
  | Species N :   atomic orbital   2 s accepted.
  | Species N :    hydro orbital   1 s accepted.
  | Species N :    hydro orbital   3 p accepted.
  | Species N :   atomic orbital   2 p accepted.
  | Species N :    hydro orbital   2 p accepted.
  | Species N :    hydro orbital   3 d accepted.
  | Species N :    hydro orbital   3 d accepted.
  | Species N :    hydro orbital   4 f accepted.
  | Species N :    hydro orbital   5 g accepted.
  | Species O :   atomic orbital   1 s accepted.
  | Species O :    hydro orbital   3 s accepted.
  | Species O :   atomic orbital   2 s accepted.
  | Species O :    hydro orbital   1 s accepted.
  | Species O :    hydro orbital   3 p accepted.
  | Species O :   atomic orbital   2 p accepted.
  | Species O :    hydro orbital   2 p accepted.
  | Species O :    hydro orbital   3 d accepted.
  | Species O :    hydro orbital   3 d accepted.
  | Species O :    hydro orbital   4 f accepted.
  | Species O :    hydro orbital   5 g accepted.
 
  Basis size parameters after reduction:
  | Total number of radial functions:       40
  | Total number of basis functions :      840
 
  Testing on-site integration grid accuracy.
  |  Species  Function  <phi|h_atom|phi> (log., in eV)  <phi|h_atom|phi> (rad., in eV)
           1        1                 -6.4869821809                 -6.4870742227
           1        2                 13.5044133542                 13.5041049177
           1        3                 32.7854418792                 32.7779770519
           1        4                 33.7995553101                 33.7152624900 ***
           1        5                 28.8558651799                 28.8558652046
           1        6                 59.6361831893                 59.6362535845
           1        7                 60.2733718049                 60.2733715484
           2        8               -273.2358277112               -273.2358261765
           2        9                -10.7624923123                -10.7625144012
           2       10                 17.4634079027                 17.4634252127
           2       11                 53.0363661832                 53.0366180446
           2       12                 15.0981351967                 15.0981317714
           2       13                  3.8522181899                  3.8522770949
           2       14                 12.1181835661                 12.1206868578
           2       15                 29.4320778347                 29.4320780959
           2       16                 54.8753777694                 54.8752901936
           2       17                 59.3533975461                 59.3533974833
           2       18                 93.4537491195                 93.4537492066
           3       19               -384.4698526889               -384.4698499465
           3       20                 12.5691022037                 12.5690910168
           3       21                -15.7489097511                -15.7489165588
           3       22                 27.0978334940                 27.0985589490
           3       23                 18.5949116966                 18.5949125562
           3       24                  1.2212828291                  1.2212855301
           3       25                 13.4428926797                 13.4434051125
           3       26                 35.9380614500                 35.9380613666
           3       27                 39.9231532098                 39.9231654735
           3       28                 72.9957335806                 72.9957336833
           3       29                116.4231321147                116.4231321431
           4       30               -514.2564144315               -514.2564099626
           4       31                 15.1726678541                 15.1726530877
           4       32                -21.5447785304                -21.5447874973
           4       33                 14.4944558459                 14.4944698284
           4       34                 20.8882174564                 20.8882178906
           4       35                 -2.4850315908                 -2.4850322289
           4       36                 13.8600193195                 13.8599826966
           4       37                 45.8243383616                 45.8243383675
           4       38                 52.1840606465                 52.1840622440
           4       39                 85.4074185510                 85.4074185819
           4       40                142.0983717302                142.0983717339
 * Note: Onsite integrals marked "***" above are less accurate than
 * onsite_accuracy_threshold =    0.03000 eV. Usually, this is harmless.
 * When in doubt, tighten the "radial" and/or "radial_multiplier" flags to check.

  Preparing densities etc. for the partition functions (integrals / Hartree potential).

  Preparations completed.
  max(cpu_time)          :      0.240 s.
  Wall clock time (cpu1) :      0.238 s.
------------------------------------------------------------

------------------------------------------------------------
          Begin self-consistency loop: Initialization.

          Date     :  20170309, Time     :  190141.331
------------------------------------------------------------

  Initializing index lists of integration centers etc. from given atomic structure:
  | Number of centers in hartree potential         :        32
  | Number of centers in hartree multipole         :        32
  | Number of centers in electron density summation:        32
  | Number of centers in basis integrals           :        32
  | Number of centers in integrals                 :        32
  | Number of centers in hamiltonian               :        32
  Using modified Scalapack Eigenvalue solver (ELPA)
  * Using 32 tasks for Scalapack Eigenvalue solver.
  Detailed listing of tasks and assigned k-points:
  (for non-periodic systems, the "k-point" denotes an internal label only)
   Task     0 k-point     1 on eos399
   Task     1 k-point     1 on eos399
   Task     2 k-point     1 on eos399
   Task     3 k-point     1 on eos399
   Task     4 k-point     1 on eos399
   Task     5 k-point     1 on eos399
   Task     6 k-point     1 on eos399
   Task     7 k-point     1 on eos399
   Task     8 k-point     1 on eos399
   Task     9 k-point     1 on eos399
   Task    10 k-point     1 on eos399
   Task    11 k-point     1 on eos399
   Task    12 k-point     1 on eos399
   Task    13 k-point     1 on eos399
   Task    14 k-point     1 on eos399
   Task    15 k-point     1 on eos399
   Task    16 k-point     1 on eos399
   Task    17 k-point     1 on eos399
   Task    18 k-point     1 on eos399
   Task    19 k-point     1 on eos399
   Task    20 k-point     1 on eos399
   Task    21 k-point     1 on eos399
   Task    22 k-point     1 on eos399
   Task    23 k-point     1 on eos399
   Task    24 k-point     1 on eos399
   Task    25 k-point     1 on eos399
   Task    26 k-point     1 on eos399
   Task    27 k-point     1 on eos399
   Task    28 k-point     1 on eos399
   Task    29 k-point     1 on eos399
   Task    30 k-point     1 on eos399
   Task    31 k-point     1 on eos399
  Tasks:    32 split into      8 X      4 BLACS grid
  Calculating blocksize based on n_basis =          840 max_nprow =            8 max_npcol =            4
  Scalapack blocksize set to:           16
  Required Scalapack workspace - INTEGER:            1 REAL:             1
  Partitioning the integration grid into batches with parallel hashing+maxmin method.
  | Number of batches:     4852
  | Maximal batch size:     199
  | Minimal batch size:      50
  | Average batch size:     108.765
  | Standard deviation of batch sizes:      33.999

  Integration load balanced across    32 MPI tasks.
  Work distribution over tasks is as follows:
  Task     0 has      16496 integration points.
  Task     1 has      16591 integration points.
  Task     2 has      16451 integration points.
  Task     3 has      16598 integration points.
  Task     4 has      16501 integration points.
  Task     5 has      16406 integration points.
  Task     6 has      16505 integration points.
  Task     7 has      16414 integration points.
  Task     8 has      16526 integration points.
  Task     9 has      16521 integration points.
  Task    10 has      16411 integration points.
  Task    11 has      16535 integration points.
  Task    12 has      16463 integration points.
  Task    13 has      16416 integration points.
  Task    14 has      16497 integration points.
  Task    15 has      16509 integration points.
  Task    16 has      16467 integration points.
  Task    17 has      16504 integration points.
  Task    18 has      16530 integration points.
  Task    19 has      16413 integration points.
  Task    20 has      16407 integration points.
  Task    21 has      16456 integration points.
  Task    22 has      16454 integration points.
  Task    23 has      16594 integration points.
  Task    24 has      16530 integration points.
  Task    25 has      16496 integration points.
  Task    26 has      16500 integration points.
  Task    27 has      16455 integration points.
  Task    28 has      16526 integration points.
  Task    29 has      16459 integration points.
  Task    30 has      16594 integration points.
  Task    31 has      16503 integration points.
  Initializing partition tables, free-atom densities, potentials, etc. across the integration grid (initialize_grid_storage).
  | initialize_grid_storage: Actual outermost partition radius vs. multipole_radius_free
  | (-- VB: in principle, multipole_radius_free should be larger, hence this output)
  | Species        1: Confinement radius =              6.000000000000000 AA, multipole_radius_free =              6.071692442739658 AA.
  | Species        1: outer_partition_radius set to              6.071692442739658 AA .
  | Species        2: Confinement radius =              6.000000000000000 AA, multipole_radius_free =              6.029870734432609 AA.
  | Species        2: outer_partition_radius set to              6.029870734432609 AA .
  | Species        3: Confinement radius =              6.000000000000000 AA, multipole_radius_free =              6.058726835495003 AA.
  | Species        3: outer_partition_radius set to              6.058726835495003 AA .
  | Species        4: Confinement radius =              6.000000000000000 AA, multipole_radius_free =              6.064445521808699 AA.
  | Species        4: outer_partition_radius set to              6.064445521808699 AA .
  | Original list of interatomic distances with          32 x         32 entries is created.
  | Net number of integration points:   527728
  | of which are non-zero points    :   413583
  Obtaining max. number of non-zero basis functions in each batch (get_n_compute_maxes).
  | Maximal number of non-zero basis functions:      790 in task     0
  | Maximal number of non-zero basis functions:      795 in task     1
  | Maximal number of non-zero basis functions:      816 in task     2
  | Maximal number of non-zero basis functions:      797 in task     3
  | Maximal number of non-zero basis functions:      813 in task     4
  | Maximal number of non-zero basis functions:      813 in task     5
  | Maximal number of non-zero basis functions:      788 in task     6
  | Maximal number of non-zero basis functions:      809 in task     7
  | Maximal number of non-zero basis functions:      821 in task     8
  | Maximal number of non-zero basis functions:      778 in task     9
  | Maximal number of non-zero basis functions:      795 in task    10
  | Maximal number of non-zero basis functions:      785 in task    11
  | Maximal number of non-zero basis functions:      790 in task    12
  | Maximal number of non-zero basis functions:      779 in task    13
  | Maximal number of non-zero basis functions:      802 in task    14
  | Maximal number of non-zero basis functions:      790 in task    15
  | Maximal number of non-zero basis functions:      800 in task    16
  | Maximal number of non-zero basis functions:      805 in task    17
  | Maximal number of non-zero basis functions:      817 in task    18
  | Maximal number of non-zero basis functions:      793 in task    19
  | Maximal number of non-zero basis functions:      812 in task    20
  | Maximal number of non-zero basis functions:      804 in task    21
  | Maximal number of non-zero basis functions:      805 in task    22
  | Maximal number of non-zero basis functions:      802 in task    23
  | Maximal number of non-zero basis functions:      812 in task    24
  | Maximal number of non-zero basis functions:      797 in task    25
  | Maximal number of non-zero basis functions:      801 in task    26
  | Maximal number of non-zero basis functions:      782 in task    27
  | Maximal number of non-zero basis functions:      799 in task    28
  | Maximal number of non-zero basis functions:      808 in task    29
  | Maximal number of non-zero basis functions:      804 in task    30
  | Maximal number of non-zero basis functions:      796 in task    31
  Selecting the method for density update.
  Loop over occupied states selected for charge density update.
  Integrating Hamiltonian matrix: batch-based integration.
  Time summed over all CPUs for integration: real work       22.059 s, elapsed       23.031 s
  Integrating overlap matrix.
  Time summed over all CPUs for integration: real work       13.331 s, elapsed       13.860 s
  Deallocating overlap matrix.

  Updating Kohn-Sham eigenvalues, eigenvectors, occupation numbers, and Fermi level.
  Solving generalized eigenproblem
  Solving real symmetric generalised eigenvalue problem by standard ScaLAPACK.
  Transforming overlap matrix with ScaLAPACK and checking for singularities.
  : Overlap matrix is nonsingular, using Cholesky decomposition
  | Lowest eigenvalue:  0.927861E-04
  Factoring overlap matrix with Cholesky decomposition
  Using Cholesky factor for transformation
  Using 1-stage real ELPA solver
  Determining occupation numbers for Kohn-Sham eigenstates.
  | Chemical potential (Fermi level) in eV                 : -.95338427E+01
  | Error in electron count due to remaining E_F inaccuracy: 0.00000000E+00
  | Maximum occupation number of highest empty state:  0.00E+00

  Writing Kohn-Sham eigenvalues.

  State    Occupation    Eigenvalue [Ha]    Eigenvalue [eV]
      1       2.00000         -18.974516         -516.32286
      2       2.00000         -18.974338         -516.31800
      3       2.00000         -18.972752         -516.27484
      4       2.00000         -14.254795         -387.89270
      5       2.00000         -14.254079         -387.87323
      6       2.00000         -14.252094         -387.81921
      7       2.00000         -10.171451         -276.77927
      8       2.00000         -10.171158         -276.77129
      9       2.00000         -10.170790         -276.76128
     10       2.00000         -10.166552         -276.64596
     11       2.00000         -10.149016         -276.16877
     12       2.00000         -10.146865         -276.11025
     13       2.00000         -10.135204         -275.79293
     14       2.00000         -10.134223         -275.76625
     15       2.00000         -10.132903         -275.73033
     16       2.00000          -1.134082          -30.85994
     17       2.00000          -1.131225          -30.78221
     18       2.00000          -1.127447          -30.67940
     19       2.00000          -1.016146          -27.65074
     20       2.00000          -1.010651          -27.50122
     21       2.00000          -1.008822          -27.45145
     22       2.00000          -0.887172          -24.14117
     23       2.00000          -0.871482          -23.71423
     24       2.00000          -0.845685          -23.01225
     25       2.00000          -0.818588          -22.27491
     26       2.00000          -0.783091          -21.30898
     27       2.00000          -0.752399          -20.47383
     28       2.00000          -0.704896          -19.18121
     29       2.00000          -0.684502          -18.62625
     30       2.00000          -0.665315          -18.10413
     31       2.00000          -0.647050          -17.60713
     32       2.00000          -0.618698          -16.83563
     33       2.00000          -0.609460          -16.58424
     34       2.00000          -0.605371          -16.47298
     35       2.00000          -0.595659          -16.20871
     36       2.00000          -0.590303          -16.06296
     37       2.00000          -0.568875          -15.47987
     38       2.00000          -0.558747          -15.20427
     39       2.00000          -0.557009          -15.15700
     40       2.00000          -0.550539          -14.98093
     41       2.00000          -0.542326          -14.75743
     42       2.00000          -0.540284          -14.70188
     43       2.00000          -0.534653          -14.54866
     44       2.00000          -0.525324          -14.29480
     45       2.00000          -0.522921          -14.22940
     46       2.00000          -0.519620          -14.13957
     47       2.00000          -0.516817          -14.06331
     48       2.00000          -0.498529          -13.56567
     49       2.00000          -0.491862          -13.38423
     50       2.00000          -0.487016          -13.25239
     51       2.00000          -0.479708          -13.05353
     52       2.00000          -0.470896          -12.81374
     53       2.00000          -0.412637          -11.22842
     54       2.00000          -0.410026          -11.15737
     55       2.00000          -0.401806          -10.93370
     56       2.00000          -0.387587          -10.54677
     57       2.00000          -0.382494          -10.40818
     58       2.00000          -0.377181          -10.26360
     59       0.00000          -0.173617           -4.72435
     60       0.00000          -0.159025           -4.32730
     61       0.00000          -0.156352           -4.25457
     62       0.00000          -0.084047           -2.28703
     63       0.00000          -0.065626           -1.78578
     64       0.00000          -0.058351           -1.58780
     65       0.00000          -0.053773           -1.46323
     66       0.00000          -0.045406           -1.23557
     67       0.00000          -0.041308           -1.12404
     68       0.00000          -0.034825           -0.94765
     69       0.00000          -0.031933           -0.86893
     70       0.00000          -0.021622           -0.58836
     71       0.00000          -0.021051           -0.57282
     72       0.00000          -0.018842           -0.51271
     73       0.00000          -0.015156           -0.41241
     74       0.00000          -0.009728           -0.26472
     75       0.00000          -0.007336           -0.19962
     76       0.00000           0.002703            0.07356
     77       0.00000           0.005021            0.13662
     78       0.00000           0.009375            0.25511
     79       0.00000           0.017960            0.48872
     80       0.00000           0.020514            0.55822
     81       0.00000           0.025157            0.68455
     82       0.00000           0.028782            0.78319
     83       0.00000           0.037765            1.02763
     84       0.00000           0.040748            1.10880
     85       0.00000           0.043169            1.17470
     86       0.00000           0.049367            1.34335
     87       0.00000           0.054694            1.48830
     88       0.00000           0.059095            1.60807
     89       0.00000           0.065514            1.78273
     90       0.00000           0.068194            1.85565
     91       0.00000           0.071860            1.95540
     92       0.00000           0.079594            2.16587
     93       0.00000           0.084022            2.28637
     94       0.00000           0.092250            2.51025
     95       0.00000           0.096522            2.62651
     96       0.00000           0.103040            2.80385
     97       0.00000           0.110513            3.00721
     98       0.00000           0.115802            3.15112
     99       0.00000           0.120127            3.26881
    100       0.00000           0.123831            3.36961
    101       0.00000           0.128402            3.49399
    102       0.00000           0.129198            3.51567
    103       0.00000           0.135953            3.69948
    104       0.00000           0.138394            3.76589
    105       0.00000           0.147524            4.01433
    106       0.00000           0.149069            4.05637
    107       0.00000           0.159153            4.33077
    108       0.00000           0.160938            4.37934
    109       0.00000           0.169161            4.60311
    110       0.00000           0.171722            4.67280
    111       0.00000           0.175623            4.77894
    112       0.00000           0.177287            4.82422
    113       0.00000           0.186681            5.07986
    114       0.00000           0.189485            5.15614
    115       0.00000           0.193490            5.26514
    116       0.00000           0.196927            5.35867
    117       0.00000           0.203701            5.54297
    118       0.00000           0.207793            5.65434
    119       0.00000           0.212028            5.76957
    120       0.00000           0.219873            5.98305
    121       0.00000           0.224398            6.10618
    122       0.00000           0.228323            6.21299
    123       0.00000           0.233451            6.35252
    124       0.00000           0.238352            6.48588
    125       0.00000           0.242791            6.60668
    126       0.00000           0.249836            6.79840
    127       0.00000           0.255425            6.95046
    128       0.00000           0.262071            7.13131
    129       0.00000           0.270655            7.36489

  Highest occupied state (VBM) at    -10.26360454 eV
  | Occupation number:      2.00000000

  Lowest unoccupied state (CBM) at    -4.72434797 eV
  | Occupation number:      0.00000000

  Overall HOMO-LUMO gap:      5.53925657 eV.
  Calculating total energy contributions from superposition of free atom densities.

  Total energy components:
  | Sum of eigenvalues            :        -437.81127651 Ha      -11913.45098356 eV
  | XC energy correction          :         -98.81078902 Ha       -2688.77837273 eV
  | XC potential correction       :         127.00870904 Ha        3456.08281655 eV
  | Free-atom electrostatic energy:        -333.66539443 Ha       -9079.49734224 eV
  | Hartree energy correction     :           0.00000000 Ha           0.00000000 eV
  | MBD@rsSCS energy              :           0.00000000 Ha           0.00000000 eV
  | Entropy correction            :          -0.00000000 Ha          -0.00000000 eV
  | ---------------------------
  | Total energy                  :        -743.27875092 Ha      -20225.64388198 eV
  | Total energy, T -> 0          :        -743.27875092 Ha      -20225.64388198 eV  <-- do not rely on this value for anything but (periodic) metals
  | Electronic free energy        :        -743.27875092 Ha      -20225.64388198 eV

  Derived energy quantities:
  | Kinetic energy                :         735.13946792 Ha       20004.16272272 eV
  | Electrostatic energy          :       -1379.60742982 Ha      -37541.02823197 eV
  | Energy correction for multipole
  | error in Hartree potential    :           0.00000000 Ha           0.00000000 eV
  | Sum of eigenvalues per atom                           :        -372.29534324 eV
  | Total energy (T->0) per atom                          :        -632.05137131 eV  <-- do not rely on this value for anything but (periodic) metals
  | Electronic free energy per atom                       :        -632.05137131 eV
  Initialize hartree_potential_storage
  Max. number of atoms included in rho_multipole:           32

  End scf initialization - timings             :  max(cpu_time)    wall_clock(cpu1)
  | Time for scf. initialization               :        1.908 s           1.903 s
  | Boundary condition initialization          :        0.004 s           0.000 s
  | Integration                                :        1.180 s           1.175 s
  | Solution of K.-S. eqns.                    :        0.076 s           0.074 s
  | Grid partitioning                          :        0.292 s           0.284 s
  | Preloading free-atom quantities on grid    :        0.032 s           0.028 s
  | Free-atom superposition energy             :        0.044 s           0.042 s
  | Total energy evaluation                    :        0.000 s           0.001 s
------------------------------------------------------------

------------------------------------------------------------
          Begin self-consistency iteration #    1

  Date     :  20170309, Time     :  190143.234
------------------------------------------------------------
  Evaluating new KS density.
  Integration grid: deviation in total charge (<rho> - N_e) =   8.526513E-14
  Pulay mixing of updated and previous charge densities.

  Evaluating partitioned Hartree potential by multipole expansion.
  | Analytical far-field extrapolation by fixed multipoles:
  | Hartree multipole sum: apparent total charge =   0.191451E-04
  Summing up the Hartree potential.
  Time summed over all CPUs for potential: real work        9.593 s, elapsed        9.862 s
  | RMS charge density error from multipole expansion :   0.107338E-01

  Integrating Hamiltonian matrix: batch-based integration.
  Time summed over all CPUs for integration: real work       21.847 s, elapsed       22.826 s

  Updating Kohn-Sham eigenvalues, eigenvectors, occupation numbers, and Fermi level.
  Solving generalized eigenproblem
  Solving real symmetric generalised eigenvalue problem by standard ScaLAPACK.
  Using Cholesky factor for transformation
  Using 2-stage real ELPA solver
  K-Point:    1, Trafo times: 1-stage=     0.021 s, 2-stage=     0.019 s ==> Using 2-stage solver
  Determining occupation numbers for Kohn-Sham eigenstates.
  | Chemical potential (Fermi level) in eV                 : -.25425223E+01
  | Error in electron count due to remaining E_F inaccuracy: 0.00000000E+00
  | Maximum occupation number of highest empty state:  0.00E+00

  Writing Kohn-Sham eigenvalues.

  State    Occupation    Eigenvalue [Ha]    Eigenvalue [eV]
      1       2.00000         -18.628006         -506.89383
      2       2.00000         -18.615419         -506.55134
      3       2.00000         -18.599961         -506.13069
      4       2.00000         -14.004570         -381.08375
      5       2.00000         -13.979861         -380.41136
      6       2.00000         -13.977340         -380.34277
      7       2.00000         -10.059244         -273.72595
      8       2.00000         -10.054558         -273.59844
      9       2.00000         -10.043341         -273.29321
     10       2.00000          -9.969037         -271.27130
     11       2.00000          -9.965241         -271.16800
     12       2.00000          -9.883390         -268.94073
     13       2.00000          -9.842742         -267.83464
     14       2.00000          -9.840342         -267.76934
     15       2.00000          -9.835585         -267.63988
     16       2.00000          -0.971847          -26.44530
     17       2.00000          -0.957949          -26.06711
     18       2.00000          -0.945935          -25.74021
     19       2.00000          -0.875541          -23.82469
     20       2.00000          -0.856891          -23.31719
     21       2.00000          -0.850725          -23.14940
     22       2.00000          -0.744165          -20.24977
     23       2.00000          -0.717582          -19.52640
     24       2.00000          -0.688039          -18.72248
     25       2.00000          -0.667104          -18.15284
     26       2.00000          -0.639273          -17.39549
     27       2.00000          -0.614759          -16.72846
     28       2.00000          -0.579344          -15.76476
     29       2.00000          -0.550459          -14.97876
     30       2.00000          -0.539906          -14.69159
     31       2.00000          -0.522347          -14.21379
     32       2.00000          -0.479340          -13.04350
     33       2.00000          -0.470563          -12.80468
     34       2.00000          -0.459690          -12.50880
     35       2.00000          -0.448390          -12.20132
     36       2.00000          -0.437420          -11.90279
     37       2.00000          -0.424697          -11.55659
     38       2.00000          -0.418091          -11.37683
     39       2.00000          -0.406694          -11.06671
     40       2.00000          -0.396062          -10.77739
     41       2.00000          -0.390376          -10.62266
     42       2.00000          -0.387403          -10.54178
     43       2.00000          -0.384617          -10.46597
     44       2.00000          -0.379657          -10.33100
     45       2.00000          -0.376513          -10.24544
     46       2.00000          -0.363062           -9.87942
     47       2.00000          -0.358651           -9.75938
     48       2.00000          -0.355137           -9.66378
     49       2.00000          -0.348912           -9.49437
     50       2.00000          -0.341170           -9.28370
     51       2.00000          -0.337320           -9.17893
     52       2.00000          -0.328852           -8.94853
     53       2.00000          -0.250871           -6.82655
     54       2.00000          -0.234667           -6.38562
     55       2.00000          -0.226533           -6.16428
     56       2.00000          -0.212947           -5.79459
     57       2.00000          -0.211679           -5.76007
     58       2.00000          -0.197190           -5.36581
     59       0.00000          -0.061824           -1.68231
     60       0.00000          -0.048704           -1.32530
     61       0.00000          -0.041147           -1.11967
     62       0.00000          -0.032594           -0.88692
     63       0.00000          -0.020522           -0.55844
     64       0.00000          -0.011663           -0.31737
     65       0.00000          -0.009148           -0.24893
     66       0.00000           0.000333            0.00907
     67       0.00000           0.007632            0.20767
     68       0.00000           0.017020            0.46313
     69       0.00000           0.021128            0.57491
     70       0.00000           0.028106            0.76481
     71       0.00000           0.034878            0.94907
     72       0.00000           0.038703            1.05316
     73       0.00000           0.046223            1.25778
     74       0.00000           0.051805            1.40969
     75       0.00000           0.061068            1.66174
     76       0.00000           0.065591            1.78481
     77       0.00000           0.067414            1.83443
     78       0.00000           0.077648            2.11291
     79       0.00000           0.079289            2.15755
     80       0.00000           0.086213            2.34598
     81       0.00000           0.091069            2.47810
     82       0.00000           0.097892            2.66377
     83       0.00000           0.103852            2.82597
     84       0.00000           0.106592            2.90052
     85       0.00000           0.114563            3.11741
     86       0.00000           0.119844            3.26111
     87       0.00000           0.124984            3.40099
     88       0.00000           0.128257            3.49006
     89       0.00000           0.129600            3.52659
     90       0.00000           0.139734            3.80236
     91       0.00000           0.141735            3.85679
     92       0.00000           0.150448            4.09390
     93       0.00000           0.158489            4.31272
     94       0.00000           0.159168            4.33119
     95       0.00000           0.165516            4.50393
     96       0.00000           0.169983            4.62548
     97       0.00000           0.173181            4.71249
     98       0.00000           0.180659            4.91599
     99       0.00000           0.184586            5.02285
    100       0.00000           0.186451            5.07359
    101       0.00000           0.194602            5.29538
    102       0.00000           0.196656            5.35129
    103       0.00000           0.201894            5.49382
    104       0.00000           0.204641            5.56856
    105       0.00000           0.206273            5.61298
    106       0.00000           0.214271            5.83060
    107       0.00000           0.221732            6.03363
    108       0.00000           0.225356            6.13226
    109       0.00000           0.228722            6.22384
    110       0.00000           0.230108            6.26156
    111       0.00000           0.239076            6.50560
    112       0.00000           0.244232            6.64590
    113       0.00000           0.247201            6.72668
    114       0.00000           0.252472            6.87010
    115       0.00000           0.259517            7.06183
    116       0.00000           0.264167            7.18834
    117       0.00000           0.269788            7.34130
    118       0.00000           0.273101            7.43146
    119       0.00000           0.280372            7.62932
    120       0.00000           0.286425            7.79403
    121       0.00000           0.289092            7.86659
    122       0.00000           0.293823            7.99533
    123       0.00000           0.302513            8.23180
    124       0.00000           0.305949            8.32530
    125       0.00000           0.313081            8.51937
    126       0.00000           0.319144            8.68435
    127       0.00000           0.323939            8.81483
    128       0.00000           0.329313            8.96105
    129       0.00000           0.338279            9.20504

  Highest occupied state (VBM) at     -5.36580657 eV
  | Occupation number:      2.00000000

  Lowest unoccupied state (CBM) at    -1.68231388 eV
  | Occupation number:      0.00000000

  Overall HOMO-LUMO gap:      3.68349269 eV.

  Total energy components:
  | Sum of eigenvalues            :        -417.29401569 Ha      -11355.14791050 eV
  | XC energy correction          :        -100.74502183 Ha       -2741.41152556 eV
  | XC potential correction       :         129.51704462 Ha        3524.33810055 eV
  | Free-atom electrostatic energy:        -333.66539443 Ha       -9079.49734224 eV
  | Hartree energy correction     :         -20.52200314 Ha        -558.43211828 eV
  | MBD@rsSCS energy              :           0.00000000 Ha           0.00000000 eV
  | Entropy correction            :          -0.00000000 Ha          -0.00000000 eV
  | ---------------------------
  | Total energy                  :        -742.70939048 Ha      -20210.15079603 eV
  | Total energy, T -> 0          :        -742.70939048 Ha      -20210.15079603 eV  <-- do not rely on this value for anything but (periodic) metals
  | Electronic free energy        :        -742.70939048 Ha      -20210.15079603 eV

  Derived energy quantities:
  | Kinetic energy                :         744.02200524 Ha       20245.86886095 eV
  | Electrostatic energy          :       -1385.98637388 Ha      -37714.60813142 eV
  | Energy correction for multipole
  | error in Hartree potential    :          -0.04205859 Ha          -1.14447239 eV
  | Sum of eigenvalues per atom                           :        -354.84837220 eV
  | Total energy (T->0) per atom                          :        -631.56721238 eV  <-- do not rely on this value for anything but (periodic) metals
  | Electronic free energy per atom                       :        -631.56721238 eV

  Self-consistency convergence accuracy:
  | Change of charge density      :  0.9034E+00
  | Change of sum of eigenvalues  :  0.5583E+03 eV
  | Change of total energy        :  0.1549E+02 eV

  End self-consistency iteration #     1       :  max(cpu_time)    wall_clock(cpu1)
  | Time for this iteration                    :        1.576 s           1.574 s
[...]
   Multipole                     : -0.337234E+00  0.411286E+00  0.810846E-01
   Pulay + GGA                   : -0.984978E+01  0.859609E+01  0.139958E+01
   MBD@rsSCS                     : -0.143060E-01  0.420867E-03  0.200361E-01
   ----------------------------------------------------------------
   Total forces(  20)            : -0.972140E-02 -0.807365E-02  0.835154E-02
  atom #   21
   Hellmann-Feynman              :  0.256503E-02  0.479715E-01 -0.172507E-01
   Ionic forces                  :  0.000000E+00  0.000000E+00  0.000000E+00
   Multipole                     : -0.712246E-02  0.124771E-01 -0.136824E-01
   Pulay + GGA                   :  0.595376E-02 -0.646118E-01  0.159582E-01
   MBD@rsSCS                     :  0.935686E-02  0.242166E-02  0.353254E-02
   ----------------------------------------------------------------
   Total forces(  21)            :  0.107532E-01 -0.174149E-02 -0.114423E-01
  atom #   22
   Hellmann-Feynman              :  0.931117E-02  0.285418E-01  0.345715E-01
   Ionic forces                  :  0.000000E+00  0.000000E+00  0.000000E+00
   Multipole                     :  0.754511E-03  0.219615E-01 -0.617452E-02
   Pulay + GGA                   : -0.166513E-01 -0.533465E-01 -0.351367E-01
   MBD@rsSCS                     : -0.527100E-03  0.452276E-02  0.300768E-02
   ----------------------------------------------------------------
   Total forces(  22)            : -0.711270E-02  0.167949E-02 -0.373198E-02
  atom #   23
   Hellmann-Feynman              : -0.109262E+01  0.652093E+00  0.945596E-01
   Ionic forces                  :  0.000000E+00  0.000000E+00  0.000000E+00
   Multipole                     :  0.377311E+00 -0.215197E+00 -0.596685E-02
   Pulay + GGA                   :  0.745434E+00 -0.412693E+00 -0.745401E-01
   MBD@rsSCS                     :  0.170857E-01  0.524524E-02  0.131121E-01
   ----------------------------------------------------------------
   Total forces(  23)            :  0.472074E-01  0.294479E-01  0.271647E-01
  atom #   24
   Hellmann-Feynman              :  0.250501E-01 -0.369152E-01  0.251052E-01
   Ionic forces                  :  0.000000E+00  0.000000E+00  0.000000E+00
   Multipole                     : -0.208524E-01  0.994002E-02  0.238318E-01
   Pulay + GGA                   :  0.173348E-02  0.278456E-01 -0.514137E-01
   MBD@rsSCS                     :  0.135020E-01  0.325098E-02  0.355986E-02
   ----------------------------------------------------------------
   Total forces(  24)            :  0.194332E-01  0.412137E-02  0.108322E-02
  atom #   25
   Hellmann-Feynman              :  0.323380E-01 -0.341793E-01  0.676401E-02
   Ionic forces                  :  0.000000E+00  0.000000E+00  0.000000E+00
   Multipole                     : -0.473702E-02 -0.815864E-02 -0.225097E-01
   Pulay + GGA                   : -0.131713E-01  0.436192E-01  0.211451E-01
   MBD@rsSCS                     :  0.175189E-01  0.185885E-04  0.584702E-02
   ----------------------------------------------------------------
   Total forces(  25)            :  0.319487E-01  0.129985E-02  0.112463E-01
  atom #   26
   Hellmann-Feynman              :  0.639072E-01  0.156393E-02  0.395198E-02
   Ionic forces                  :  0.000000E+00  0.000000E+00  0.000000E+00
   Multipole                     : -0.176231E-01  0.315350E-01 -0.208785E-02
   Pulay + GGA                   : -0.488742E-01 -0.386486E-01 -0.487938E-02
   MBD@rsSCS                     :  0.953110E-02 -0.228168E-02  0.465557E-02
   ----------------------------------------------------------------
   Total forces(  26)            :  0.694109E-02 -0.783133E-02  0.164032E-02
  atom #   27
   Hellmann-Feynman              :  0.215111E+00 -0.969080E+00 -0.166465E+01
   Ionic forces                  :  0.000000E+00  0.000000E+00  0.000000E+00
   Multipole                     :  0.710333E-01 -0.176488E+00 -0.165375E-01
   Pulay + GGA                   : -0.286724E+00  0.115706E+01  0.166453E+01
   MBD@rsSCS                     : -0.185227E-01 -0.194203E-01  0.146961E-01
   ----------------------------------------------------------------
   Total forces(  27)            : -0.191022E-01 -0.792459E-02 -0.196065E-02
  atom #   28
   Hellmann-Feynman              : -0.136445E+01  0.192733E+01  0.929667E+00
   Ionic forces                  :  0.000000E+00  0.000000E+00  0.000000E+00
   Multipole                     :  0.952321E-01 -0.149893E+00 -0.358492E-01
   Pulay + GGA                   :  0.125216E+01 -0.179218E+01 -0.898522E+00
   MBD@rsSCS                     : -0.615612E-02 -0.203111E-01  0.885091E-02
   ----------------------------------------------------------------
   Total forces(  28)            : -0.232204E-01 -0.350534E-01  0.414666E-02
  atom #   29
   Hellmann-Feynman              : -0.375148E-01 -0.645634E-01  0.235692E-01
   Ionic forces                  :  0.000000E+00  0.000000E+00  0.000000E+00
   Multipole                     : -0.127813E-01  0.450202E-01 -0.687321E-02
   Pulay + GGA                   :  0.593803E-01  0.260478E-01 -0.183288E-01
   MBD@rsSCS                     : -0.669711E-02 -0.417899E-03  0.277448E-02
   ----------------------------------------------------------------
   Total forces(  29)            :  0.238707E-02  0.608678E-02  0.114171E-02
  atom #   30
   Hellmann-Feynman              : -0.148402E-02 -0.589936E-01 -0.839520E-02
   Ionic forces                  :  0.000000E+00  0.000000E+00  0.000000E+00
   Multipole                     : -0.370944E-01  0.140569E-01  0.101544E-01
   Pulay + GGA                   :  0.422917E-01  0.512862E-01 -0.417060E-02
   MBD@rsSCS                     :  0.386248E-03 -0.623993E-02 -0.183601E-03
   ----------------------------------------------------------------
   Total forces(  30)            :  0.409950E-02  0.109553E-03 -0.259501E-02
  atom #   31
   Hellmann-Feynman              :  0.475794E-01 -0.343151E-01 -0.843348E-02
   Ionic forces                  :  0.000000E+00  0.000000E+00  0.000000E+00
   Multipole                     : -0.116996E-01  0.167599E-01 -0.294756E-01
   Pulay + GGA                   : -0.391037E-01  0.126695E-01  0.314415E-01
   MBD@rsSCS                     : -0.259736E-02 -0.177303E-01 -0.669551E-04
   ----------------------------------------------------------------
   Total forces(  31)            : -0.582128E-02 -0.226159E-01 -0.653452E-02
  atom #   32
   Hellmann-Feynman              :  0.386031E-01 -0.294517E-01  0.114786E-01
   Ionic forces                  :  0.000000E+00  0.000000E+00  0.000000E+00
   Multipole                     :  0.529163E-02  0.192736E-02  0.274868E-01
   Pulay + GGA                   : -0.518453E-01  0.212682E-01 -0.391027E-01
   MBD@rsSCS                     : -0.346609E-02 -0.136162E-01  0.168566E-02
   ----------------------------------------------------------------
   Total forces(  32)            : -0.114167E-01 -0.198724E-01  0.154834E-02

  Removing unitary transformations (pure translations, rotations) from forces on atoms.
  Atomic forces before filtering:
  | Net force on center of mass :  -0.436989E-03 -0.714824E-03 -0.219328E-03 eV/A
  | Net torque on center of mass:  -0.116903E-02 -0.279662E-03 -0.279325E-02 eV
  Atomic forces after filtering:
  | Net force on center of mass :   0.167256E-16  0.557519E-17  0.153318E-16 eV/A
  | Net torque on center of mass:   0.590053E-16 -0.129996E-15 -0.472042E-16 eV

  Energy and forces in a compact form:
  | Total energy uncorrected      :         -0.202087902768676E+05 eV
  | Total energy corrected        :         -0.202087902768676E+05 eV  <-- do not rely on this value for anything but (periodic) metals
  | Electronic free energy        :         -0.202087902768676E+05 eV
  Total atomic forces (unitary forces cleaned) [eV/Ang]:
  |   1         -0.165708487418408E-01          0.125505392118338E-02          0.116547936086827E-01
  |   2         -0.110834647694286E-01          0.168298719178582E-02          0.109386456051261E-02
  |   3         -0.373999859172122E-02         -0.977923722043760E-02         -0.662849472443711E-02
  |   4          0.292816421664310E-02          0.305777472623269E-02          0.318850718340574E-02
  |   5         -0.229787017994574E-01          0.983956154557298E-02          0.220438510262988E-02
  |   6         -0.130835739823762E-01          0.716187471696211E-02          0.107369721770703E-01
  |   7         -0.681811040997282E-02         -0.507865726510162E-03         -0.157008805504108E-01
  |   8          0.178249208265166E-01         -0.732920942436009E-02         -0.104590338692699E-01
  |   9          0.455471629446348E-02          0.436560385873706E-02         -0.631210372689330E-02
  |  10         -0.482315986700249E-02         -0.157226691035324E-01         -0.118005706750764E-01
  |  11         -0.206443990865161E-01         -0.730910366198256E-03         -0.708120766530364E-02
  |  12          0.985042313038338E-02         -0.273879529008842E-02         -0.206858999083352E-02
  |  13          0.316899789109346E-02          0.131824999806774E-01         -0.354937941951079E-02
  |  14          0.648395609002106E-02         -0.146068464204547E-02         -0.601718307123099E-02
  |  15          0.224035503926199E-01          0.300325393463133E-02         -0.150789627991124E-01
  |  16          0.133618371427967E-01          0.545319425146179E-03         -0.696190435907402E-02
  |  17         -0.656254082087961E-03          0.119380830092012E-01          0.549717305841837E-02
  |  18          0.421614649467543E-03          0.273106469126324E-01          0.814449506726282E-03
  |  19         -0.269707044832799E-01          0.149585133763222E-01          0.262419835657993E-01
  |  20         -0.969133245267181E-02         -0.800728767093039E-02          0.836136840483591E-02
  |  21          0.108027181137722E-01         -0.172416323872777E-02         -0.114501294234958E-01
  |  22         -0.706900429884865E-02          0.170467701913451E-02         -0.373593878002308E-02
  |  23          0.472191262423177E-01          0.294460328740092E-01          0.271672519903756E-01
  |  24          0.194403105061601E-01          0.412649397480708E-02          0.108895746953134E-02
  |  25          0.319431206144285E-01          0.128975139363608E-02          0.112536997727443E-01
  |  26          0.696547973424529E-02         -0.784924651073570E-02          0.163467098173631E-02
  |  27         -0.191112975524927E-01         -0.787171324643806E-02         -0.193877016554814E-02
  |  28         -0.232518719890297E-01         -0.350185172341553E-01          0.417330239565055E-02
  |  29          0.237512092737550E-02          0.615910205309810E-02          0.116875163589961E-02
  |  30          0.405149494707854E-02          0.156008205642326E-03         -0.255967719853579E-02
  |  31         -0.585378259227653E-02         -0.225964489061211E-01         -0.651072581721255E-02
  |  32         -0.114490470203803E-01         -0.198464895391313E-01          0.157342082194957E-02

  ------------------------------------ 
  Start decomposition of the XC Energy 
  ------------------------------------ 
  Hartree-Fock part   :          0.000000000 Ha              0.000000000 eV
  ------------------------------------ 
  X Energy            :        -96.979680720 Ha          -2638.951380754 eV
  C Energy GGA        :         -3.867569598 Ha           -105.241923418 eV
  Total XC Energy     :       -100.847250318 Ha          -2744.193304172 eV
  LDA X and C from self-consistent density 
  X Energy LDA        :        -87.994872232 Ha          -2394.462302345 eV
  C Energy LDA        :         -7.531646378 Ha           -204.946525497 eV
  ------------------------------------ 
  End decomposition of the XC Energy 
  ------------------------------------ 
   
  ESP charge fitting starts.
  | Calculation :  00000001  of  00000001
  | Full density
  Computing multipole expansion for total density.
  Generating points for esp charges.
  Partitioning the integration grid into batches with parallel hashing+maxmin method.
  | Number of batches:     3895
  | Maximal batch size:     200
  | Minimal batch size:      51
  | Average batch size:     125.033
  | Standard deviation of batch sizes:      17.513

  Integration load balanced across    32 MPI tasks.
  Work distribution over tasks is as follows:
  Initializing partition tables, free-atom densities, potentials, etc. across the integration grid (initialize_grid_storage).
  | Original list of interatomic distances with          32 x         32 entries is created.
  | Net number of integration points:   487004
  | of which are non-zero points    :   487004
  Summing up potential from multipole expanded  density.
  Summing up the Hartree potential.
  Time summed over all CPUs for potential: real work        6.398 s, elapsed        6.637 s
  Fitting esp charges to potential.
  |
  | ESP charges fitted to the electrostatic potential :
  |
  | Atom         1: C, ESP charge:      0.58003782
  |
  | Atom         2: C, ESP charge:     -0.77267214
  |
  | Atom         3: O, ESP charge:      0.57275008
  |
  | Atom         4: H, ESP charge:     -0.15860317
  |
  | Atom         5: H, ESP charge:     -0.19164677
  |
  | Atom         6: H, ESP charge:     -0.14046438
  |
  | Atom         7: N, ESP charge:      0.69858459
  |
  | Atom         8: C, ESP charge:     -0.30491063
  |
  | Atom         9: C, ESP charge:     -0.89356374
  |
  | Atom        10: O, ESP charge:      0.64455487
  |
  | Atom        11: H, ESP charge:     -0.32748911
  |
  | Atom        12: H, ESP charge:     -0.01032182
  |
  | Atom        13: C, ESP charge:      0.51746531
  |
  | Atom        14: H, ESP charge:     -0.11083936
  |
  | Atom        15: H, ESP charge:     -0.15045733
  |
  | Atom        16: H, ESP charge:     -0.15781237
  |
  | Atom        17: N, ESP charge:      0.78843990
  |
  | Atom        18: C, ESP charge:     -0.43651079
  |
  | Atom        19: C, ESP charge:     -0.17543907
  |
  | Atom        20: O, ESP charge:      0.51214773
  |
  | Atom        21: H, ESP charge:     -0.30992282
  |
  | Atom        22: H, ESP charge:     -0.10346290
  |
  | Atom        23: C, ESP charge:      0.73955782
  |
  | Atom        24: H, ESP charge:     -0.19812047
  |
  | Atom        25: H, ESP charge:     -0.23003008
  |
  | Atom        26: H, ESP charge:     -0.18582681
  |
  | Atom        27: N, ESP charge:      0.11957382
  |
  | Atom        28: C, ESP charge:      0.62027497
  |
  | Atom        29: H, ESP charge:     -0.28809342
  |
  | Atom        30: H, ESP charge:     -0.21251216
  |
  | Atom        31: H, ESP charge:     -0.25836513
  |
  | Atom        32: H, ESP charge:     -0.17632245

  RRMS:       0.00340270

  Done.

------------------------------------------------------------------------------
  Final output of selected total energy values:

  The following output summarizes some interesting total energy values
  at the end of a run (AFTER all relaxation, molecular dynamics, etc.).

  | Total energy of the DFT / Hartree-Fock s.c.f. calculation      :         -20208.790276868 eV
  | Final zero-broadening corrected energy (caution - metals only) :         -20208.790276868 eV
  | For reference only, the value of 1 Hartree used in FHI-aims is :             27.211384500 eV

  Before relying on these values, please be sure to understand exactly which
  total energy value is referred to by a given number. Different objects may
  all carry the same name 'total energy'. Definitions:

  Total energy of the DFT / Hartree-Fock s.c.f. calculation:
  | Note that this energy does not include ANY quantities calculated after the
  | s.c.f. cycle, in particular not ANY RPA, MP2, etc. many-body perturbation terms.

  Final zero-broadening corrected energy:
  | For metallic systems only, a broadening of the occupation numbers at the Fermi
  | level can be extrapolated back to zero broadening by an electron-gas inspired
  | formula. For all systems that are not real metals, this value can be
  | meaningless and should be avoided.

------------------------------------------------------------------------------
  Methods described in the following list of references were used in this FHI-aims run.
  If you publish the results, please make sure to cite these reference if they apply.
  FHI-aims is an academic code, and for our developers (often, Ph.D. students
  and postdocs), scientific credit in the community is essential.
  Thank you for helping us!

  For any use of FHI-aims, please cite:

    Volker Blum, Ralf Gehrke, Felix Hanke, Paula Havu, Ville Havu,
    Xinguo Ren, Karsten Reuter, and Matthias Scheffler
    'Ab initio molecular simulations with numeric atom-centered orbitals'
    Computer Physics Communications 180, 2175-2196 (2009)
    http://dx.doi.org/10.1016/j.cpc.2009.06.022


  The scalable eigensolver library ELPA was used in your run.
  ELPA is essential especially for large systems on hundreds or thousands of CPUs.
  For ELPA, please cite:

    Andreas Marek, Volker Blum, Rainer Johanni, Ville Havu, Bruno Lang,
    Thomas Auckenthaler, Alexander Heinecke, Hans-Joachim Bungartz, and Hermann Lederer,
    'The ELPA Library - Scalable Parallel Eigenvalue Solutions
    for Electronic Structure Theory and Computational Science'
    The Journal of Physics: Condensed Matter 26, 213201 (2014).
    http://dx.doi.org/10.1088/0953-8984/26/21/213201


  For ELPA's efficient two-stage tridiagonalization used in your run, please cite:

    T. Auckenthaler, V. Blum, H.-J. Bungartz, T. Huckle, R. Johanni, L. Kraemer,
    B. Lang, H. Lederer, and P. R. Willems,
    'Parallel solution of partial symmetric eigenvalue problems'
    'from  electronic structure calculations'
    Parallel Computing 37, 783-794 (2011).
    http://dx.doi.org/10.1016/j.parco.2011.05.002


  For the real-space grid partitioning and parallelization used in this calculation, please cite:

    Ville Havu, Volker Blum, Paula Havu, and Matthias Scheffler,
    'Efficient O(N) integration for all-electron electronic structure calculation'
    'using numerically tabulated basis functions'
    Journal of Computational Physics 228, 8367-8379 (2009).
    http://dx.doi.org/10.1016/j.jcp.2009.08.008

  Of course, there are many other important community references, e.g., those cited in the
  above references. Our list is limited to references that describe implementations in the
  FHI-aims code. The reason is purely practical (length of this list) - please credit others as well.

------------------------------------------------------------
          Leaving FHI-aims.
          Date     :  20170309, Time     :  190214.190

          Computational steps:
          | Number of self-consistency cycles          :           14

          Detailed time accounting                     :  max(cpu_time)    wall_clock(cpu1)
          | Total time                                 :       33.730 s          33.900 s
          | Preparation time                           :        0.240 s           0.238 s
          | Grid partitioning                          :        0.292 s           0.284 s
          | Preloading free-atom quantities on grid    :        0.032 s           0.028 s
          | Free-atom superposition energy             :        0.044 s           0.042 s
          | Total time for integrations                :       11.337 s          11.320 s
          | Total time for solution of K.-S. equations :        0.528 s           0.494 s
          | Total time for density & force components  :        9.865 s           9.853 s
          | Total time for mixing                      :        0.128 s           0.104 s
          | Total time for Hartree multipole update    :        0.060 s           0.059 s
          | Total time for Hartree multipole sum       :        6.360 s           6.331 s
          | Total time for total energy evaluation     :        0.020 s           0.019 s

          Have a nice day.
------------------------------------------------------------
