  MPI-parallelism will be employed.
------------------------------------------------------------
          Invoking FHI-aims ...
          Version 150427
          Git rev.: 9dd23e0 BL: Update Version stamp
          Compiled on 2015/11/03 at 22:05:20 on host eos03.

          When using FHI-aims, please cite the following reference:

          Volker Blum, Ralf Gehrke, Felix Hanke, Paula Havu,
          Ville Havu, Xinguo Ren, Karsten Reuter, and Matthias Scheffler,
          'Ab Initio Molecular Simulations with Numeric Atom-Centered Orbitals: FHI-aims',
          Computer Physics Communications 180, 2175-2196 (2009)

          For any questions about FHI-aims, please visit the aimsclub website
          with its forums and wiki. Contributions to both the forums and the
          wiki are warmly encouraged - they are for you, and everyone is welcome there.

------------------------------------------------------------

  Date     :  20170309, Time     :  182925.500
  Time zero on CPU 1             :   0.256015000000000E+00  s.
  Internal wall clock time zero  :           258316165.500  s.

  Using       32 parallel tasks.
  Task        0 on host eos195 reporting.
  Task        1 on host eos195 reporting.
  Task        2 on host eos195 reporting.
  Task        3 on host eos195 reporting.
  Task        4 on host eos195 reporting.
  Task        5 on host eos195 reporting.
  Task        6 on host eos195 reporting.
  Task        7 on host eos195 reporting.
  Task        8 on host eos195 reporting.
  Task        9 on host eos195 reporting.
  Task       10 on host eos195 reporting.
  Task       11 on host eos195 reporting.
  Task       12 on host eos195 reporting.
  Task       13 on host eos195 reporting.
  Task       14 on host eos195 reporting.
  Task       15 on host eos195 reporting.
  Task       16 on host eos195 reporting.
  Task       17 on host eos195 reporting.
  Task       18 on host eos195 reporting.
  Task       19 on host eos195 reporting.
  Task       20 on host eos195 reporting.
  Task       21 on host eos195 reporting.
  Task       22 on host eos195 reporting.
  Task       23 on host eos195 reporting.
  Task       24 on host eos195 reporting.
  Task       25 on host eos195 reporting.
  Task       26 on host eos195 reporting.
  Task       27 on host eos195 reporting.
  Task       28 on host eos195 reporting.
  Task       29 on host eos195 reporting.
  Task       30 on host eos195 reporting.
  Task       31 on host eos195 reporting.

  Performing system and environment tests:
  | Environment variable OMP_NUM_THREADS correctly set to 1.
  | Stacksize not measured: no C compiler
  | Checking for scalapack...
  | Testing pdtran()...
  | All pdtran() tests passed.

  Obtaining array dimensions for all initial allocations:
  
  -----------------------------------------------------------------------
  Parsing control.in (first pass over file, find array dimensions only).
  The contents of control.in will be repeated verbatim below
  unless switched off by setting 'verbatim_writeout .false.' .
  in the first line of control.in .
  -----------------------------------------------------------------------
  
  #########################################################################################
  #
  # Input for System
  #
  #########################################################################################
  #
  #
  #  Physical model
  #
    xc                 pbe
    many_body_dispersion
    spin               none
    charge             0.
  #
  #  SCF convergence
  #
    occupation_type    gaussian 0.05
    mixer              pulay
      n_max_pulay        10
      charge_mix_param   0.5
    sc_accuracy_rho    1E-4
    sc_accuracy_eev    1E-2
    sc_accuracy_etot   1E-5
    sc_accuracy_forces 1E-4
    sc_iter_limit      1000
  #
  #  ESP charge
  #
    output esp
    esp equal_grid_n 80 80 80
  #
  #
  ################################################################################
  #
  #  FHI-aims code project
  # Volker Blum, Fritz Haber Institute Berlin, 2009
  #
  #  Suggested "tight" defaults for H atom (to be pasted into control.in file)
  #
  ################################################################################
    species        H
  #     global species definitions
      nucleus             1
      mass                1.00794
  #
      l_hartree           6
  #
      cut_pot             4.0  2.0  1.0
      basis_dep_cutoff    1e-4
  #
      radial_base         24 7.0
      radial_multiplier   2
      angular_grids       specified
        division   0.1930   50
        division   0.3175  110
        division   0.4293  194
        division   0.5066  302
        division   0.5626  434
  #      division   0.5922  590
  #      division   0.6227  974
  #      division   0.6868 1202
  #      outer_grid  770
        outer_grid  434
  ################################################################################
  #
  #  Definition of "minimal" basis
  #
  ################################################################################
  #     valence basis states
      valence      1  s   1.
  #     ion occupancy
      ion_occ      1  s   0.5
  ################################################################################
  #
  #  Suggested additional basis functions. For production calculations,
  #  uncomment them one after another (the most important basis functions are
  #  listed first).
  #
  #  Basis constructed for dimers: 0.5 A, 0.7 A, 1.0 A, 1.5 A, 2.5 A
  #
  ################################################################################
  #  "First tier" - improvements: -1014.90 meV to -62.69 meV
       hydro 2 s 2.1
       hydro 2 p 3.5
  #  "Second tier" - improvements: -12.89 meV to -1.83 meV
       hydro 1 s 0.85
       hydro 2 p 3.7
       hydro 2 s 1.2
       hydro 3 d 7
  #  "Third tier" - improvements: -0.25 meV to -0.12 meV
  #     hydro 4 f 11.2
  #     hydro 3 p 4.8
  #     hydro 4 d 9
  #     hydro 3 s 3.2
  ################################################################################
  #
  # For methods that use the localized form of the "resolution of identity" for
  # the two-electron Coulomb operator (RI_method LVL), particularly Hartree-Fock and
  # hybrid density functional calculations, the highest accuracy can be obtained by
  # uncommenting the line beginning with "for_aux"  below, thus adding an extra g radial
  # function to the construction of the product basis set for the expansion.
  # See Ref. New J. Phys. 17, 093020 (2015) for more information, particularly Figs. 1 and 6.
  #
  ################################################################################
  #
  # for_aux hydro 5 g 6.0
  ################################################################################
  #
  #  FHI-aims code project
  # Volker Blum, Fritz Haber Institute Berlin, 2009
  #
  #  Suggested "tight" defaults for C atom (to be pasted into control.in file)
  #
  ################################################################################
    species        C
  #     global species definitions
      nucleus             6
      mass                12.0107
  #
      l_hartree           6
  #
      cut_pot             4.0  2.0  1.0
      basis_dep_cutoff    1e-4
  #
      radial_base         34 7.0
      radial_multiplier   2
      angular_grids specified
        division   0.2187   50
        division   0.4416  110
        division   0.6335  194
        division   0.7727  302
        division   0.8772  434
  #      division   0.9334  590
  #      division   0.9924  770
  #      division   1.0230  974
  #      division   1.5020 1202
  #     outer_grid  974
        outer_grid  434
  ################################################################################
  #
  #  Definition of "minimal" basis
  #
  ################################################################################
  #     valence basis states
      valence      2  s   2.
      valence      2  p   2.
  #     ion occupancy
      ion_occ      2  s   1.
      ion_occ      2  p   1.
  ################################################################################
  #
  #  Suggested additional basis functions. For production calculations,
  #  uncomment them one after another (the most important basis functions are
  #  listed first).
  #
  #  Constructed for dimers: 1.0 A, 1.25 A, 1.5 A, 2.0 A, 3.0 A
  #
  ################################################################################
  #  "First tier" - improvements: -1214.57 meV to -155.61 meV
       hydro 2 p 1.7
       hydro 3 d 6
       hydro 2 s 4.9
  #  "Second tier" - improvements: -67.75 meV to -5.23 meV
       hydro 4 f 9.8
       hydro 3 p 5.2
       hydro 3 s 4.3
       hydro 5 g 14.4
       hydro 3 d 6.2
  #  "Third tier" - improvements: -2.43 meV to -0.60 meV
  #     hydro 2 p 5.6
  #     hydro 2 s 1.4
  #     hydro 3 d 4.9
  #     hydro 4 f 11.2
  #  "Fourth tier" - improvements: -0.39 meV to -0.18 meV
  #     hydro 2 p 2.1
  #     hydro 5 g 16.4
  #     hydro 4 d 13.2
  #     hydro 3 s 13.6
  #     hydro 4 f 17.6
  #  Further basis functions - improvements: -0.08 meV and below
  #     hydro 3 s 2
  #     hydro 3 p 6
  #     hydro 4 d 20
  ################################################################################
  #
  # For methods that use the localized form of the "resolution of identity" for
  # the two-electron Coulomb operator (RI_method LVL), particularly Hartree-Fock and
  # hybrid density functional calculations, the highest accuracy can be obtained by
  # uncommenting the line beginning with "for_aux"  below, thus adding an extra g radial
  # function to the construction of the product basis set for the expansion.
  # See Ref. New J. Phys. 17, 093020 (2015) for more information, particularly Figs. 1 and 6.
  #
  ################################################################################
  #
  # for_aux hydro 5 g 6.0
  ################################################################################
  #
  #  FHI-aims code project
  # Volker Blum, Fritz Haber Institute Berlin, 2009
  #
  #  Suggested "tight" defaults for N atom (to be pasted into control.in file)
  #
  ################################################################################
    species        N
  #     global species definitions
      nucleus             7
      mass                14.0067
  #
      l_hartree           6
  #
      cut_pot             4.0  2.0  1.0
      basis_dep_cutoff    1e-4
  #
      radial_base         35 7.0
      radial_multiplier   2
      angular_grids       specified
        division   0.1841   50
        division   0.3514  110
        division   0.5126  194
        division   0.6292  302
        division   0.6939  434
  #      division   0.7396  590
  #      division   0.7632  770
  #      division   0.8122  974
  #      division   1.1604 1202
  #      outer_grid  974
        outer_grid  434
  ################################################################################
  #
  #  Definition of "minimal" basis
  #
  ################################################################################
  #     valence basis states
      valence      2  s   2.
      valence      2  p   3.
  #     ion occupancy
      ion_occ      2  s   1.
      ion_occ      2  p   2.
  ################################################################################
  #
  #  Suggested additional basis functions. For production calculations,
  #  uncomment them one after another (the most important basis functions are
  #  listed first).
  #
  #  Constructed for dimers: 1.0 A, 1.1 A, 1.5 A, 2.0 A, 3.0 A
  #
  ################################################################################
  #  "First tier" - improvements: -1193.42 meV to -220.60 meV
       hydro 2 p 1.8
       hydro 3 d 6.8
       hydro 3 s 5.8
  #  "Second tier" - improvements: -80.21 meV to -6.86 meV
       hydro 4 f 10.8
       hydro 3 p 5.8
       hydro 1 s 0.8
       hydro 5 g 16
       hydro 3 d 4.9
  #  "Third tier" - improvements: -4.29 meV to -0.53 meV
  #     hydro 3 s 16
  #     ionic 2 p auto
  #     hydro 3 d 6.6
  #     hydro 4 f 11.6
  #  "Fourth tier" - improvements: -0.75 meV to -0.25 meV
  #     hydro 2 p 4.5
  #     hydro 2 s 2.4
  #     hydro 5 g 14.4
  #     hydro 4 d 14.4
  #     hydro 4 f 16.8
  # Further basis functions - -0.21 meV and below
  #     hydro 3 p 14.8
  #     hydro 3 s 4.4
  #     hydro 3 d 19.6
  #     hydro 5 g 12.8
  ################################################################################
  #
  # For methods that use the localized form of the "resolution of identity" for
  # the two-electron Coulomb operator (RI_method LVL), particularly Hartree-Fock and
  # hybrid density functional calculations, the highest accuracy can be obtained by
  # uncommenting the line beginning with "for_aux"  below, thus adding an extra g radial
  # function to the construction of the product basis set for the expansion.
  # See Ref. New J. Phys. 17, 093020 (2015) for more information, particularly Figs. 1 and 6.
  #
  ################################################################################
  #
  # for_aux hydro 5 g 6.0
  ################################################################################
  #
  #  FHI-aims code project
  # Volker Blum, Fritz Haber Institute Berlin, 2009
  #
  #  Suggested "tight" defaults for O atom (to be pasted into control.in file)
  #
  ################################################################################
    species        O
  #     global species definitions
      nucleus             8
      mass                15.9994
  #
      l_hartree           6
  #
      cut_pot             4.0  2.0  1.0
      basis_dep_cutoff    1e-4
  #
      radial_base         36 7.0
      radial_multiplier   2
       angular_grids specified
        division   0.1817   50
        division   0.3417  110
        division   0.4949  194
        division   0.6251  302
        division   0.8014  434
  #      division   0.8507  590
  #      division   0.8762  770
  #      division   0.9023  974
  #      division   1.2339 1202
  #      outer_grid 974
        outer_grid  434
  ################################################################################
  #
  #  Definition of "minimal" basis
  #
  ################################################################################
  #     valence basis states
      valence      2  s   2.
      valence      2  p   4.
  #     ion occupancy
      ion_occ      2  s   1.
      ion_occ      2  p   3.
  ################################################################################
  #
  #  Suggested additional basis functions. For production calculations,
  #  uncomment them one after another (the most important basis functions are
  #  listed first).
  #
  #  Constructed for dimers: 1.0 A, 1.208 A, 1.5 A, 2.0 A, 3.0 A
  #
  ################################################################################
  #  "First tier" - improvements: -699.05 meV to -159.38 meV
       hydro 2 p 1.8
       hydro 3 d 7.6
       hydro 3 s 6.4
  #  "Second tier" - improvements: -49.91 meV to -5.39 meV
       hydro 4 f 11.6
       hydro 3 p 6.2
       hydro 3 d 5.6
       hydro 5 g 17.6
       hydro 1 s 0.75
  #  "Third tier" - improvements: -2.83 meV to -0.50 meV
  #     ionic 2 p auto
  #     hydro 4 f 10.8
  #     hydro 4 d 4.7
  #     hydro 2 s 6.8
  #  "Fourth tier" - improvements: -0.40 meV to -0.12 meV
  #     hydro 3 p 5
  #     hydro 3 s 3.3
  #     hydro 5 g 15.6
  #     hydro 4 f 17.6
  #     hydro 4 d 14
  # Further basis functions - -0.08 meV and below
  #     hydro 3 s 2.1
  #     hydro 4 d 11.6
  #     hydro 3 p 16
  #     hydro 2 s 17.2
  ################################################################################
  #
  # For methods that use the localized form of the "resolution of identity" for
  # the two-electron Coulomb operator (RI_method LVL), particularly Hartree-Fock and
  # hybrid density functional calculations, the highest accuracy can be obtained by
  # uncommenting the line beginning with "for_aux"  below, thus adding an extra g radial
  # function to the construction of the product basis set for the expansion.
  # See Ref. New J. Phys. 17, 093020 (2015) for more information, particularly Figs. 1 and 6.
  #
  ################################################################################
  #
  # for_aux hydro 5 g 6.0
  
  -----------------------------------------------------------------------
  Completed first pass over input file control.in .
  -----------------------------------------------------------------------
  
  
  -----------------------------------------------------------------------
  Parsing geometry.in (first pass over file, find array dimensions only).
  The contents of geometry.in will be repeated verbatim below
  unless switched off by setting 'verbatim_writeout .false.' .
  in the first line of geometry.in .
  -----------------------------------------------------------------------
  
  #
  # This is the geometry file that corresponds to the current relaxation step.
  # If you do not want this file to be written, set the "write_restart_geometry" flag to .false.
  #
  atom       0.22401197     -1.04577616      1.52210084 C
  atom      -0.53961522     -1.02725087      2.83379398 C
  atom      -0.17234431     -1.69060083      3.79994578 O
  atom       0.85796817     -1.93668288      1.52035906 H
  atom       0.87275834     -0.16118357      1.45450430 H
  atom      -0.42376192     -1.05769169      0.63696734 H
  atom      -1.64183316     -0.20888303      2.93779499 N
  atom      -2.33831419      0.55424377      1.90572845 C
  atom      -2.87686204     -0.38258087      0.78825049 C
  atom      -3.43205031     -1.44257409      1.06812713 O
  atom      -2.13139864     -0.34552534      3.81607719 H
  atom      -3.25826595      0.90715502      2.39684238 H
  atom      -1.56676622      1.79861838      1.44582752 C
  atom      -2.20104729      2.45453443      0.83409369 H
  atom      -0.66792483      1.55094380      0.86678835 H
  atom      -1.24698911      2.37135810      2.32464997 H
  atom      -2.72918223      0.05909008     -0.48902221 N
  atom      -3.13108691     -0.74059130     -1.62923512 C
  atom      -2.20713823     -0.33490514     -2.79110852 C
  atom      -1.59826048      0.73652559     -2.77896178 O
  atom      -2.15784525      0.86874539     -0.72601479 H
  atom      -2.97674041     -1.80025690     -1.36833524 H
  atom      -4.61226287     -0.52959848     -1.99032580 C
  atom      -5.23549841     -0.78817641     -1.12614319 H
  atom      -4.91366347     -1.16534068     -2.83368952 H
  atom      -4.79466306      0.51820355     -2.26202211 H
  atom      -2.14655868     -1.22442176     -3.81600356 N
  atom      -1.37825144     -0.99050982     -5.02556535 C
  atom      -2.65253560     -2.09719764     -3.72129359 H
  atom      -2.02599488     -0.99185018     -5.91308278 H
  atom      -0.59775682     -1.75324036     -5.15220247 H
  atom      -0.90312555     -0.00878411     -4.93161641 H
  
  -----------------------------------------------------------------------
  Completed first pass over input file geometry.in .
  -----------------------------------------------------------------------
  

  Basic array size parameters:
  | Number of species                 :        4
  | Number of atoms                   :       32
  | Max. basis fn. angular momentum   :        4
  | Max. atomic/ionic basis occupied n:        2
  | Max. number of basis fn. types    :        2
  | Max. radial fns per species/type  :        8
  | Max. logarithmic grid size        :     1301
  | Max. radial integration grid size :       73
  | Max. angular integration grid size:      434
  | Max. angular grid division number :        8
  | Radial grid for Hartree potential :     1301
  | Number of spin channels           :        1

------------------------------------------------------------
          Reading file control.in.
------------------------------------------------------------
  XC: Using PBE gradient-corrected functionals.
  Self-consistent screening and van der Waals energy (TS, TS+SCS,MBD) module
  Spin treatment: No spin polarisation.
  Charge =   0.000000E+00: Neutral system requested explicitly.
  Occupation type: Gaussian broadening, width =   0.500000E-01 eV.
  Using pulay charge density mixing.
  Pulay mixing - number of memorized iterations:   10
  Charge density mixing - mixing parameter:     0.5000
  Convergence accuracy of self-consistent charge density:  0.1000E-03
  Convergence accuracy of sum of eigenvalues:  0.1000E-01
  Convergence accuracy of total energy:  0.1000E-04
  Convergence accuracy of forces:  0.1000E-03
  Maximum number of s.-c. iterations  :  1000
  Fitting ESP-charges to Potential. 
  | Esp charge output options: 
  | ESP Grid method: 3, cubic grid
  | Number of points in x, ,y, z:  0080 0080 0080
  |
 
  Reading configuration options for species H                   .
  | Found nuclear charge :   1.0000
  | Found atomic mass :    1.00794000000000      amu
  | Found l_max for Hartree potential  :   6
  | Found cutoff potl. onset [A], width [A], scale factor :    4.00000    2.00000    1.00000
  | Threshold for basis-dependent cutoff potential is   0.100000E-03
  | Found data for basic radial integration grid :    24 points, outermost radius =    7.000 A
  | Found multiplier for basic radial grid :   2
  | Found angular grid specification: user-specified.
  | Specified grid contains     6 separate shells.
  | Check grid settings after all constraints further below.
  | Found free-atom valence shell :  1 s   1.000
  | No ionic wave fns used. Skipping ion_occ.
  | Found hydrogenic basis function :  2 s   2.100
  | Found hydrogenic basis function :  2 p   3.500
  | Found hydrogenic basis function :  1 s   0.850
  | Found hydrogenic basis function :  2 p   3.700
  | Found hydrogenic basis function :  2 s   1.200
  | Found hydrogenic basis function :  3 d   7.000
  Species H                   : Missing cutoff potential type.
  Defaulting to exp(1/x)/(1-x)^2 type cutoff potential.
  Species H : No 'logarithmic' tag. Using default grid for free atom:
  | Default logarithmic grid data [bohr] : 0.1000E-03 0.1000E+03 0.1012E+01
  Species H : On-site basis accuracy parameter (for Gram-Schmidt orthonormalisation) not specified.
  Using default value basis_acc =  0.1000000E-03.
  Species H                   : Using default innermost maximum threshold i_radial=  2 for radial functions.
  Species H                   : Default cutoff onset for free atom density etc. : 0.40000000E+01 AA.
  Species H                   : Basic radial grid will be enhanced according to radial_multiplier =   2, to contain    49 grid points.
 
  Reading configuration options for species C                   .
  | Found nuclear charge :   6.0000
  | Found atomic mass :    12.0107000000000      amu
  | Found l_max for Hartree potential  :   6
  | Found cutoff potl. onset [A], width [A], scale factor :    4.00000    2.00000    1.00000
  | Threshold for basis-dependent cutoff potential is   0.100000E-03
  | Found data for basic radial integration grid :    34 points, outermost radius =    7.000 A
  | Found multiplier for basic radial grid :   2
  | Found angular grid specification: user-specified.
  | Specified grid contains     6 separate shells.
  | Check grid settings after all constraints further below.
  | Found free-atom valence shell :  2 s   2.000
  | Found free-atom valence shell :  2 p   2.000
  | No ionic wave fns used. Skipping ion_occ.
  | No ionic wave fns used. Skipping ion_occ.
  | Found hydrogenic basis function :  2 p   1.700
  | Found hydrogenic basis function :  3 d   6.000
  | Found hydrogenic basis function :  2 s   4.900
  | Found hydrogenic basis function :  4 f   9.800
  | Found hydrogenic basis function :  3 p   5.200
  | Found hydrogenic basis function :  3 s   4.300
  | Found hydrogenic basis function :  5 g  14.400
  | Found hydrogenic basis function :  3 d   6.200
  Species C                   : Missing cutoff potential type.
  Defaulting to exp(1/x)/(1-x)^2 type cutoff potential.
  Species C : No 'logarithmic' tag. Using default grid for free atom:
  | Default logarithmic grid data [bohr] : 0.1000E-03 0.1000E+03 0.1012E+01
  Species C : On-site basis accuracy parameter (for Gram-Schmidt orthonormalisation) not specified.
  Using default value basis_acc =  0.1000000E-03.
  Species C                   : Using default innermost maximum threshold i_radial=  2 for radial functions.
  Species C                   : Default cutoff onset for free atom density etc. : 0.40000000E+01 AA.
  Species C                   : Basic radial grid will be enhanced according to radial_multiplier =   2, to contain    69 grid points.
 
  Reading configuration options for species N                   .
  | Found nuclear charge :   7.0000
  | Found atomic mass :    14.0067000000000      amu
  | Found l_max for Hartree potential  :   6
  | Found cutoff potl. onset [A], width [A], scale factor :    4.00000    2.00000    1.00000
  | Threshold for basis-dependent cutoff potential is   0.100000E-03
  | Found data for basic radial integration grid :    35 points, outermost radius =    7.000 A
  | Found multiplier for basic radial grid :   2
  | Found angular grid specification: user-specified.
  | Specified grid contains     6 separate shells.
  | Check grid settings after all constraints further below.
  | Found free-atom valence shell :  2 s   2.000
  | Found free-atom valence shell :  2 p   3.000
  | No ionic wave fns used. Skipping ion_occ.
  | No ionic wave fns used. Skipping ion_occ.
  | Found hydrogenic basis function :  2 p   1.800
  | Found hydrogenic basis function :  3 d   6.800
  | Found hydrogenic basis function :  3 s   5.800
  | Found hydrogenic basis function :  4 f  10.800
  | Found hydrogenic basis function :  3 p   5.800
  | Found hydrogenic basis function :  1 s   0.800
  | Found hydrogenic basis function :  5 g  16.000
  | Found hydrogenic basis function :  3 d   4.900
  Species N                   : Missing cutoff potential type.
  Defaulting to exp(1/x)/(1-x)^2 type cutoff potential.
  Species N : No 'logarithmic' tag. Using default grid for free atom:
  | Default logarithmic grid data [bohr] : 0.1000E-03 0.1000E+03 0.1012E+01
  Species N : On-site basis accuracy parameter (for Gram-Schmidt orthonormalisation) not specified.
  Using default value basis_acc =  0.1000000E-03.
  Species N                   : Using default innermost maximum threshold i_radial=  2 for radial functions.
  Species N                   : Default cutoff onset for free atom density etc. : 0.40000000E+01 AA.
  Species N                   : Basic radial grid will be enhanced according to radial_multiplier =   2, to contain    71 grid points.
 
  Reading configuration options for species O                   .
  | Found nuclear charge :   8.0000
  | Found atomic mass :    15.9994000000000      amu
  | Found l_max for Hartree potential  :   6
  | Found cutoff potl. onset [A], width [A], scale factor :    4.00000    2.00000    1.00000
  | Threshold for basis-dependent cutoff potential is   0.100000E-03
  | Found data for basic radial integration grid :    36 points, outermost radius =    7.000 A
  | Found multiplier for basic radial grid :   2
  | Found angular grid specification: user-specified.
  | Specified grid contains     6 separate shells.
  | Check grid settings after all constraints further below.
  | Found free-atom valence shell :  2 s   2.000
  | Found free-atom valence shell :  2 p   4.000
  | No ionic wave fns used. Skipping ion_occ.
  | No ionic wave fns used. Skipping ion_occ.
  | Found hydrogenic basis function :  2 p   1.800
  | Found hydrogenic basis function :  3 d   7.600
  | Found hydrogenic basis function :  3 s   6.400
  | Found hydrogenic basis function :  4 f  11.600
  | Found hydrogenic basis function :  3 p   6.200
  | Found hydrogenic basis function :  3 d   5.600
  | Found hydrogenic basis function :  5 g  17.600
  | Found hydrogenic basis function :  1 s   0.750
  Species O                   : Missing cutoff potential type.
  Defaulting to exp(1/x)/(1-x)^2 type cutoff potential.
  Species O : No 'logarithmic' tag. Using default grid for free atom:
  | Default logarithmic grid data [bohr] : 0.1000E-03 0.1000E+03 0.1012E+01
  Species O : On-site basis accuracy parameter (for Gram-Schmidt orthonormalisation) not specified.
  Using default value basis_acc =  0.1000000E-03.
  Species O                   : Using default innermost maximum threshold i_radial=  2 for radial functions.
  Species O                   : Default cutoff onset for free atom density etc. : 0.40000000E+01 AA.
  Species O                   : Basic radial grid will be enhanced according to radial_multiplier =   2, to contain    73 grid points.
 
  Finished reading input file 'control.in'. Consistency checks are next.
 
  Target number of points in a grid batch is not set. Defaulting to  100
  Method for grid partitioning is not set. Defaulting to parallel hash+maxmin partitioning.
  Batch size limit is not set. Defaulting to    200
  By default, will store active basis functions for each batch.
  If in need of memory, prune_basis_once .false. can be used to disable this option.
  communication_type for Hartree potential was not specified.
  Defaulting to calc_hartree .
  Pulay mixer: Number of initial linear mixing iterations not set.
  Defaulting to    0 iterations.
  Work space size for distributed Hartree potential not set.
  Defaulting to   0.200000E+03 MB.
  Algorithm-dependent basis array size parameters:
  | n_max_pulay                         :       10
  Geometry relaxation not requested: no relaxation will be performed.
  Handling of forces: Unphysical translation and rotation will be removed from forces.
  No accuracy limit for integral partition fn. given. Defaulting to  0.1000E-14.
  No threshold value for u(r) in integrations given. Defaulting to  0.1000E-05.
  No accuracy for occupation numbers given. Defaulting to  0.1000E-07.
  No threshold value for occupation numbers given. Defaulting to  0.0000E+00.
  No accuracy for fermi level given. Defaulting to  0.1000E-19.
  Maximum # of iterations to find E_F not set. Defaulting to  200.
  Preferred method for the eigenvalue solver ('KS_method') not specified in 'control.in'.
  Calling blacs routine to test compilation state
  Since scalapack support is enabled, defaulting to 'elpa'.
  Preferred method for the MBD eigenvalue solver ('mbd_eigensolver') not specified in 'control.in'.
  Calling blacs routine to test compilation state
  Since scalapack support is enabled, defaulting to 'scaLAPACK'.
  Will not use alltoall communication since running on < 1024 CPUs.
  Threshold for basis singularities not set.
  Default threshold for basis singularities:  0.1000E-04
  partition_type (choice of integration weights) for integrals was not specified.
  | Using a version of the partition function of Stratmann and coworkers ('stratmann_smoother').
  | At each grid point, the set of atoms used to build the partition table is smoothly restricted to
  | only those atoms whose free-atom density would be non-zero at that grid point.
  Partitioning for Hartree potential was not defined. Using partition_type for integrals.
  | Adjusted default value of keyword multip_moments_threshold to:       0.10000000E-11
  | This value may affect high angular momentum components of the Hartree potential in periodic systems.
  No q(lm)/r^(l+1) cutoff set for long-range Hartree potential.
  | Using default value of  0.100000E-09 .
  | Verify using the multipole_threshold keyword.
  Defaulting to new monopole extrapolation.
  Density update method: automatic selection selected.
------------------------------------------------------------


------------------------------------------------------------
          Reading geometry description geometry.in.
------------------------------------------------------------
 * Warning! You did not set the 'relativistic' flag in input file 'control.in'.
 * Since you are not attempting to treat any elements beyond Ca(Z=20), FHI-aims
 * will default to 'relativistic none'.
 * You must ensure that this is really what you want!!
 * For example, DO NOT compute total-energy differences between results from
 * different settings of the 'relativistic' flag.
  Input structure read successfully.
  The structure contains       32 atoms,  and a total of        116.000 electrons.

  Input geometry:
  | No unit cell requested.
  | Atomic structure:
  |       Atom                x [A]            y [A]            z [A]
  |    1: Species C              0.224012        -1.045776         1.522101
  |    2: Species C             -0.539615        -1.027251         2.833794
  |    3: Species O             -0.172344        -1.690601         3.799946
  |    4: Species H              0.857968        -1.936683         1.520359
  |    5: Species H              0.872758        -0.161184         1.454504
  |    6: Species H             -0.423762        -1.057692         0.636967
  |    7: Species N             -1.641833        -0.208883         2.937795
  |    8: Species C             -2.338314         0.554244         1.905728
  |    9: Species C             -2.876862        -0.382581         0.788250
  |   10: Species O             -3.432050        -1.442574         1.068127
  |   11: Species H             -2.131399        -0.345525         3.816077
  |   12: Species H             -3.258266         0.907155         2.396842
  |   13: Species C             -1.566766         1.798618         1.445828
  |   14: Species H             -2.201047         2.454534         0.834094
  |   15: Species H             -0.667925         1.550944         0.866788
  |   16: Species H             -1.246989         2.371358         2.324650
  |   17: Species N             -2.729182         0.059090        -0.489022
  |   18: Species C             -3.131087        -0.740591        -1.629235
  |   19: Species C             -2.207138        -0.334905        -2.791109
  |   20: Species O             -1.598260         0.736526        -2.778962
  |   21: Species H             -2.157845         0.868745        -0.726015
  |   22: Species H             -2.976740        -1.800257        -1.368335
  |   23: Species C             -4.612263        -0.529598        -1.990326
  |   24: Species H             -5.235498        -0.788176        -1.126143
  |   25: Species H             -4.913663        -1.165341        -2.833690
  |   26: Species H             -4.794663         0.518204        -2.262022
  |   27: Species N             -2.146559        -1.224422        -3.816004
  |   28: Species C             -1.378251        -0.990510        -5.025565
  |   29: Species H             -2.652536        -2.097198        -3.721294
  |   30: Species H             -2.025995        -0.991850        -5.913083
  |   31: Species H             -0.597757        -1.753240        -5.152202
  |   32: Species H             -0.903126        -0.008784        -4.931616
  |

  | The smallest distance between any two atoms is         1.01327210 AA.
  |
  | The first atom of this pair is atom number                     27 .
  | The second atom of this pair is atom number                    29 .

  Number of empty states per atom not set in control.in - providing a guess from actual geometry.
  | Total number of empty states used during s.c.f. cycle:       71
  If you use a very high smearing, use empty_states (per atom!) in control.in to increase this value.

  Structure-dependent array size parameters: 
  | Maximum number of distinct radial functions  :       40
  | Maximum number of basis functions            :      840
  | Number of Kohn-Sham states (occupied + empty):      129
------------------------------------------------------------

------------------------------------------------------------
          Preparing all fixed parts of the calculation.
------------------------------------------------------------
  Determining machine precision:
    2.225073858507201E-308
  Setting up grids for atomic and cluster calculations.

  Creating wave function, potential, and density for free atoms.

  Species: H

  List of occupied orbitals and eigenvalues:
    n    l              occ      energy [Ha]    energy [eV]
    1    0           1.0000        -0.238382        -6.4867


  Species: C

  List of occupied orbitals and eigenvalues:
    n    l              occ      energy [Ha]    energy [eV]
    1    0           2.0000       -10.041232      -273.2358
    2    0           2.0000        -0.504327       -13.7234
    2    1           2.0000        -0.193750        -5.2722


  Species: N

  List of occupied orbitals and eigenvalues:
    n    l              occ      energy [Ha]    energy [eV]
    1    0           2.0000       -14.129007      -384.4699
    2    0           2.0000        -0.681802       -18.5528
    2    1           3.0000        -0.260543        -7.0897


  Species: O

  List of occupied orbitals and eigenvalues:
    n    l              occ      energy [Ha]    energy [eV]
    1    0           2.0000       -18.898576      -514.2564
    2    0           2.0000        -0.878795       -23.9132
    2    1           4.0000        -0.332075        -9.0362

  Creating fixed part of basis set: Ionic, confined, hydrogenic.
 
  H                    hydrogenic:
 
  List of hydrogenic basis orbitals: 
    n    l      effective z      eigenvalue [eV]  inner max. [A]     outer max. [A]     outer radius [A]   
    2    0         2.100000       -14.9965           0.193243           1.317208           5.373006
    2    1         3.500000       -41.6672           0.602369           0.602369           4.056063
    1    0         0.850000        -9.8292           0.624871           0.624871           5.373006
    2    1         3.700000       -46.5653           0.573622           0.573622           3.910002
    2    0         1.200000        -4.5995           0.334980           2.228188           5.505995
    3    2         7.000000       -74.0753           0.680699           0.680699           3.769201
 
 
  C                    hydrogenic:
 
  List of hydrogenic basis orbitals: 
    n    l      effective z      eigenvalue [eV]  inner max. [A]     outer max. [A]     outer radius [A]   
    2    1         1.700000        -9.8152           1.245706           1.245706           5.401630
    3    2         6.000000       -54.4226           0.792453           0.792453           4.178599
    2    0         4.900000       -81.6681           0.082559           0.562749           3.353238
    4    3         9.800000       -81.6681           0.863254           0.863254           4.028125
    3    1         5.200000       -40.8774           0.305389           1.215618           4.898362
    3    0         4.300000       -27.9508           0.091041           1.610311           5.401630
    5    4        14.400000      -112.8510           0.917666           0.917666           3.883070
    3    2         6.200000       -58.1113           0.763917           0.763917           4.077671
 
 
  N                    hydrogenic:
 
  List of hydrogenic basis orbitals: 
    n    l      effective z      eigenvalue [eV]  inner max. [A]     outer max. [A]     outer radius [A]   
    2    1         1.800000       -11.0118           1.177451           1.177451           5.427479
    3    2         6.800000       -69.9029           0.704619           0.704619           3.854246
    3    0         5.800000       -50.8549           0.067388           1.191934           4.629968
    4    3        10.800000       -99.1854           0.786571           0.786571           3.761152
    3    1         5.800000       -50.8549           0.274880           1.094176           4.518138
    1    0         0.800000        -8.7059           0.662839           0.662839           5.361532
    5    4        16.000000      -139.3222           0.825990           0.825990           3.625711
    3    2         4.900000       -36.2967           0.968267           0.968267           4.862000
 
 
  O                    hydrogenic:
 
  List of hydrogenic basis orbitals: 
    n    l      effective z      eigenvalue [eV]  inner max. [A]     outer max. [A]     outer radius [A]   
    2    1         1.800000       -11.0118           1.178562           1.178562           5.432602
    3    2         7.600000       -87.3182           0.624125           0.624125           3.541477
    3    0         6.400000       -61.9209           0.061167           1.081902           4.306578
    4    3        11.600000      -114.4238           0.731631           0.731631           3.585037
    3    1         6.200000       -58.1113           0.255680           1.030270           4.306578
    3    2         5.600000       -47.4081           0.847233           0.847233           4.413171
    5    4        17.600000      -168.5799           0.749740           0.749740           3.372465
    1    0         0.750000        -7.6499           0.705284           0.705284           5.366593
 

  Adding cutoff potential to free-atom effective potential.
  Creating atomic-like basis functions for current effective potential.

  Species H                   :

  List of atomic basis orbitals and eigenvalues:
    n    l      energy [Ha]    energy [eV]    outer radius [A]
    1    0        -0.238382        -6.4867       5.373006


  Species C                   :

  List of atomic basis orbitals and eigenvalues:
    n    l      energy [Ha]    energy [eV]    outer radius [A]
    1    0       -10.041232      -273.2358       1.934409
    2    0        -0.504327       -13.7234       5.271162
    2    1        -0.193750        -5.2722       5.401630


  Species N                   :

  List of atomic basis orbitals and eigenvalues:
    n    l      energy [Ha]    energy [eV]    outer radius [A]
    1    0       -14.129007      -384.4699       1.637919
    2    0        -0.681802       -18.5528       5.168461
    2    1        -0.260543        -7.0897       5.361532


  Species O                   :

  List of atomic basis orbitals and eigenvalues:
    n    l      energy [Ha]    energy [eV]    outer radius [A]
    1    0       -18.898576      -514.2564       1.415765
    2    0        -0.878795       -23.9132       5.048385
    2    1        -0.332075        -9.0362       5.301386

  Assembling full basis from fixed parts.
  | Species H :   atomic orbital   1 s accepted.
  | Species H :    hydro orbital   2 s accepted.
  | Species H :    hydro orbital   1 s accepted.
  | Species H :    hydro orbital   2 s accepted.
  | Species H :    hydro orbital   2 p accepted.
  | Species H :    hydro orbital   2 p accepted.
  | Species H :    hydro orbital   3 d accepted.
  | Species C :   atomic orbital   1 s accepted.
  | Species C :    hydro orbital   2 s accepted.
  | Species C :   atomic orbital   2 s accepted.
  | Species C :    hydro orbital   3 s accepted.
  | Species C :    hydro orbital   3 p accepted.
  | Species C :   atomic orbital   2 p accepted.
  | Species C :    hydro orbital   2 p accepted.
  | Species C :    hydro orbital   3 d accepted.
  | Species C :    hydro orbital   3 d accepted.
  | Species C :    hydro orbital   4 f accepted.
  | Species C :    hydro orbital   5 g accepted.
  | Species N :   atomic orbital   1 s accepted.
  | Species N :    hydro orbital   3 s accepted.
  | Species N :   atomic orbital   2 s accepted.
  | Species N :    hydro orbital   1 s accepted.
  | Species N :    hydro orbital   3 p accepted.
  | Species N :   atomic orbital   2 p accepted.
  | Species N :    hydro orbital   2 p accepted.
  | Species N :    hydro orbital   3 d accepted.
  | Species N :    hydro orbital   3 d accepted.
  | Species N :    hydro orbital   4 f accepted.
  | Species N :    hydro orbital   5 g accepted.
  | Species O :   atomic orbital   1 s accepted.
  | Species O :    hydro orbital   3 s accepted.
  | Species O :   atomic orbital   2 s accepted.
  | Species O :    hydro orbital   1 s accepted.
  | Species O :    hydro orbital   3 p accepted.
  | Species O :   atomic orbital   2 p accepted.
  | Species O :    hydro orbital   2 p accepted.
  | Species O :    hydro orbital   3 d accepted.
  | Species O :    hydro orbital   3 d accepted.
  | Species O :    hydro orbital   4 f accepted.
  | Species O :    hydro orbital   5 g accepted.
 
  Basis size parameters after reduction:
  | Total number of radial functions:       40
  | Total number of basis functions :      840
 
  Testing on-site integration grid accuracy.
  |  Species  Function  <phi|h_atom|phi> (log., in eV)  <phi|h_atom|phi> (rad., in eV)
           1        1                 -6.4869821809                 -6.4870742227
           1        2                 13.5044133542                 13.5041049177
           1        3                 32.7854418792                 32.7779770519
           1        4                 33.7995553101                 33.7152624900 ***
           1        5                 28.8558651799                 28.8558652046
           1        6                 59.6361831893                 59.6362535845
           1        7                 60.2733718049                 60.2733715484
           2        8               -273.2358277112               -273.2358261765
           2        9                -10.7624923123                -10.7625144012
           2       10                 17.4634079027                 17.4634252127
           2       11                 53.0363661832                 53.0366180446
           2       12                 15.0981351967                 15.0981317714
           2       13                  3.8522181899                  3.8522770949
           2       14                 12.1181835661                 12.1206868578
           2       15                 29.4320778347                 29.4320780959
           2       16                 54.8753777694                 54.8752901936
           2       17                 59.3533975461                 59.3533974833
           2       18                 93.4537491195                 93.4537492066
           3       19               -384.4698526889               -384.4698499465
           3       20                 12.5691022037                 12.5690910168
           3       21                -15.7489097511                -15.7489165588
           3       22                 27.0978334940                 27.0985589490
           3       23                 18.5949116966                 18.5949125562
           3       24                  1.2212828291                  1.2212855301
           3       25                 13.4428926797                 13.4434051125
           3       26                 35.9380614500                 35.9380613666
           3       27                 39.9231532098                 39.9231654735
           3       28                 72.9957335806                 72.9957336833
           3       29                116.4231321147                116.4231321431
           4       30               -514.2564144315               -514.2564099626
           4       31                 15.1726678541                 15.1726530877
           4       32                -21.5447785304                -21.5447874973
           4       33                 14.4944558459                 14.4944698284
           4       34                 20.8882174564                 20.8882178906
           4       35                 -2.4850315908                 -2.4850322289
           4       36                 13.8600193195                 13.8599826966
           4       37                 45.8243383616                 45.8243383675
           4       38                 52.1840606465                 52.1840622440
           4       39                 85.4074185510                 85.4074185819
           4       40                142.0983717302                142.0983717339
 * Note: Onsite integrals marked "***" above are less accurate than
 * onsite_accuracy_threshold =    0.03000 eV. Usually, this is harmless.
 * When in doubt, tighten the "radial" and/or "radial_multiplier" flags to check.

  Preparing densities etc. for the partition functions (integrals / Hartree potential).

  Preparations completed.
  max(cpu_time)          :      0.236 s.
  Wall clock time (cpu1) :      0.236 s.
------------------------------------------------------------

------------------------------------------------------------
          Begin self-consistency loop: Initialization.

          Date     :  20170309, Time     :  182926.558
------------------------------------------------------------

  Initializing index lists of integration centers etc. from given atomic structure:
  | Number of centers in hartree potential         :        32
  | Number of centers in hartree multipole         :        32
  | Number of centers in electron density summation:        32
  | Number of centers in basis integrals           :        32
  | Number of centers in integrals                 :        32
  | Number of centers in hamiltonian               :        32
  Using modified Scalapack Eigenvalue solver (ELPA)
  * Using 32 tasks for Scalapack Eigenvalue solver.
  Detailed listing of tasks and assigned k-points:
  (for non-periodic systems, the "k-point" denotes an internal label only)
   Task     0 k-point     1 on eos195
   Task     1 k-point     1 on eos195
   Task     2 k-point     1 on eos195
   Task     3 k-point     1 on eos195
   Task     4 k-point     1 on eos195
   Task     5 k-point     1 on eos195
   Task     6 k-point     1 on eos195
   Task     7 k-point     1 on eos195
   Task     8 k-point     1 on eos195
   Task     9 k-point     1 on eos195
   Task    10 k-point     1 on eos195
   Task    11 k-point     1 on eos195
   Task    12 k-point     1 on eos195
   Task    13 k-point     1 on eos195
   Task    14 k-point     1 on eos195
   Task    15 k-point     1 on eos195
   Task    16 k-point     1 on eos195
   Task    17 k-point     1 on eos195
   Task    18 k-point     1 on eos195
   Task    19 k-point     1 on eos195
   Task    20 k-point     1 on eos195
   Task    21 k-point     1 on eos195
   Task    22 k-point     1 on eos195
   Task    23 k-point     1 on eos195
   Task    24 k-point     1 on eos195
   Task    25 k-point     1 on eos195
   Task    26 k-point     1 on eos195
   Task    27 k-point     1 on eos195
   Task    28 k-point     1 on eos195
   Task    29 k-point     1 on eos195
   Task    30 k-point     1 on eos195
   Task    31 k-point     1 on eos195
  Tasks:    32 split into      8 X      4 BLACS grid
  Calculating blocksize based on n_basis =          840 max_nprow =            8 max_npcol =            4
  Scalapack blocksize set to:           16
  Required Scalapack workspace - INTEGER:            1 REAL:             1
  Partitioning the integration grid into batches with parallel hashing+maxmin method.
  | Number of batches:     4980
  | Maximal batch size:     200
  | Minimal batch size:      45
  | Average batch size:     105.969
  | Standard deviation of batch sizes:      29.837

  Integration load balanced across    32 MPI tasks.
  Work distribution over tasks is as follows:
  Task     0 has      16485 integration points.
  Task     1 has      16505 integration points.
  Task     2 has      16496 integration points.
  Task     3 has      16509 integration points.
  Task     4 has      16508 integration points.
  Task     5 has      16494 integration points.
  Task     6 has      16474 integration points.
  Task     7 has      16515 integration points.
  Task     8 has      16509 integration points.
  Task     9 has      16498 integration points.
  Task    10 has      16476 integration points.
  Task    11 has      16467 integration points.
  Task    12 has      16469 integration points.
  Task    13 has      16523 integration points.
  Task    14 has      16498 integration points.
  Task    15 has      16468 integration points.
  Task    16 has      16464 integration points.
  Task    17 has      16576 integration points.
  Task    18 has      16461 integration points.
  Task    19 has      16469 integration points.
  Task    20 has      16475 integration points.
  Task    21 has      16514 integration points.
  Task    22 has      16517 integration points.
  Task    23 has      16466 integration points.
  Task    24 has      16530 integration points.
  Task    25 has      16470 integration points.
  Task    26 has      16500 integration points.
  Task    27 has      16423 integration points.
  Task    28 has      16468 integration points.
  Task    29 has      16473 integration points.
  Task    30 has      16522 integration points.
  Task    31 has      16506 integration points.
  Initializing partition tables, free-atom densities, potentials, etc. across the integration grid (initialize_grid_storage).
  | initialize_grid_storage: Actual outermost partition radius vs. multipole_radius_free
  | (-- VB: in principle, multipole_radius_free should be larger, hence this output)
  | Species        1: Confinement radius =              6.000000000000000 AA, multipole_radius_free =              6.071692442739658 AA.
  | Species        1: outer_partition_radius set to              6.071692442739658 AA .
  | Species        2: Confinement radius =              6.000000000000000 AA, multipole_radius_free =              6.029870734432609 AA.
  | Species        2: outer_partition_radius set to              6.029870734432609 AA .
  | Species        3: Confinement radius =              6.000000000000000 AA, multipole_radius_free =              6.058726835495003 AA.
  | Species        3: outer_partition_radius set to              6.058726835495003 AA .
  | Species        4: Confinement radius =              6.000000000000000 AA, multipole_radius_free =              6.064445521808699 AA.
  | Species        4: outer_partition_radius set to              6.064445521808699 AA .
  | Original list of interatomic distances with          32 x         32 entries is created.
  | Net number of integration points:   527728
  | of which are non-zero points    :   415784
  Obtaining max. number of non-zero basis functions in each batch (get_n_compute_maxes).
  | Maximal number of non-zero basis functions:      745 in task     0
  | Maximal number of non-zero basis functions:      758 in task     1
  | Maximal number of non-zero basis functions:      734 in task     2
  | Maximal number of non-zero basis functions:      730 in task     3
  | Maximal number of non-zero basis functions:      740 in task     4
  | Maximal number of non-zero basis functions:      745 in task     5
  | Maximal number of non-zero basis functions:      746 in task     6
  | Maximal number of non-zero basis functions:      732 in task     7
  | Maximal number of non-zero basis functions:      726 in task     8
  | Maximal number of non-zero basis functions:      737 in task     9
  | Maximal number of non-zero basis functions:      750 in task    10
  | Maximal number of non-zero basis functions:      725 in task    11
  | Maximal number of non-zero basis functions:      748 in task    12
  | Maximal number of non-zero basis functions:      754 in task    13
  | Maximal number of non-zero basis functions:      736 in task    14
  | Maximal number of non-zero basis functions:      755 in task    15
  | Maximal number of non-zero basis functions:      740 in task    16
  | Maximal number of non-zero basis functions:      748 in task    17
  | Maximal number of non-zero basis functions:      736 in task    18
  | Maximal number of non-zero basis functions:      750 in task    19
  | Maximal number of non-zero basis functions:      746 in task    20
  | Maximal number of non-zero basis functions:      764 in task    21
  | Maximal number of non-zero basis functions:      728 in task    22
  | Maximal number of non-zero basis functions:      746 in task    23
  | Maximal number of non-zero basis functions:      767 in task    24
  | Maximal number of non-zero basis functions:      754 in task    25
  | Maximal number of non-zero basis functions:      738 in task    26
  | Maximal number of non-zero basis functions:      754 in task    27
  | Maximal number of non-zero basis functions:      741 in task    28
  | Maximal number of non-zero basis functions:      748 in task    29
  | Maximal number of non-zero basis functions:      739 in task    30
  | Maximal number of non-zero basis functions:      754 in task    31
  Selecting the method for density update.
  Loop over occupied states selected for charge density update.
  Integrating Hamiltonian matrix: batch-based integration.
  Time summed over all CPUs for integration: real work       20.134 s, elapsed       20.829 s
  Integrating overlap matrix.
  Time summed over all CPUs for integration: real work       11.984 s, elapsed       12.474 s
  Deallocating overlap matrix.

  Updating Kohn-Sham eigenvalues, eigenvectors, occupation numbers, and Fermi level.
  Solving generalized eigenproblem
  Solving real symmetric generalised eigenvalue problem by standard ScaLAPACK.
  Transforming overlap matrix with ScaLAPACK and checking for singularities.
  : Overlap matrix is nonsingular, using Cholesky decomposition
  | Lowest eigenvalue:  0.811401E-04
  Factoring overlap matrix with Cholesky decomposition
  Using Cholesky factor for transformation
  Using 1-stage real ELPA solver
  Determining occupation numbers for Kohn-Sham eigenstates.
  | Chemical potential (Fermi level) in eV                 : -.96339916E+01
  | Error in electron count due to remaining E_F inaccuracy: 0.00000000E+00
  | Maximum occupation number of highest empty state:  0.00E+00

  Writing Kohn-Sham eigenvalues.

  State    Occupation    Eigenvalue [Ha]    Eigenvalue [eV]
      1       2.00000         -18.974171         -516.31346
      2       2.00000         -18.974112         -516.31185
      3       2.00000         -18.974085         -516.31112
      4       2.00000         -14.256928         -387.95075
      5       2.00000         -14.256738         -387.94559
      6       2.00000         -14.252651         -387.83436
      7       2.00000         -10.171136         -276.77069
      8       2.00000         -10.170792         -276.76134
      9       2.00000         -10.170122         -276.74311
     10       2.00000         -10.166830         -276.65351
     11       2.00000         -10.149191         -276.17355
     12       2.00000         -10.147103         -276.11673
     13       2.00000         -10.135475         -275.80032
     14       2.00000         -10.135377         -275.79764
     15       2.00000         -10.134219         -275.76613
     16       2.00000          -1.135095          -30.88752
     17       2.00000          -1.131871          -30.79978
     18       2.00000          -1.128665          -30.71253
     19       2.00000          -1.018319          -27.70987
     20       2.00000          -1.015125          -27.62296
     21       2.00000          -1.009635          -27.47357
     22       2.00000          -0.889186          -24.19598
     23       2.00000          -0.867171          -23.59693
     24       2.00000          -0.848238          -23.08174
     25       2.00000          -0.819652          -22.30386
     26       2.00000          -0.779509          -21.21152
     27       2.00000          -0.757628          -20.61609
     28       2.00000          -0.700232          -19.05428
     29       2.00000          -0.684804          -18.63445
     30       2.00000          -0.679957          -18.50256
     31       2.00000          -0.649863          -17.68366
     32       2.00000          -0.623703          -16.97183
     33       2.00000          -0.608245          -16.55119
     34       2.00000          -0.598593          -16.28854
     35       2.00000          -0.590869          -16.07835
     36       2.00000          -0.582899          -15.86150
     37       2.00000          -0.574016          -15.61978
     38       2.00000          -0.559526          -15.22547
     39       2.00000          -0.557325          -15.16558
     40       2.00000          -0.554238          -15.08157
     41       2.00000          -0.552792          -15.04224
     42       2.00000          -0.541698          -14.74034
     43       2.00000          -0.533311          -14.51213
     44       2.00000          -0.526845          -14.33617
     45       2.00000          -0.520740          -14.17004
     46       2.00000          -0.517446          -14.08043
     47       2.00000          -0.512455          -13.94461
     48       2.00000          -0.505760          -13.76242
     49       2.00000          -0.495787          -13.49106
     50       2.00000          -0.482814          -13.13803
     51       2.00000          -0.482068          -13.11775
     52       2.00000          -0.470239          -12.79587
     53       2.00000          -0.408120          -11.10552
     54       2.00000          -0.402150          -10.94306
     55       2.00000          -0.401775          -10.93286
     56       2.00000          -0.394021          -10.72185
     57       2.00000          -0.384663          -10.46722
     58       2.00000          -0.383528          -10.43632
     59       0.00000          -0.167016           -4.54473
     60       0.00000          -0.158395           -4.31014
     61       0.00000          -0.153896           -4.18773
     62       0.00000          -0.079495           -2.16316
     63       0.00000          -0.069076           -1.87965
     64       0.00000          -0.057751           -1.57149
     65       0.00000          -0.048449           -1.31836
     66       0.00000          -0.045840           -1.24738
     67       0.00000          -0.039901           -1.08576
     68       0.00000          -0.036714           -0.99905
     69       0.00000          -0.028134           -0.76557
     70       0.00000          -0.024267           -0.66034
     71       0.00000          -0.019626           -0.53405
     72       0.00000          -0.013966           -0.38002
     73       0.00000          -0.009028           -0.24566
     74       0.00000          -0.007672           -0.20876
     75       0.00000          -0.003220           -0.08763
     76       0.00000          -0.001051           -0.02861
     77       0.00000           0.001455            0.03958
     78       0.00000           0.006499            0.17683
     79       0.00000           0.013247            0.36046
     80       0.00000           0.016176            0.44016
     81       0.00000           0.018767            0.51067
     82       0.00000           0.022257            0.60565
     83       0.00000           0.026461            0.72003
     84       0.00000           0.032997            0.89790
     85       0.00000           0.042674            1.16121
     86       0.00000           0.045915            1.24940
     87       0.00000           0.051966            1.41407
     88       0.00000           0.057623            1.56801
     89       0.00000           0.064003            1.74160
     90       0.00000           0.070715            1.92427
     91       0.00000           0.078343            2.13183
     92       0.00000           0.079168            2.15426
     93       0.00000           0.087384            2.37785
     94       0.00000           0.093248            2.53741
     95       0.00000           0.096400            2.62318
     96       0.00000           0.098943            2.69238
     97       0.00000           0.108438            2.95074
     98       0.00000           0.112639            3.06507
     99       0.00000           0.120036            3.26634
    100       0.00000           0.123354            3.35662
    101       0.00000           0.128705            3.50225
    102       0.00000           0.134122            3.64965
    103       0.00000           0.135853            3.69674
    104       0.00000           0.142722            3.88366
    105       0.00000           0.144080            3.92061
    106       0.00000           0.153983            4.19009
    107       0.00000           0.154596            4.20678
    108       0.00000           0.160533            4.36832
    109       0.00000           0.162795            4.42988
    110       0.00000           0.170813            4.64805
    111       0.00000           0.174494            4.74822
    112       0.00000           0.176072            4.79115
    113       0.00000           0.183809            5.00168
    114       0.00000           0.187482            5.10164
    115       0.00000           0.190601            5.18652
    116       0.00000           0.198675            5.40623
    117       0.00000           0.199777            5.43620
    118       0.00000           0.205281            5.58599
    119       0.00000           0.209441            5.69917
    120       0.00000           0.214594            5.83941
    121       0.00000           0.220085            5.98883
    122       0.00000           0.224269            6.10266
    123       0.00000           0.229393            6.24210
    124       0.00000           0.236926            6.44708
    125       0.00000           0.244265            6.64679
    126       0.00000           0.247247            6.72794
    127       0.00000           0.254199            6.91710
    128       0.00000           0.262339            7.13861
    129       0.00000           0.267706            7.28465

  Highest occupied state (VBM) at    -10.43631813 eV
  | Occupation number:      2.00000000

  Lowest unoccupied state (CBM) at    -4.54473446 eV
  | Occupation number:      0.00000000

  Overall HOMO-LUMO gap:      5.89158367 eV.
  Calculating total energy contributions from superposition of free atom densities.

  Total energy components:
  | Sum of eigenvalues            :        -437.89901021 Ha      -11915.83833888 eV
  | XC energy correction          :         -98.81940453 Ha       -2689.01281276 eV
  | XC potential correction       :         127.01992076 Ha        3456.38790289 eV
  | Free-atom electrostatic energy:        -333.59292046 Ha       -9077.52522502 eV
  | Hartree energy correction     :           0.00000000 Ha           0.00000000 eV
  | MBD@rsSCS energy              :           0.00000000 Ha           0.00000000 eV
  | Entropy correction            :          -0.00000000 Ha          -0.00000000 eV
  | ---------------------------
  | Total energy                  :        -743.29141444 Ha      -20225.98847377 eV
  | Total energy, T -> 0          :        -743.29141444 Ha      -20225.98847377 eV  <-- do not rely on this value for anything but (periodic) metals
  | Electronic free energy        :        -743.29141444 Ha      -20225.98847377 eV

  Derived energy quantities:
  | Kinetic energy                :         735.15921887 Ha       20004.70017343 eV
  | Electrostatic energy          :       -1379.63122878 Ha      -37541.67583444 eV
  | Energy correction for multipole
  | error in Hartree potential    :           0.00000000 Ha           0.00000000 eV
  | Sum of eigenvalues per atom                           :        -372.36994809 eV
  | Total energy (T->0) per atom                          :        -632.06213981 eV  <-- do not rely on this value for anything but (periodic) metals
  | Electronic free energy per atom                       :        -632.06213981 eV
  Initialize hartree_potential_storage
  Max. number of atoms included in rho_multipole:           32

  End scf initialization - timings             :  max(cpu_time)    wall_clock(cpu1)
  | Time for scf. initialization               :        1.772 s           1.771 s
  | Boundary condition initialization          :        0.004 s           0.000 s
  | Integration                                :        1.064 s           1.061 s
  | Solution of K.-S. eqns.                    :        0.076 s           0.074 s
  | Grid partitioning                          :        0.316 s           0.308 s
  | Preloading free-atom quantities on grid    :        0.028 s           0.027 s
  | Free-atom superposition energy             :        0.040 s           0.038 s
  | Total energy evaluation                    :        0.000 s           0.000 s
------------------------------------------------------------

------------------------------------------------------------
          Begin self-consistency iteration #    1

  Date     :  20170309, Time     :  182928.330
------------------------------------------------------------
  Evaluating new KS density.
  Integration grid: deviation in total charge (<rho> - N_e) =  -1.421085E-14
  Pulay mixing of updated and previous charge densities.

  Evaluating partitioned Hartree potential by multipole expansion.
  | Analytical far-field extrapolation by fixed multipoles:
  | Hartree multipole sum: apparent total charge =  -0.429572E-04
  Summing up the Hartree potential.
  Time summed over all CPUs for potential: real work        9.494 s, elapsed        9.738 s
  | RMS charge density error from multipole expansion :   0.107320E-01

  Integrating Hamiltonian matrix: batch-based integration.
  Time summed over all CPUs for integration: real work       19.880 s, elapsed       20.694 s

  Updating Kohn-Sham eigenvalues, eigenvectors, occupation numbers, and Fermi level.
  Solving generalized eigenproblem
  Solving real symmetric generalised eigenvalue problem by standard ScaLAPACK.
  Using Cholesky factor for transformation
  Using 2-stage real ELPA solver
  K-Point:    1, Trafo times: 1-stage=     0.021 s, 2-stage=     0.020 s ==> Using 2-stage solver
  Determining occupation numbers for Kohn-Sham eigenstates.
  | Chemical potential (Fermi level) in eV                 : -.35860361E+01
  | Error in electron count due to remaining E_F inaccuracy: 0.00000000E+00
  | Maximum occupation number of highest empty state:  0.00E+00

  Writing Kohn-Sham eigenvalues.

  State    Occupation    Eigenvalue [Ha]    Eigenvalue [eV]
      1       2.00000         -18.635170         -507.08878
      2       2.00000         -18.617515         -506.60837
      3       2.00000         -18.597194         -506.05541
      4       2.00000         -13.997895         -380.90211
      5       2.00000         -13.991406         -380.72553
      6       2.00000         -13.974901         -380.27640
      7       2.00000         -10.062607         -273.81746
      8       2.00000         -10.058284         -273.69983
      9       2.00000         -10.038396         -273.15864
     10       2.00000          -9.969048         -271.27160
     11       2.00000          -9.964555         -271.14932
     12       2.00000          -9.889883         -269.11742
     13       2.00000          -9.845060         -267.89771
     14       2.00000          -9.839428         -267.74445
     15       2.00000          -9.837715         -267.69785
     16       2.00000          -0.975897          -26.55552
     17       2.00000          -0.962579          -26.19312
     18       2.00000          -0.943140          -25.66414
     19       2.00000          -0.872557          -23.74349
     20       2.00000          -0.867228          -23.59848
     21       2.00000          -0.852675          -23.20246
     22       2.00000          -0.747449          -20.33913
     23       2.00000          -0.716351          -19.49290
     24       2.00000          -0.689113          -18.75173
     25       2.00000          -0.675675          -18.38604
     26       2.00000          -0.637369          -17.34370
     27       2.00000          -0.618167          -16.82119
     28       2.00000          -0.574988          -15.64623
     29       2.00000          -0.558247          -15.19067
     30       2.00000          -0.550113          -14.96932
     31       2.00000          -0.517771          -14.08928
     32       2.00000          -0.488634          -13.29642
     33       2.00000          -0.472239          -12.85029
     34       2.00000          -0.462079          -12.57381
     35       2.00000          -0.440927          -11.99823
     36       2.00000          -0.435308          -11.84533
     37       2.00000          -0.432900          -11.77982
     38       2.00000          -0.422707          -11.50244
     39       2.00000          -0.413304          -11.24658
     40       2.00000          -0.402746          -10.95929
     41       2.00000          -0.396640          -10.79312
     42       2.00000          -0.386691          -10.52240
     43       2.00000          -0.382988          -10.42163
     44       2.00000          -0.380132          -10.34392
     45       2.00000          -0.378218          -10.29184
     46       2.00000          -0.370273          -10.07565
     47       2.00000          -0.365989           -9.95907
     48       2.00000          -0.355462           -9.67261
     49       2.00000          -0.352731           -9.59831
     50       2.00000          -0.344742           -9.38090
     51       2.00000          -0.332271           -9.04156
     52       2.00000          -0.327993           -8.92515
     53       2.00000          -0.245942           -6.69241
     54       2.00000          -0.237976           -6.47565
     55       2.00000          -0.230760           -6.27931
     56       2.00000          -0.222121           -6.04423
     57       2.00000          -0.210984           -5.74116
     58       2.00000          -0.195999           -5.33341
     59       0.00000          -0.056230           -1.53009
     60       0.00000          -0.049292           -1.34130
     61       0.00000          -0.038704           -1.05318
     62       0.00000          -0.035011           -0.95271
     63       0.00000          -0.020828           -0.56677
     64       0.00000          -0.009082           -0.24714
     65       0.00000          -0.007584           -0.20637
     66       0.00000          -0.002530           -0.06883
     67       0.00000           0.008548            0.23260
     68       0.00000           0.013052            0.35517
     69       0.00000           0.027720            0.75429
     70       0.00000           0.030553            0.83138
     71       0.00000           0.031589            0.85958
     72       0.00000           0.039457            1.07367
     73       0.00000           0.042239            1.14939
     74       0.00000           0.046652            1.26947
     75       0.00000           0.051176            1.39256
     76       0.00000           0.056405            1.53485
     77       0.00000           0.062733            1.70706
     78       0.00000           0.069618            1.89440
     79       0.00000           0.079144            2.15363
     80       0.00000           0.083354            2.26819
     81       0.00000           0.090166            2.45354
     82       0.00000           0.093005            2.53080
     83       0.00000           0.100586            2.73707
     84       0.00000           0.102741            2.79572
     85       0.00000           0.105947            2.88296
     86       0.00000           0.109846            2.98907
     87       0.00000           0.113521            3.08906
     88       0.00000           0.119443            3.25020
     89       0.00000           0.130214            3.54329
     90       0.00000           0.132604            3.60835
     91       0.00000           0.139236            3.78881
     92       0.00000           0.143049            3.89255
     93       0.00000           0.150860            4.10510
     94       0.00000           0.155105            4.22061
     95       0.00000           0.163462            4.44801
     96       0.00000           0.168486            4.58474
     97       0.00000           0.171624            4.67012
     98       0.00000           0.180262            4.90518
     99       0.00000           0.186308            5.06970
    100       0.00000           0.189808            5.16493
    101       0.00000           0.192982            5.25132
    102       0.00000           0.200544            5.45708
    103       0.00000           0.203790            5.54540
    104       0.00000           0.208109            5.66295
    105       0.00000           0.212183            5.77379
    106       0.00000           0.215068            5.85229
    107       0.00000           0.218047            5.93337
    108       0.00000           0.222006            6.04108
    109       0.00000           0.225864            6.14607
    110       0.00000           0.229727            6.25120
    111       0.00000           0.231858            6.30918
    112       0.00000           0.239165            6.50801
    113       0.00000           0.249224            6.78174
    114       0.00000           0.249838            6.79845
    115       0.00000           0.252863            6.88074
    116       0.00000           0.258019            7.02105
    117       0.00000           0.261177            7.10697
    118       0.00000           0.267006            7.26561
    119       0.00000           0.270296            7.35512
    120       0.00000           0.277077            7.53964
    121       0.00000           0.287132            7.81325
    122       0.00000           0.292695            7.96463
    123       0.00000           0.294748            8.02051
    124       0.00000           0.299484            8.14939
    125       0.00000           0.309801            8.43012
    126       0.00000           0.317363            8.63589
    127       0.00000           0.320560            8.72289
    128       0.00000           0.330949            9.00559
    129       0.00000           0.335770            9.13677

  Highest occupied state (VBM) at     -5.33341276 eV
  | Occupation number:      2.00000000

  Lowest unoccupied state (CBM) at    -1.53008967 eV
  | Occupation number:      0.00000000

  Overall HOMO-LUMO gap:      3.80332309 eV.

  Total energy components:
  | Sum of eigenvalues            :        -417.53427261 Ha      -11361.68563379 eV
  | XC energy correction          :        -100.75827873 Ha       -2741.77226411 eV
  | XC potential correction       :         129.53495078 Ha        3524.82535183 eV
  | Free-atom electrostatic energy:        -333.59292046 Ha       -9077.52522502 eV
  | Hartree energy correction     :         -20.36860132 Ha        -554.25784225 eV
  | MBD@rsSCS energy              :           0.00000000 Ha           0.00000000 eV
  | Entropy correction            :           0.00000000 Ha           0.00000000 eV
  | ---------------------------
  | Total energy                  :        -742.71912233 Ha      -20210.41561333 eV
  | Total energy, T -> 0          :        -742.71912233 Ha      -20210.41561333 eV  <-- do not rely on this value for anything but (periodic) metals
  | Electronic free energy        :        -742.71912233 Ha      -20210.41561333 eV

  Derived energy quantities:
  | Kinetic energy                :         744.06345160 Ha       20246.99667393 eV
  | Electrostatic energy          :       -1386.02429520 Ha      -37715.64002316 eV
  | Energy correction for multipole
  | error in Hartree potential    :          -0.04117282 Ha          -1.12036932 eV
  | Sum of eigenvalues per atom                           :        -355.05267606 eV
  | Total energy (T->0) per atom                          :        -631.57548792 eV  <-- do not rely on this value for anything but (periodic) metals
  | Electronic free energy per atom                       :        -631.57548792 eV

  Self-consistency convergence accuracy:
  | Change of charge density      :  0.9029E+00
  | Change of sum of eigenvalues  :  0.5542E+03 eV
  | Change of total energy        :  0.1557E+02 eV

  End self-consistency iteration #     1       :  max(cpu_time)    wall_clock(cpu1)
  | Time for this iteration                    :        1.464 s           1.464 s
[...]
   Multipole                     : -0.337999E+00 -0.550689E+00  0.163338E-01
   Pulay + GGA                   : -0.666744E+01 -0.114075E+02  0.125783E+00
   MBD@rsSCS                     : -0.985510E-02 -0.121883E-01  0.849946E-02
   ----------------------------------------------------------------
   Total forces(  20)            : -0.414241E-03 -0.561486E-02 -0.644303E-02
  atom #   21
   Hellmann-Feynman              : -0.198571E-01 -0.427161E-01 -0.377767E-01
   Ionic forces                  :  0.000000E+00  0.000000E+00  0.000000E+00
   Multipole                     : -0.106035E-01  0.865934E-02  0.409938E-01
   Pulay + GGA                   :  0.295208E-01  0.427658E-01 -0.334313E-02
   MBD@rsSCS                     : -0.920153E-03 -0.662600E-02  0.489403E-02
   ----------------------------------------------------------------
   Total forces(  21)            : -0.186007E-02  0.208296E-02  0.476804E-02
  atom #   22
   Hellmann-Feynman              : -0.219728E-01  0.670784E-01  0.451474E-01
   Ionic forces                  :  0.000000E+00  0.000000E+00  0.000000E+00
   Multipole                     : -0.108708E-01 -0.576150E-02 -0.255538E-01
   Pulay + GGA                   :  0.225927E-01 -0.618814E-01 -0.262485E-01
   MBD@rsSCS                     :  0.523675E-03  0.210242E-02 -0.390450E-03
   ----------------------------------------------------------------
   Total forces(  22)            : -0.972719E-02  0.153792E-02 -0.704538E-02
  atom #   23
   Hellmann-Feynman              : -0.104189E+01  0.186282E+00 -0.373834E-01
   Ionic forces                  :  0.000000E+00  0.000000E+00  0.000000E+00
   Multipole                     :  0.290552E+00 -0.676950E-01  0.113491E+00
   Pulay + GGA                   :  0.761897E+00 -0.119924E+00 -0.753872E-01
   MBD@rsSCS                     :  0.149486E-01  0.827348E-03  0.423279E-02
   ----------------------------------------------------------------
   Total forces(  23)            :  0.255088E-01 -0.509217E-03  0.495351E-02
  atom #   24
   Hellmann-Feynman              :  0.728986E-01 -0.993722E-02  0.714742E-02
   Ionic forces                  :  0.000000E+00  0.000000E+00  0.000000E+00
   Multipole                     : -0.151614E-01  0.130575E-01 -0.314108E-01
   Pulay + GGA                   : -0.502867E-01 -0.528687E-02  0.321018E-01
   MBD@rsSCS                     :  0.131175E-01 -0.251241E-03  0.782735E-02
   ----------------------------------------------------------------
   Total forces(  24)            :  0.205681E-01 -0.241785E-02  0.156657E-01
  atom #   25
   Hellmann-Feynman              :  0.253025E-01  0.204721E-01  0.341642E-01
   Ionic forces                  :  0.000000E+00  0.000000E+00  0.000000E+00
   Multipole                     : -0.131619E-01  0.224786E-01  0.124746E-01
   Pulay + GGA                   : -0.211447E-02 -0.458712E-01 -0.493489E-01
   MBD@rsSCS                     :  0.135282E-01 -0.165661E-02 -0.140231E-02
   ----------------------------------------------------------------
   Total forces(  25)            :  0.235543E-01 -0.457709E-02 -0.411244E-02
  atom #   26
   Hellmann-Feynman              :  0.336147E-01 -0.306759E-01  0.182634E-01
   Ionic forces                  :  0.000000E+00  0.000000E+00  0.000000E+00
   Multipole                     : -0.172248E-01 -0.239528E-01  0.369257E-03
   Pulay + GGA                   : -0.179175E-01  0.562915E-01 -0.196519E-01
   MBD@rsSCS                     :  0.121433E-01 -0.127607E-03  0.293657E-02
   ----------------------------------------------------------------
   Total forces(  26)            :  0.106157E-01  0.153522E-02  0.191730E-02
  atom #   27
   Hellmann-Feynman              : -0.339513E+00  0.275668E-01  0.100878E+01
   Ionic forces                  :  0.000000E+00  0.000000E+00  0.000000E+00
   Multipole                     : -0.201135E-01  0.213947E+00  0.130403E+00
   Pulay + GGA                   :  0.353674E+00 -0.245457E+00 -0.114131E+01
   MBD@rsSCS                     : -0.119338E-01  0.767855E-02  0.228332E-01
   ----------------------------------------------------------------
   Total forces(  27)            : -0.178864E-01  0.373512E-02  0.206990E-01
  atom #   28
   Hellmann-Feynman              :  0.138179E+01  0.678435E+00 -0.190716E+01
   Ionic forces                  :  0.000000E+00  0.000000E+00  0.000000E+00
   Multipole                     : -0.947783E-01 -0.397083E-01  0.153878E+00
   Pulay + GGA                   : -0.128019E+01 -0.635171E+00  0.174579E+01
   MBD@rsSCS                     : -0.163752E-02  0.528151E-02  0.645030E-02
   ----------------------------------------------------------------
   Total forces(  28)            :  0.518372E-02  0.883734E-02 -0.104093E-02
  atom #   29
   Hellmann-Feynman              :  0.120112E-01  0.336543E-01  0.151824E-01
   Ionic forces                  :  0.000000E+00  0.000000E+00  0.000000E+00
   Multipole                     :  0.215184E-01  0.172020E-01 -0.279938E-01
   Pulay + GGA                   : -0.369085E-01 -0.518660E-01  0.122211E-01
   MBD@rsSCS                     : -0.308733E-02  0.557591E-02  0.444987E-02
   ----------------------------------------------------------------
   Total forces(  29)            : -0.646617E-02  0.456615E-02  0.385964E-02
  atom #   30
   Hellmann-Feynman              : -0.201250E-02  0.443087E-02  0.505781E-01
   Ionic forces                  :  0.000000E+00  0.000000E+00  0.000000E+00
   Multipole                     :  0.343284E-01 -0.239595E-02  0.703919E-02
   Pulay + GGA                   : -0.329407E-01 -0.554146E-02 -0.595709E-01
   MBD@rsSCS                     : -0.211064E-02  0.143364E-03  0.676073E-02
   ----------------------------------------------------------------
   Total forces(  30)            : -0.273546E-02 -0.336318E-02  0.480708E-02
  atom #   31
   Hellmann-Feynman              : -0.306857E-01  0.205629E-01  0.350930E-01
   Ionic forces                  :  0.000000E+00  0.000000E+00  0.000000E+00
   Multipole                     : -0.158782E-01  0.237925E-01 -0.190468E-01
   Pulay + GGA                   :  0.452151E-01 -0.477345E-01 -0.182900E-01
   MBD@rsSCS                     : -0.397017E-02  0.119222E-02  0.562172E-02
   ----------------------------------------------------------------
   Total forces(  31)            : -0.531906E-02 -0.218682E-02  0.337793E-02
  atom #   32
   Hellmann-Feynman              : -0.369631E-01 -0.175291E-01  0.568288E-01
   Ionic forces                  :  0.000000E+00  0.000000E+00  0.000000E+00
   Multipole                     :  0.517288E-02 -0.288839E-01 -0.412164E-01
   Pulay + GGA                   :  0.329743E-01  0.493158E-01 -0.146349E-01
   MBD@rsSCS                     : -0.417780E-02 -0.262655E-02  0.491106E-02
   ----------------------------------------------------------------
   Total forces(  32)            : -0.299371E-02  0.276150E-03  0.588856E-02

  Removing unitary transformations (pure translations, rotations) from forces on atoms.
  Atomic forces before filtering:
  | Net force on center of mass :   0.204777E-03  0.168424E-03 -0.674945E-03 eV/A
  | Net torque on center of mass:   0.207405E-03  0.179171E-02  0.199183E-02 eV
  Atomic forces after filtering:
  | Net force on center of mass :  -0.174225E-17 -0.905969E-17 -0.139380E-17 eV/A
  | Net torque on center of mass:  -0.180704E-16  0.545799E-16 -0.256304E-16 eV

  Energy and forces in a compact form:
  | Total energy uncorrected      :         -0.202090302493631E+05 eV
  | Total energy corrected        :         -0.202090302493631E+05 eV  <-- do not rely on this value for anything but (periodic) metals
  | Electronic free energy        :         -0.202090302493631E+05 eV
  Total atomic forces (unitary forces cleaned) [eV/Ang]:
  |   1         -0.247271125920966E-01          0.217187426664908E-01         -0.175712455142258E-02
  |   2         -0.178445900325390E-01          0.128222675796494E-01         -0.126477187439875E-01
  |   3          0.564871032362207E-02         -0.242791540301107E-02         -0.228254596013731E-02
  |   4          0.223285949836414E-02         -0.319339647909527E-02          0.540308635929156E-02
  |   5         -0.556015542389131E-02          0.580480607715301E-02          0.643384211481754E-02
  |   6         -0.274492827505314E-01          0.216471092401760E-01          0.513279242117117E-02
  |   7          0.117858804381161E-01          0.214626571014381E-02         -0.221795640007472E-01
  |   8          0.176908038272204E-01         -0.975628073740338E-02         -0.125118744493601E-01
  |   9          0.223175531087758E-01          0.191243035760112E-02         -0.136494976967445E-01
  |  10          0.405690905478066E-02          0.936182954672421E-02         -0.323249133468000E-02
  |  11         -0.294644632105597E-02          0.242570747032926E-02          0.987321420699871E-03
  |  12          0.580097762004893E-03          0.319653378810839E-02         -0.378752834095790E-02
  |  13          0.679495054079780E-02         -0.241395191034257E-01         -0.311676497083346E-02
  |  14         -0.110085505524826E-01         -0.204398813725830E-01         -0.555355196928340E-02
  |  15         -0.397204151600799E-02         -0.395583795251061E-01         -0.252583940783550E-03
  |  16         -0.759488690885226E-02         -0.424114790990750E-02          0.670008442724503E-02
  |  17          0.455075537355796E-02          0.204990595428000E-01          0.234835594992908E-01
  |  18         -0.227952212229477E-02         -0.303888504762037E-02         -0.217125024487178E-02
  |  19         -0.103787802088549E-01          0.134820822596771E-02         -0.125116717298288E-01
  |  20         -0.384514265860187E-03         -0.563470935294449E-02         -0.642196642840804E-02
  |  21         -0.184284687622028E-02          0.207967215610932E-02          0.478463400967250E-02
  |  22         -0.975527248323910E-02          0.154806237985229E-02         -0.702686051873048E-02
  |  23          0.255090661624143E-01         -0.470278626803355E-03          0.495633815537092E-02
  |  24          0.205571926937056E-01         -0.236467853811356E-02          0.156647547812912E-01
  |  25          0.235488020586721E-01         -0.453499997822358E-02         -0.410993228475362E-02
  |  26          0.106375626912023E-01          0.157676593883792E-02          0.191568735925201E-02
  |  27         -0.178858336943804E-01          0.372247027383286E-02          0.207218719492382E-01
  |  28          0.519748401094281E-02          0.880671574481082E-02         -0.101314670626308E-02
  |  29         -0.648265104179079E-02          0.456325556235000E-02          0.388140298975460E-02
  |  30         -0.271524970930919E-02         -0.338429539242649E-02          0.483014196955558E-02
  |  31         -0.531865255076902E-02         -0.223243780851251E-02          0.341365899785253E-02
  |  32         -0.296223849400112E-02          0.236903014239402E-03          0.591689741728982E-02

  ------------------------------------ 
  Start decomposition of the XC Energy 
  ------------------------------------ 
  Hartree-Fock part   :          0.000000000 Ha              0.000000000 eV
  ------------------------------------ 
  X Energy            :        -96.988339800 Ha          -2639.187006319 eV
  C Energy GGA        :         -3.868844056 Ha           -105.276603165 eV
  Total XC Energy     :       -100.857183856 Ha          -2744.463609484 eV
  LDA X and C from self-consistent density 
  X Energy LDA        :        -88.004757450 Ha          -2394.731292792 eV
  C Energy LDA        :         -7.531927647 Ha           -204.954179241 eV
  ------------------------------------ 
  End decomposition of the XC Energy 
  ------------------------------------ 
   
  ESP charge fitting starts.
  | Calculation :  00000001  of  00000001
  | Full density
  Computing multipole expansion for total density.
  Generating points for esp charges.
  Partitioning the integration grid into batches with parallel hashing+maxmin method.
  | Number of batches:     3883
  | Maximal batch size:     200
  | Minimal batch size:      54
  | Average batch size:     125.439
  | Standard deviation of batch sizes:      17.137

  Integration load balanced across    32 MPI tasks.
  Work distribution over tasks is as follows:
  Initializing partition tables, free-atom densities, potentials, etc. across the integration grid (initialize_grid_storage).
  | Original list of interatomic distances with          32 x         32 entries is created.
  | Net number of integration points:   487080
  | of which are non-zero points    :   487080
  Summing up potential from multipole expanded  density.
  Summing up the Hartree potential.
  Time summed over all CPUs for potential: real work        6.297 s, elapsed        6.485 s
  Fitting esp charges to potential.
  |
  | ESP charges fitted to the electrostatic potential :
  |
  | Atom         1: C, ESP charge:      0.44226924
  |
  | Atom         2: C, ESP charge:     -0.82235117
  |
  | Atom         3: O, ESP charge:      0.59392119
  |
  | Atom         4: H, ESP charge:     -0.12019193
  |
  | Atom         5: H, ESP charge:     -0.10905770
  |
  | Atom         6: H, ESP charge:     -0.15086751
  |
  | Atom         7: N, ESP charge:      0.73690734
  |
  | Atom         8: C, ESP charge:     -0.33209574
  |
  | Atom         9: C, ESP charge:     -0.20947098
  |
  | Atom        10: O, ESP charge:      0.44781852
  |
  | Atom        11: H, ESP charge:     -0.34523801
  |
  | Atom        12: H, ESP charge:     -0.13429744
  |
  | Atom        13: C, ESP charge:      0.72617188
  |
  | Atom        14: H, ESP charge:     -0.18680837
  |
  | Atom        15: H, ESP charge:     -0.22599055
  |
  | Atom        16: H, ESP charge:     -0.20789863
  |
  | Atom        17: N, ESP charge:      0.48525402
  |
  | Atom        18: C, ESP charge:     -0.67327825
  |
  | Atom        19: C, ESP charge:     -0.21948479
  |
  | Atom        20: O, ESP charge:      0.43930680
  |
  | Atom        21: H, ESP charge:     -0.21118125
  |
  | Atom        22: H, ESP charge:      0.08111057
  |
  | Atom        23: C, ESP charge:      0.43397293
  |
  | Atom        24: H, ESP charge:     -0.13475563
  |
  | Atom        25: H, ESP charge:     -0.06594223
  |
  | Atom        26: H, ESP charge:     -0.11359336
  |
  | Atom        27: N, ESP charge:      0.23431553
  |
  | Atom        28: C, ESP charge:      0.29593962
  |
  | Atom        29: H, ESP charge:     -0.25619763
  |
  | Atom        30: H, ESP charge:     -0.12244704
  |
  | Atom        31: H, ESP charge:     -0.11902641
  |
  | Atom        32: H, ESP charge:     -0.15681302

  RRMS:       0.00307324

  Done.

------------------------------------------------------------------------------
  Final output of selected total energy values:

  The following output summarizes some interesting total energy values
  at the end of a run (AFTER all relaxation, molecular dynamics, etc.).

  | Total energy of the DFT / Hartree-Fock s.c.f. calculation      :         -20209.030249363 eV
  | Final zero-broadening corrected energy (caution - metals only) :         -20209.030249363 eV
  | For reference only, the value of 1 Hartree used in FHI-aims is :             27.211384500 eV

  Before relying on these values, please be sure to understand exactly which
  total energy value is referred to by a given number. Different objects may
  all carry the same name 'total energy'. Definitions:

  Total energy of the DFT / Hartree-Fock s.c.f. calculation:
  | Note that this energy does not include ANY quantities calculated after the
  | s.c.f. cycle, in particular not ANY RPA, MP2, etc. many-body perturbation terms.

  Final zero-broadening corrected energy:
  | For metallic systems only, a broadening of the occupation numbers at the Fermi
  | level can be extrapolated back to zero broadening by an electron-gas inspired
  | formula. For all systems that are not real metals, this value can be
  | meaningless and should be avoided.

------------------------------------------------------------------------------
  Methods described in the following list of references were used in this FHI-aims run.
  If you publish the results, please make sure to cite these reference if they apply.
  FHI-aims is an academic code, and for our developers (often, Ph.D. students
  and postdocs), scientific credit in the community is essential.
  Thank you for helping us!

  For any use of FHI-aims, please cite:

    Volker Blum, Ralf Gehrke, Felix Hanke, Paula Havu, Ville Havu,
    Xinguo Ren, Karsten Reuter, and Matthias Scheffler
    'Ab initio molecular simulations with numeric atom-centered orbitals'
    Computer Physics Communications 180, 2175-2196 (2009)
    http://dx.doi.org/10.1016/j.cpc.2009.06.022


  The scalable eigensolver library ELPA was used in your run.
  ELPA is essential especially for large systems on hundreds or thousands of CPUs.
  For ELPA, please cite:

    Andreas Marek, Volker Blum, Rainer Johanni, Ville Havu, Bruno Lang,
    Thomas Auckenthaler, Alexander Heinecke, Hans-Joachim Bungartz, and Hermann Lederer,
    'The ELPA Library - Scalable Parallel Eigenvalue Solutions
    for Electronic Structure Theory and Computational Science'
    The Journal of Physics: Condensed Matter 26, 213201 (2014).
    http://dx.doi.org/10.1088/0953-8984/26/21/213201


  For ELPA's efficient two-stage tridiagonalization used in your run, please cite:

    T. Auckenthaler, V. Blum, H.-J. Bungartz, T. Huckle, R. Johanni, L. Kraemer,
    B. Lang, H. Lederer, and P. R. Willems,
    'Parallel solution of partial symmetric eigenvalue problems'
    'from  electronic structure calculations'
    Parallel Computing 37, 783-794 (2011).
    http://dx.doi.org/10.1016/j.parco.2011.05.002


  For the real-space grid partitioning and parallelization used in this calculation, please cite:

    Ville Havu, Volker Blum, Paula Havu, and Matthias Scheffler,
    'Efficient O(N) integration for all-electron electronic structure calculation'
    'using numerically tabulated basis functions'
    Journal of Computational Physics 228, 8367-8379 (2009).
    http://dx.doi.org/10.1016/j.jcp.2009.08.008

  Of course, there are many other important community references, e.g., those cited in the
  above references. Our list is limited to references that describe implementations in the
  FHI-aims code. The reason is purely practical (length of this list) - please credit others as well.

------------------------------------------------------------
          Leaving FHI-aims.
          Date     :  20170309, Time     :  182957.909

          Computational steps:
          | Number of self-consistency cycles          :           14

          Detailed time accounting                     :  max(cpu_time)    wall_clock(cpu1)
          | Total time                                 :       32.234 s          32.409 s
          | Preparation time                           :        0.236 s           0.236 s
          | Grid partitioning                          :        0.316 s           0.308 s
          | Preloading free-atom quantities on grid    :        0.028 s           0.027 s
          | Free-atom superposition energy             :        0.040 s           0.038 s
          | Total time for integrations                :       10.345 s          10.334 s
          | Total time for solution of K.-S. equations :        0.532 s           0.499 s
          | Total time for density & force components  :        9.277 s           9.265 s
          | Total time for mixing                      :        0.128 s           0.103 s
          | Total time for Hartree multipole update    :        0.076 s           0.057 s
          | Total time for Hartree multipole sum       :        6.392 s           6.365 s
          | Total time for total energy evaluation     :        0.028 s           0.022 s

          Have a nice day.
------------------------------------------------------------
