  MPI-parallelism will be employed.
------------------------------------------------------------
          Invoking FHI-aims ...
          Version 171221_1
          Compiled on 2018/04/06 at 11:04:11 on host draco01.

          When using FHI-aims, please cite the following reference:

          Volker Blum, Ralf Gehrke, Felix Hanke, Paula Havu,
          Ville Havu, Xinguo Ren, Karsten Reuter, and Matthias Scheffler,
          'Ab Initio Molecular Simulations with Numeric Atom-Centered Orbitals',
          Computer Physics Communications 180, 2175-2196 (2009)

          For any questions about FHI-aims, please visit the aimsclub website
          with its forums and wiki. Contributions to both the forums and the
          wiki are warmly encouraged - they are for you, and everyone is welcome there.

------------------------------------------------------------



  Date     :  20180917, Time     :  130537.746
  Time zero on CPU 1             :   0.553760000000000E-01  s.
  Internal wall clock time zero  :           306421537.746  s.

  FHI-aims created a unique identifier for this run for later identification
  aims_uuid : 8E9787B6-CB7A-4F5F-A0A3-9AF4960E4C48

  Using       64 parallel tasks.
  Task        0 on host dra0277 reporting.
  Task        1 on host dra0277 reporting.
  Task        2 on host dra0277 reporting.
  Task        3 on host dra0277 reporting.
  Task        4 on host dra0277 reporting.
  Task        5 on host dra0277 reporting.
  Task        6 on host dra0277 reporting.
  Task        7 on host dra0277 reporting.
  Task        8 on host dra0277 reporting.
  Task        9 on host dra0277 reporting.
  Task       10 on host dra0277 reporting.
  Task       11 on host dra0277 reporting.
  Task       12 on host dra0277 reporting.
  Task       13 on host dra0277 reporting.
  Task       14 on host dra0277 reporting.
  Task       15 on host dra0277 reporting.
  Task       16 on host dra0277 reporting.
  Task       17 on host dra0277 reporting.
  Task       18 on host dra0277 reporting.
  Task       19 on host dra0277 reporting.
  Task       20 on host dra0277 reporting.
  Task       21 on host dra0277 reporting.
  Task       22 on host dra0277 reporting.
  Task       23 on host dra0277 reporting.
  Task       24 on host dra0277 reporting.
  Task       25 on host dra0277 reporting.
  Task       26 on host dra0277 reporting.
  Task       27 on host dra0277 reporting.
  Task       28 on host dra0277 reporting.
  Task       29 on host dra0277 reporting.
  Task       30 on host dra0277 reporting.
  Task       31 on host dra0277 reporting.
  Task       32 on host dra0278 reporting.
  Task       33 on host dra0278 reporting.
  Task       34 on host dra0278 reporting.
  Task       35 on host dra0278 reporting.
  Task       36 on host dra0278 reporting.
  Task       37 on host dra0278 reporting.
  Task       38 on host dra0278 reporting.
  Task       39 on host dra0278 reporting.
  Task       40 on host dra0278 reporting.
  Task       41 on host dra0278 reporting.
  Task       42 on host dra0278 reporting.
  Task       43 on host dra0278 reporting.
  Task       44 on host dra0278 reporting.
  Task       45 on host dra0278 reporting.
  Task       46 on host dra0278 reporting.
  Task       47 on host dra0278 reporting.
  Task       48 on host dra0278 reporting.
  Task       49 on host dra0278 reporting.
  Task       50 on host dra0278 reporting.
  Task       51 on host dra0278 reporting.
  Task       52 on host dra0278 reporting.
  Task       53 on host dra0278 reporting.
  Task       54 on host dra0278 reporting.
  Task       55 on host dra0278 reporting.
  Task       56 on host dra0278 reporting.
  Task       57 on host dra0278 reporting.
  Task       58 on host dra0278 reporting.
  Task       59 on host dra0278 reporting.
  Task       60 on host dra0278 reporting.
  Task       61 on host dra0278 reporting.
  Task       62 on host dra0278 reporting.
  Task       63 on host dra0278 reporting.

  Performing system and environment tests:
  | Environment variable OMP_NUM_THREADS correctly set to 1.
  | Stacksize not measured: no C compiler
  | Checking for scalapack...
  | Testing pdtran()...
  | All pdtran() tests passed.

  Obtaining array dimensions for all initial allocations:
  
  -----------------------------------------------------------------------
  Parsing control.in (first pass over file, find array dimensions only).
  The contents of control.in will be repeated verbatim below
  unless switched off by setting 'verbatim_writeout .false.' .
  in the first line of control.in .
  -----------------------------------------------------------------------
  
   xc     pbe
  # RI_method LVL_fast
   charge  1.0
   vdw_correction_hirshfeld
  #many_body_dispersion
  #mbd_eigensolver lapack
   spin none
  # spin collinear
  # default_initial_moment 0.0
  #default_initial_moment hund
   charge_mix_param 0.5
   preconditioner kerker 1.5
   mixer pulay
   n_max_pulay 10
   relativistic atomic_zora scalar
  
    KS_method          parallel
    basis_threshold    1.e-5
  #  empty_states 8
    occupation_type gaussian 0.05
    check_cpu_consistency .false.
  
  #partition_type rho_r2
  # relax_geometry bfgs 0.005
  # relax_unit_cell full
  # relax_unit_cell fixed_angles
    sc_accuracy_forces 1E-4
    sc_iter_limit      1000
    sc_accuracy_rho    1E-4
    sc_accuracy_eev    1E-2
    sc_accuracy_etot   1E-5
  
  # k_grid 6 6 1
  #####  Output options #############
  #  output mulliken
    output esp
    output hirshfeld
  
  #  output esp
  #  esp radius 1.4 2.0
  #  esp equal_grid_n 35 35 35
  #  esp output_cube 6
  ################################################################################
  #
  #  FHI-aims code project
  # Volker Blum, Fritz Haber Institute Berlin, 2009
  #
  #  Suggested "tight" defaults for H atom (to be pasted into control.in file)
  #
  ################################################################################
    species        H
  #     global species definitions
      nucleus             1
      mass                1.00794
  #
      l_hartree           6
  #
      cut_pot             4.0  2.0  1.0
      basis_dep_cutoff    1e-4
  #
      radial_base         24 7.0
      radial_multiplier   2
      angular_grids       specified
        division   0.1930   50
        division   0.3175  110
        division   0.4293  194
        division   0.5066  302
        division   0.5626  434
  #      division   0.5922  590
  #      division   0.6227  974
  #      division   0.6868 1202
  #      outer_grid  770
        outer_grid  434
  ################################################################################
  #
  #  Definition of "minimal" basis
  #
  ################################################################################
  #     valence basis states
      valence      1  s   1.
  #     ion occupancy
      ion_occ      1  s   0.5
  ################################################################################
  #
  #  Suggested additional basis functions. For production calculations,
  #  uncomment them one after another (the most important basis functions are
  #  listed first).
  #
  #  Basis constructed for dimers: 0.5 A, 0.7 A, 1.0 A, 1.5 A, 2.5 A
  #
  ################################################################################
  #  "First tier" - improvements: -1014.90 meV to -62.69 meV
       hydro 2 s 2.1
       hydro 2 p 3.5
  #  "Second tier" - improvements: -12.89 meV to -1.83 meV
       hydro 1 s 0.85
       hydro 2 p 3.7
       hydro 2 s 1.2
       hydro 3 d 7
  #  "Third tier" - improvements: -0.25 meV to -0.12 meV
  #     hydro 4 f 11.2
  #     hydro 3 p 4.8
  #     hydro 4 d 9
  #     hydro 3 s 3.2
  ################################################################################
  #
  # For methods that use the localized form of the "resolution of identity" for
  # the two-electron Coulomb operator (RI_method LVL), particularly Hartree-Fock and
  # hybrid density functional calculations, the highest accuracy can be obtained by
  # uncommenting the line beginning with "for_aux"  below, thus adding an extra g radial
  # function to the construction of the product basis set for the expansion.
  # See Ref. New J. Phys. 17, 093020 (2015) for more information, particularly Figs. 1 and 6.
  #
  ################################################################################
  #
  # for_aux hydro 5 g 6.0
  ################################################################################
  #
  #  FHI-aims code project
  # Volker Blum, Fritz Haber Institute Berlin, 2009
  #
  #  Suggested "tight" defaults for C atom (to be pasted into control.in file)
  #
  ################################################################################
    species        C
  #     global species definitions
      nucleus             6
      mass                12.0107
  #
      l_hartree           6
  #
      cut_pot             4.0  2.0  1.0
      basis_dep_cutoff    1e-4
  #
      radial_base         34 7.0
      radial_multiplier   2
      angular_grids specified
        division   0.2187   50
        division   0.4416  110
        division   0.6335  194
        division   0.7727  302
        division   0.8772  434
  #      division   0.9334  590
  #      division   0.9924  770
  #      division   1.0230  974
  #      division   1.5020 1202
  #     outer_grid  974
        outer_grid  434
  ################################################################################
  #
  #  Definition of "minimal" basis
  #
  ################################################################################
  #     valence basis states
      valence      2  s   2.
      valence      2  p   2.
  #     ion occupancy
      ion_occ      2  s   1.
      ion_occ      2  p   1.
  ################################################################################
  #
  #  Suggested additional basis functions. For production calculations,
  #  uncomment them one after another (the most important basis functions are
  #  listed first).
  #
  #  Constructed for dimers: 1.0 A, 1.25 A, 1.5 A, 2.0 A, 3.0 A
  #
  ################################################################################
  #  "First tier" - improvements: -1214.57 meV to -155.61 meV
       hydro 2 p 1.7
       hydro 3 d 6
       hydro 2 s 4.9
  #  "Second tier" - improvements: -67.75 meV to -5.23 meV
       hydro 4 f 9.8
       hydro 3 p 5.2
       hydro 3 s 4.3
       hydro 5 g 14.4
       hydro 3 d 6.2
  #  "Third tier" - improvements: -2.43 meV to -0.60 meV
  #     hydro 2 p 5.6
  #     hydro 2 s 1.4
  #     hydro 3 d 4.9
  #     hydro 4 f 11.2
  #  "Fourth tier" - improvements: -0.39 meV to -0.18 meV
  #     hydro 2 p 2.1
  #     hydro 5 g 16.4
  #     hydro 4 d 13.2
  #     hydro 3 s 13.6
  #     hydro 4 f 17.6
  #  Further basis functions - improvements: -0.08 meV and below
  #     hydro 3 s 2
  #     hydro 3 p 6
  #     hydro 4 d 20
  ################################################################################
  #
  # For methods that use the localized form of the "resolution of identity" for
  # the two-electron Coulomb operator (RI_method LVL), particularly Hartree-Fock and
  # hybrid density functional calculations, the highest accuracy can be obtained by
  # uncommenting the line beginning with "for_aux"  below, thus adding an extra g radial
  # function to the construction of the product basis set for the expansion.
  # See Ref. New J. Phys. 17, 093020 (2015) for more information, particularly Figs. 1 and 6.
  #
  ################################################################################
  #
  # for_aux hydro 5 g 6.0
  ################################################################################
  #
  #  FHI-aims code project
  # Volker Blum, Fritz Haber Institute Berlin, 2009
  #
  #  Suggested "tight" defaults for O atom (to be pasted into control.in file)
  #
  ################################################################################
    species        O
  #     global species definitions
      nucleus             8
      mass                15.9994
  #
      l_hartree           6
  #
      cut_pot             4.0  2.0  1.0
      basis_dep_cutoff    1e-4
  #
      radial_base         36 7.0
      radial_multiplier   2
       angular_grids specified
        division   0.1817   50
        division   0.3417  110
        division   0.4949  194
        division   0.6251  302
        division   0.8014  434
  #      division   0.8507  590
  #      division   0.8762  770
  #      division   0.9023  974
  #      division   1.2339 1202
  #      outer_grid 974
        outer_grid  434
  ################################################################################
  #
  #  Definition of "minimal" basis
  #
  ################################################################################
  #     valence basis states
      valence      2  s   2.
      valence      2  p   4.
  #     ion occupancy
      ion_occ      2  s   1.
      ion_occ      2  p   3.
  ################################################################################
  #
  #  Suggested additional basis functions. For production calculations,
  #  uncomment them one after another (the most important basis functions are
  #  listed first).
  #
  #  Constructed for dimers: 1.0 A, 1.208 A, 1.5 A, 2.0 A, 3.0 A
  #
  ################################################################################
  #  "First tier" - improvements: -699.05 meV to -159.38 meV
       hydro 2 p 1.8
       hydro 3 d 7.6
       hydro 3 s 6.4
  #  "Second tier" - improvements: -49.91 meV to -5.39 meV
       hydro 4 f 11.6
       hydro 3 p 6.2
       hydro 3 d 5.6
       hydro 5 g 17.6
       hydro 1 s 0.75
  #  "Third tier" - improvements: -2.83 meV to -0.50 meV
  #     ionic 2 p auto
  #     hydro 4 f 10.8
  #     hydro 4 d 4.7
  #     hydro 2 s 6.8
  #  "Fourth tier" - improvements: -0.40 meV to -0.12 meV
  #     hydro 3 p 5
  #     hydro 3 s 3.3
  #     hydro 5 g 15.6
  #     hydro 4 f 17.6
  #     hydro 4 d 14
  # Further basis functions - -0.08 meV and below
  #     hydro 3 s 2.1
  #     hydro 4 d 11.6
  #     hydro 3 p 16
  #     hydro 2 s 17.2
  ################################################################################
  #
  # For methods that use the localized form of the "resolution of identity" for
  # the two-electron Coulomb operator (RI_method LVL), particularly Hartree-Fock and
  # hybrid density functional calculations, the highest accuracy can be obtained by
  # uncommenting the line beginning with "for_aux"  below, thus adding an extra g radial
  # function to the construction of the product basis set for the expansion.
  # See Ref. New J. Phys. 17, 093020 (2015) for more information, particularly Figs. 1 and 6.
  #
  ################################################################################
  #
  # for_aux hydro 5 g 6.0
  ################################################################################
  #
  #  FHI-aims code project
  # Volker Blum, Fritz Haber Institute Berlin, 2009
  #
  #  Suggested "tight" defaults for N atom (to be pasted into control.in file)
  #
  ################################################################################
    species        N
  #     global species definitions
      nucleus             7
      mass                14.0067
  #
      l_hartree           6
  #
      cut_pot             4.0  2.0  1.0
      basis_dep_cutoff    1e-4
  #
      radial_base         35 7.0
      radial_multiplier   2
      angular_grids       specified
        division   0.1841   50
        division   0.3514  110
        division   0.5126  194
        division   0.6292  302
        division   0.6939  434
  #      division   0.7396  590
  #      division   0.7632  770
  #      division   0.8122  974
  #      division   1.1604 1202
  #      outer_grid  974
        outer_grid  434
  ################################################################################
  #
  #  Definition of "minimal" basis
  #
  ################################################################################
  #     valence basis states
      valence      2  s   2.
      valence      2  p   3.
  #     ion occupancy
      ion_occ      2  s   1.
      ion_occ      2  p   2.
  ################################################################################
  #
  #  Suggested additional basis functions. For production calculations,
  #  uncomment them one after another (the most important basis functions are
  #  listed first).
  #
  #  Constructed for dimers: 1.0 A, 1.1 A, 1.5 A, 2.0 A, 3.0 A
  #
  ################################################################################
  #  "First tier" - improvements: -1193.42 meV to -220.60 meV
       hydro 2 p 1.8
       hydro 3 d 6.8
       hydro 3 s 5.8
  #  "Second tier" - improvements: -80.21 meV to -6.86 meV
       hydro 4 f 10.8
       hydro 3 p 5.8
       hydro 1 s 0.8
       hydro 5 g 16
       hydro 3 d 4.9
  #  "Third tier" - improvements: -4.29 meV to -0.53 meV
  #     hydro 3 s 16
  #     ionic 2 p auto
  #     hydro 3 d 6.6
  #     hydro 4 f 11.6
  #  "Fourth tier" - improvements: -0.75 meV to -0.25 meV
  #     hydro 2 p 4.5
  #     hydro 2 s 2.4
  #     hydro 5 g 14.4
  #     hydro 4 d 14.4
  #     hydro 4 f 16.8
  # Further basis functions - -0.21 meV and below
  #     hydro 3 p 14.8
  #     hydro 3 s 4.4
  #     hydro 3 d 19.6
  #     hydro 5 g 12.8
  ################################################################################
  #
  # For methods that use the localized form of the "resolution of identity" for
  # the two-electron Coulomb operator (RI_method LVL), particularly Hartree-Fock and
  # hybrid density functional calculations, the highest accuracy can be obtained by
  # uncommenting the line beginning with "for_aux"  below, thus adding an extra g radial
  # function to the construction of the product basis set for the expansion.
  # See Ref. New J. Phys. 17, 093020 (2015) for more information, particularly Figs. 1 and 6.
  #
  ################################################################################
  #
  # for_aux hydro 5 g 6.0
  ################################################################################
  #
  #  FHI-aims code project
  # Volker Blum, Fritz Haber Institute Berlin, 2009
  #
  #  Suggested "tight" defaults for S atom (to be pasted into control.in file)
  #
  #  Revised Jan 04, 2011, following tests (SiC) done by Lydia Nemec:
  #     d and g functions of tier 2 now enabled by default.
  #
  ################################################################################
    species        S
  #     global species definitions
      nucleus             16
      mass                32.065
  #
      l_hartree           6
  #
      cut_pot             4.0          2.0  1.0
      basis_dep_cutoff    1e-4
  #
      radial_base         44 7.0
      radial_multiplier   2
      angular_grids       specified
        division   0.4665  110
        division   0.5810  194
        division   0.7139  302
        division   0.8274  434
  #      division   0.9105  590
  #      division   1.0975  770
  #      division   1.2028  974
  #      outer_grid  974
        outer_grid  434
  ################################################################################
  #
  #  Definition of "minimal" basis
  #
  ################################################################################
  #     valence basis states
      valence      3  s   2.
      valence      3  p   4.
  #     ion occupancy
      ion_occ      3  s   1.
      ion_occ      3  p   3.
  ################################################################################
  #
  #  Suggested additional basis functions. For production calculations,
  #  uncomment them one after another (the most important basis functions are
  #  listed first).
  #
  #  Constructed for dimers: 1.6 A, 1.9 A, 2.5 A, 3.25 A, 4.0 A
  #
  ################################################################################
  #  "First tier" - improvements: -652.81 meV to -45.53 meV
       ionic 3 d auto
       hydro 2 p 1.8
       hydro 4 f 7
       ionic 3 s auto
  #  "Second tier" - improvements: -30.20 meV to -1.74 meV
       hydro 4 d 6.2
       hydro 5 g 10.8
  #     hydro 4 p 4.9
  #     hydro 5 f 10
  #     hydro 1 s 0.8
  #  "Third tier" - improvements: -1.04 meV to -0.20 meV
  #     hydro 3 d 3.9
  #     hydro 3 d 2.7
  #     hydro 5 g 12
  #     hydro 4 p 10.4
  #     hydro 5 f 12.4
  #     hydro 2 s 1.9
  #  "Fourth tier" - improvements: -0.35 meV to -0.06 meV
  #     hydro 4 d 10.4
  #     hydro 4 p 7.2
  #     hydro 4 d 10
  #     hydro 5 g 19.2
  #     hydro 4 s 12
  
  ################################################################################
  #
  # For methods that use the localized form of the "resolution of identity" for
  # the two-electron Coulomb operator (RI_method LVL), particularly Hartree-Fock and
  # hybrid density functional calculations, the highest accuracy can be obtained by
  # uncommenting the line beginning with "for_aux"  below, thus adding an extra g radial
  # function to the construction of the product basis set for the expansion.
  # See Ref. New J. Phys. 17, 093020 (2015) for more information, particularly Figs. 1 and 6.
  #
  ################################################################################
  #
  # for_aux hydro 5 g 6.0
  ################################################################################
  #
  #  FHI-aims code project
  # Volker Blum, Fritz Haber Institute Berlin, 2010
  #
  #  Suggested "tight" defaults for Zn atom (to be pasted into control.in file)
  #
  ################################################################################
    species        Zn
  #     global species definitions
      nucleus             30
      mass                65.409
  #
      l_hartree           6
  #
      cut_pot             4.0          2.0  1.0
      basis_dep_cutoff    1e-4
  #
      radial_base         53 7.0
      radial_multiplier   2
      angular_grids       specified
        division   0.4348   50
        division   0.7981  110
        division   1.1328  194
        division   1.3947  302
        division   1.6856  434
  #      division   1.8921  590
  #      division   2.0877  770
  #      division   2.1730  974
  #      division   2.5659 1202
        outer_grid  434
  ################################################################################
  #
  #  Definition of "minimal" basis
  #
  ################################################################################
  #     valence basis states
      valence      4  s   2.
      valence      3  p   6.
      valence      3  d  10.
  #     ion occupancy
      ion_occ      4  s   1.
      ion_occ      3  p   6.
      ion_occ      3  d   9.
  ################################################################################
  #
  #  Suggested additional basis functions. For production calculations,
  #  uncomment them one after another (the most important basis functions are
  #  listed first).
  #
  #  Constructed for dimers: 2.00 A, 2.30 A, 2.85 A, 3.50 A, 4.25 A
  #
  ################################################################################
  #  "First tier" - improvements: -270.82 meV to -12.81 meV
       hydro 2 p 1.7
       hydro 3 s 2.9
       hydro 4 p 5.4
       hydro 4 f 7.8
       hydro 3 d 4.5
  #  "Second tier" - improvements: -3.35 meV to -0.82 meV
  #     hydro 5 g 10.8
  #     hydro 2 p 2.4
  #     hydro 3 s 6.2
  #     hydro 3 d 3
  #  "Third tier" - improvements: -0.61 meV to -0.12 meV
  #     hydro 6 h 15.2
  #     ionic 4 p auto
  #     hydro 5 s 12.8
  #     hydro 4 f 5.4
  #     hydro 4 d 7
  #  Further functions - improvements: -0.16 meV and below
  #     hydro 4 f 20
  #     hydro 3 p 2.2
  #     hydro 5 f 6.4
  #     hydro 5 g 8
  
  -----------------------------------------------------------------------
  Completed first pass over input file control.in .
  -----------------------------------------------------------------------
  
  
  -----------------------------------------------------------------------
  Parsing geometry.in (first pass over file, find array dimensions only).
  The contents of geometry.in will be repeated verbatim below
  unless switched off by setting 'verbatim_writeout .false.' .
  in the first line of geometry.in .
  -----------------------------------------------------------------------
  
  atom  4.3922       2.9594       3.8957       C
  atom  5.2478       2.2923       4.0613       H
  atom  4.7813       3.8828       3.4487       H
  atom  3.923        3.1924       4.8575       H
  atom  3.4568       2.3053       2.9268       C
  atom  3.7883       1.9771       1.7721       O
  atom  2.1809       2.0388       3.3182       N
  atom  1.835        2.2648       4.2441       H
  atom  1.3183       1.4662       2.3047       C
  atom  1.0433       2.2545       1.5773       H
  atom  0.0297       0.8628       2.8913       C
  atom  0.2645       -0.0335      3.4778       H
  atom  -0.4541      1.6069       3.5386       H
  atom  -1.3011      0.4369       1.6564       S
  atom  2.1666       0.3842       1.5842       C
  atom  2.5945       -0.6135      2.094        O
  atom  2.0816       0.4714       0.0704       N
  atom  2.2911       1.4444       -0.1844      H
  atom  3.0285       -0.4456      -0.6264      C
  atom  2.8494       -1.4718      -0.2949      H
  atom  2.8733       -0.3624      -1.706       H
  atom  4.0551       -0.1608      -0.3695      H
  atom  0.1066       0.1919       0.0679       Zn
  
  -----------------------------------------------------------------------
  Completed first pass over input file geometry.in .
  -----------------------------------------------------------------------
  

  Basic array size parameters:
  | Number of species                 :        6
  | Number of atoms                   :       23
  | Max. basis fn. angular momentum   :        4
  | Max. atomic/ionic basis occupied n:        4
  | Max. number of basis fn. types    :        3
  | Max. radial fns per species/type  :        8
  | Max. logarithmic grid size        :     1409
  | Max. radial integration grid size :      107
  | Max. angular integration grid size:      434
  | Max. angular grid division number :        8
  | Radial grid for Hartree potential :     1409
  | Number of spin channels           :        1

------------------------------------------------------------
          Reading file control.in.
------------------------------------------------------------
  XC: Using PBE gradient-corrected functionals.
  Charged system requested: Charge =   0.100000E+01.
  Spin treatment: No spin polarisation.
  Charge density mixing - mixing parameter:     0.5000
  Using Kerker preconditioning with damping at q_0 =     0.1500E+01
  Using pulay charge density mixing.
  Pulay mixing - number of memorized iterations:   10
  Scalar relativistic treatment of kinetic energy: on-site free-atom approximation to ZORA.
  Kohn-Sham electronic structure solved by the ELSI library.
  Threshold for basis singularities:  0.1000E-04
  Occupation type: Gaussian broadening, width =   0.500000E-01 eV.
  Consistency of geometry between different MPI tasks will NOT be checked.
  Convergence accuracy of forces:  0.1000E-03
  Maximum number of s.-c. iterations  :  1000
  Convergence accuracy of self-consistent charge density:  0.1000E-03
  Convergence accuracy of sum of eigenvalues:  0.1000E-01
  Convergence accuracy of total energy:  0.1000E-04
  Fitting ESP-charges to Potential. 
  | Esp charge output options: 
  |
  Hirshfeld charge analysis will be performed.
 
  Reading configuration options for species H                   .
  | Found nuclear charge :   1.0000
  | Found atomic mass :    1.00794000000000      amu
  | Found l_max for Hartree potential  :   6
  | Found cutoff potl. onset [A], width [A], scale factor :    4.00000    2.00000    1.00000
  | Threshold for basis-dependent cutoff potential is   0.100000E-03
  | Found data for basic radial integration grid :    24 points, outermost radius =    7.000 A
  | Found multiplier for basic radial grid :   2
  | Found angular grid specification: user-specified.
  | Specified grid contains     6 separate shells.
  | Check grid settings after all constraints further below.
  | Found free-atom valence shell :  1 s   1.000
  | Found free-ion valence shell :  1 s   0.500
  | Found hydrogenic basis function :  2 s   2.100
  | Found hydrogenic basis function :  2 p   3.500
  | Found hydrogenic basis function :  1 s   0.850
  | Found hydrogenic basis function :  2 p   3.700
  | Found hydrogenic basis function :  2 s   1.200
  | Found hydrogenic basis function :  3 d   7.000
  Species H                   : Missing cutoff potential type.
  Defaulting to exp(1/x)/(1-x)^2 type cutoff potential.
  Species H : No 'logarithmic' tag. Using default grid for free atom:
  | Default logarithmic grid data [bohr] : 0.1000E-03 0.1000E+03 0.1012E+01
  Species H : On-site basis accuracy parameter (for Gram-Schmidt orthonormalisation) not specified.
  Using default value basis_acc =  0.1000000E-03.
  Species H                   : Using default innermost maximum threshold i_radial=  2 for radial functions.
  Species H                   : Default cutoff onset for free atom density etc. : 0.40000000E+01 AA.
  Species H                   : Basic radial grid will be enhanced according to radial_multiplier =   2, to contain    49 grid points.
 
  Reading configuration options for species C                   .
  | Found nuclear charge :   6.0000
  | Found atomic mass :    12.0107000000000      amu
  | Found l_max for Hartree potential  :   6
  | Found cutoff potl. onset [A], width [A], scale factor :    4.00000    2.00000    1.00000
  | Threshold for basis-dependent cutoff potential is   0.100000E-03
  | Found data for basic radial integration grid :    34 points, outermost radius =    7.000 A
  | Found multiplier for basic radial grid :   2
  | Found angular grid specification: user-specified.
  | Specified grid contains     6 separate shells.
  | Check grid settings after all constraints further below.
  | Found free-atom valence shell :  2 s   2.000
  | Found free-atom valence shell :  2 p   2.000
  | Found free-ion valence shell :  2 s   1.000
  | Found free-ion valence shell :  2 p   1.000
  | Found hydrogenic basis function :  2 p   1.700
  | Found hydrogenic basis function :  3 d   6.000
  | Found hydrogenic basis function :  2 s   4.900
  | Found hydrogenic basis function :  4 f   9.800
  | Found hydrogenic basis function :  3 p   5.200
  | Found hydrogenic basis function :  3 s   4.300
  | Found hydrogenic basis function :  5 g  14.400
  | Found hydrogenic basis function :  3 d   6.200
  Species C                   : Missing cutoff potential type.
  Defaulting to exp(1/x)/(1-x)^2 type cutoff potential.
  Species C : No 'logarithmic' tag. Using default grid for free atom:
  | Default logarithmic grid data [bohr] : 0.1000E-03 0.1000E+03 0.1012E+01
  Species C : On-site basis accuracy parameter (for Gram-Schmidt orthonormalisation) not specified.
  Using default value basis_acc =  0.1000000E-03.
  Species C                   : Using default innermost maximum threshold i_radial=  2 for radial functions.
  Species C                   : Default cutoff onset for free atom density etc. : 0.40000000E+01 AA.
  Species C                   : Basic radial grid will be enhanced according to radial_multiplier =   2, to contain    69 grid points.
 
  Reading configuration options for species O                   .
  | Found nuclear charge :   8.0000
  | Found atomic mass :    15.9994000000000      amu
  | Found l_max for Hartree potential  :   6
  | Found cutoff potl. onset [A], width [A], scale factor :    4.00000    2.00000    1.00000
  | Threshold for basis-dependent cutoff potential is   0.100000E-03
  | Found data for basic radial integration grid :    36 points, outermost radius =    7.000 A
  | Found multiplier for basic radial grid :   2
  | Found angular grid specification: user-specified.
  | Specified grid contains     6 separate shells.
  | Check grid settings after all constraints further below.
  | Found free-atom valence shell :  2 s   2.000
  | Found free-atom valence shell :  2 p   4.000
  | Found free-ion valence shell :  2 s   1.000
  | Found free-ion valence shell :  2 p   3.000
  | Found hydrogenic basis function :  2 p   1.800
  | Found hydrogenic basis function :  3 d   7.600
  | Found hydrogenic basis function :  3 s   6.400
  | Found hydrogenic basis function :  4 f  11.600
  | Found hydrogenic basis function :  3 p   6.200
  | Found hydrogenic basis function :  3 d   5.600
  | Found hydrogenic basis function :  5 g  17.600
  | Found hydrogenic basis function :  1 s   0.750
  Species O                   : Missing cutoff potential type.
  Defaulting to exp(1/x)/(1-x)^2 type cutoff potential.
  Species O : No 'logarithmic' tag. Using default grid for free atom:
  | Default logarithmic grid data [bohr] : 0.1000E-03 0.1000E+03 0.1012E+01
  Species O : On-site basis accuracy parameter (for Gram-Schmidt orthonormalisation) not specified.
  Using default value basis_acc =  0.1000000E-03.
  Species O                   : Using default innermost maximum threshold i_radial=  2 for radial functions.
  Species O                   : Default cutoff onset for free atom density etc. : 0.40000000E+01 AA.
  Species O                   : Basic radial grid will be enhanced according to radial_multiplier =   2, to contain    73 grid points.
 
  Reading configuration options for species N                   .
  | Found nuclear charge :   7.0000
  | Found atomic mass :    14.0067000000000      amu
  | Found l_max for Hartree potential  :   6
  | Found cutoff potl. onset [A], width [A], scale factor :    4.00000    2.00000    1.00000
  | Threshold for basis-dependent cutoff potential is   0.100000E-03
  | Found data for basic radial integration grid :    35 points, outermost radius =    7.000 A
  | Found multiplier for basic radial grid :   2
  | Found angular grid specification: user-specified.
  | Specified grid contains     6 separate shells.
  | Check grid settings after all constraints further below.
  | Found free-atom valence shell :  2 s   2.000
  | Found free-atom valence shell :  2 p   3.000
  | Found free-ion valence shell :  2 s   1.000
  | Found free-ion valence shell :  2 p   2.000
  | Found hydrogenic basis function :  2 p   1.800
  | Found hydrogenic basis function :  3 d   6.800
  | Found hydrogenic basis function :  3 s   5.800
  | Found hydrogenic basis function :  4 f  10.800
  | Found hydrogenic basis function :  3 p   5.800
  | Found hydrogenic basis function :  1 s   0.800
  | Found hydrogenic basis function :  5 g  16.000
  | Found hydrogenic basis function :  3 d   4.900
  Species N                   : Missing cutoff potential type.
  Defaulting to exp(1/x)/(1-x)^2 type cutoff potential.
  Species N : No 'logarithmic' tag. Using default grid for free atom:
  | Default logarithmic grid data [bohr] : 0.1000E-03 0.1000E+03 0.1012E+01
  Species N : On-site basis accuracy parameter (for Gram-Schmidt orthonormalisation) not specified.
  Using default value basis_acc =  0.1000000E-03.
  Species N                   : Using default innermost maximum threshold i_radial=  2 for radial functions.
  Species N                   : Default cutoff onset for free atom density etc. : 0.40000000E+01 AA.
  Species N                   : Basic radial grid will be enhanced according to radial_multiplier =   2, to contain    71 grid points.
 
  Reading configuration options for species S                   .
  | Found nuclear charge :  16.0000
  | Found atomic mass :    32.0650000000000      amu
  | Found l_max for Hartree potential  :   6
  | Found cutoff potl. onset [A], width [A], scale factor :    4.00000    2.00000    1.00000
  | Threshold for basis-dependent cutoff potential is   0.100000E-03
  | Found data for basic radial integration grid :    44 points, outermost radius =    7.000 A
  | Found multiplier for basic radial grid :   2
  | Found angular grid specification: user-specified.
  | Specified grid contains     5 separate shells.
  | Check grid settings after all constraints further below.
  | Found free-atom valence shell :  3 s   2.000
  | Found free-atom valence shell :  3 p   4.000
  | Found free-ion valence shell :  3 s   1.000
  | Found free-ion valence shell :  3 p   3.000
  | Found ionic basis function :  3 d , default cutoff radius.
  | Found hydrogenic basis function :  2 p   1.800
  | Found hydrogenic basis function :  4 f   7.000
  | Found ionic basis function :  3 s , default cutoff radius.
  | Found hydrogenic basis function :  4 d   6.200
  | Found hydrogenic basis function :  5 g  10.800
  Species S                   : Missing cutoff potential type.
  Defaulting to exp(1/x)/(1-x)^2 type cutoff potential.
  Species S : No 'logarithmic' tag. Using default grid for free atom:
  | Default logarithmic grid data [bohr] : 0.1000E-03 0.1000E+03 0.1012E+01
  | Will include ionic basis functions of  2.0-fold positive S                    ion.
  Species S : On-site basis accuracy parameter (for Gram-Schmidt orthonormalisation) not specified.
  Using default value basis_acc =  0.1000000E-03.
  Species S                   : Using default innermost maximum threshold i_radial=  2 for radial functions.
  Species S                   : Default cutoff onset for free atom density etc. : 0.40000000E+01 AA.
  Species S                   : Basic radial grid will be enhanced according to radial_multiplier =   2, to contain    89 grid points.
 
  Reading configuration options for species Zn                  .
  | Found nuclear charge :  30.0000
  | Found atomic mass :    65.4090000000000      amu
  | Found l_max for Hartree potential  :   6
  | Found cutoff potl. onset [A], width [A], scale factor :    4.00000    2.00000    1.00000
  | Threshold for basis-dependent cutoff potential is   0.100000E-03
  | Found data for basic radial integration grid :    53 points, outermost radius =    7.000 A
  | Found multiplier for basic radial grid :   2
  | Found angular grid specification: user-specified.
  | Specified grid contains     6 separate shells.
  | Check grid settings after all constraints further below.
  | Found free-atom valence shell :  4 s   2.000
  | Found free-atom valence shell :  3 p   6.000
  | Found free-atom valence shell :  3 d  10.000
  | Found free-ion valence shell :  4 s   1.000
  | Found free-ion valence shell :  3 p   6.000
  | Found free-ion valence shell :  3 d   9.000
  | Found hydrogenic basis function :  2 p   1.700
  | Found hydrogenic basis function :  3 s   2.900
  | Found hydrogenic basis function :  4 p   5.400
  | Found hydrogenic basis function :  4 f   7.800
  | Found hydrogenic basis function :  3 d   4.500
  Species Zn                  : Missing cutoff potential type.
  Defaulting to exp(1/x)/(1-x)^2 type cutoff potential.
  Species Zn: No 'logarithmic' tag. Using default grid for free atom:
  | Default logarithmic grid data [bohr] : 0.1000E-03 0.1000E+03 0.1012E+01
  Species Zn: On-site basis accuracy parameter (for Gram-Schmidt orthonormalisation) not specified.
  Using default value basis_acc =  0.1000000E-03.
  Species Zn                  : Using default innermost maximum threshold i_radial=  2 for radial functions.
  Species Zn                  : Default cutoff onset for free atom density etc. : 0.40000000E+01 AA.
  Species Zn                  : Basic radial grid will be enhanced according to radial_multiplier =   2, to contain   107 grid points.
 
  Finished reading input file 'control.in'. Consistency checks are next.
 
  MPI_IN_PLACE appears to work with this MPI implementation.
  | Keeping use_mpi_in_place .true. (see manual).
  Target number of points in a grid batch is not set. Defaulting to  100
  Method for grid partitioning is not set. Defaulting to parallel hash+maxmin partitioning.
  Batch size limit is not set. Defaulting to    200
  By default, will store active basis functions for each batch.
  If in need of memory, prune_basis_once .false. can be used to disable this option.
  communication_type for Hartree potential was not specified.
  Defaulting to calc_hartree .
  Pulay mixer: Number of initial linear mixing iterations not set.
  Defaulting to    0 iterations.
  Work space size for distributed Hartree potential not set.
  Defaulting to   0.200000E+03 MB.
  Algorithm-dependent basis array size parameters:
  | n_max_pulay                         :       10
  Presetting      1001 iterations before the initial mixing cycle
  is restarted anyway using the sc_init_iter criterion / keyword.
  Presetting a factor      1.000 between actual scf density residual
  and density convergence criterion sc_accuracy_rho below which sc_init_iter
  takes no effect.
  Geometry relaxation not requested: no relaxation will be performed.
  Handling of forces: Unphysical translation and rotation will be removed from forces.
  No accuracy limit for integral partition fn. given. Defaulting to  0.1000E-14.
  No threshold value for u(r) in integrations given. Defaulting to  0.1000E-05.
  No accuracy for occupation numbers given. Defaulting to  0.1000E-12.
  No threshold value for occupation numbers given. Defaulting to  0.0000E+00.
  No accuracy for fermi level given. Defaulting to  0.1000E-19.
  Maximum # of iterations to find E_F not set. Defaulting to  200.
  Will not use alltoall communication since running on < 1024 CPUs.
  partition_type (choice of integration weights) for integrals was not specified.
  | Using a version of the partition function of Stratmann and coworkers ('stratmann_smoother').
  | At each grid point, the set of atoms used to build the partition table is smoothly restricted to
  | only those atoms whose free-atom density would be non-zero at that grid point.
  Partitioning for Hartree potential was not defined. Using partition_type for integrals.
  | Adjusted default value of keyword multip_moments_threshold to:       0.10000000E-11
  | This value may affect high angular momentum components of the Hartree potential in periodic systems.
  Angular momentum expansion for Kerker preconditioner not set explicitly.
  | Using default value of   0
  No explicit requirement for turning off preconditioner.
  | By default, it will be turned off when the charge convergence reaches
  | sc_accuracy_rho  =   0.100000E-03
  | sc_accuracy_eev  =   0.100000E-01
  | sc_accuracy_etot =   0.100000E-04
  No special mixing parameter while Kerker preconditioner is on.
  Using default: charge_mix_param =     0.5000.
  No q(lm)/r^(l+1) cutoff set for long-range Hartree potential.
  | Using default value of  0.100000E-09 .
  | Verify using the multipole_threshold keyword.
  Defaulting to new monopole extrapolation.
  Density update method: automatic selection selected.
------------------------------------------------------------


------------------------------------------------------------
          Reading geometry description geometry.in.
------------------------------------------------------------
 * Warning: Initial charge and total charge of the system are inconsistent.
 * Selected charge in control.in:     1.0000* Sum of initial charges in geometry.in:     0.0000
  Input structure read successfully.
  The structure contains       23 atoms,  and a total of        122.000 electrons.

  Input geometry:
  | No unit cell requested.
  | Atomic structure:
  |       Atom                x [A]            y [A]            z [A]
  |    1: Species C             4.39220000        2.95940000        3.89570000
  |    2: Species H             5.24780000        2.29230000        4.06130000
  |    3: Species H             4.78130000        3.88280000        3.44870000
  |    4: Species H             3.92300000        3.19240000        4.85750000
  |    5: Species C             3.45680000        2.30530000        2.92680000
  |    6: Species O             3.78830000        1.97710000        1.77210000
  |    7: Species N             2.18090000        2.03880000        3.31820000
  |    8: Species H             1.83500000        2.26480000        4.24410000
  |    9: Species C             1.31830000        1.46620000        2.30470000
  |   10: Species H             1.04330000        2.25450000        1.57730000
  |   11: Species C             0.02970000        0.86280000        2.89130000
  |   12: Species H             0.26450000       -0.03350000        3.47780000
  |   13: Species H            -0.45410000        1.60690000        3.53860000
  |   14: Species S            -1.30110000        0.43690000        1.65640000
  |   15: Species C             2.16660000        0.38420000        1.58420000
  |   16: Species O             2.59450000       -0.61350000        2.09400000
  |   17: Species N             2.08160000        0.47140000        0.07040000
  |   18: Species H             2.29110000        1.44440000       -0.18440000
  |   19: Species C             3.02850000       -0.44560000       -0.62640000
  |   20: Species H             2.84940000       -1.47180000       -0.29490000
  |   21: Species H             2.87330000       -0.36240000       -1.70600000
  |   22: Species H             4.05510000       -0.16080000       -0.36950000
  |   23: Species Zn            0.10660000        0.19190000        0.06790000
  |

  | The smallest distance between any two atoms is         1.01391007 AA.
  |
  | The first atom of this pair is atom number                      7 .
  | The second atom of this pair is atom number                     8 .

  Number of empty states per atom not set in control.in - providing a guess from actual geometry.
  | Total number of empty states used during s.c.f. cycle:       55
  If you use a very high smearing, use empty_states (per atom!) in control.in to increase this value.

  Structure-dependent array size parameters: 
  | Maximum number of distinct radial functions  :       63
  | Maximum number of basis functions            :      628
  | Number of Kohn-Sham states (occupied + empty):      116
------------------------------------------------------------

------------------------------------------------------------
          Preparing all fixed parts of the calculation.
------------------------------------------------------------
  Determining machine precision:
    2.225073858507201E-308
  Setting up grids for atomic and cluster calculations.

  Creating wave function, potential, and density for free atoms.

  Species: H

  List of occupied orbitals and eigenvalues:
    n    l              occ      energy [Ha]    energy [eV]
    1    0           1.0000        -0.238386        -6.4868


  Species: C

  List of occupied orbitals and eigenvalues:
    n    l              occ      energy [Ha]    energy [eV]
    1    0           2.0000       -10.049212      -273.4530
    2    0           2.0000        -0.504761       -13.7352
    2    1           2.0000        -0.193631        -5.2690


  Species: O

  List of occupied orbitals and eigenvalues:
    n    l              occ      energy [Ha]    energy [eV]
    1    0           2.0000       -18.927378      -515.0401
    2    0           2.0000        -0.880539       -23.9607
    2    1           4.0000        -0.331811        -9.0290


  Species: N

  List of occupied orbitals and eigenvalues:
    n    l              occ      energy [Ha]    energy [eV]
    1    0           2.0000       -14.144983      -384.9046
    2    0           2.0000        -0.682735       -18.5782
    2    1           3.0000        -0.260361        -7.0848


  Species: S

  List of occupied orbitals and eigenvalues:
    n    l              occ      energy [Ha]    energy [eV]
    1    0           2.0000       -88.680731     -2413.1255
    2    0           2.0000        -7.781719      -211.7513
    3    0           2.0000        -0.633662       -17.2428
    2    1           6.0000        -5.751976      -156.5192
    3    1           4.0000        -0.257086        -6.9957


  Species: Zn

  List of occupied orbitals and eigenvalues:
    n    l              occ      energy [Ha]    energy [eV]
    1    0           2.0000      -354.026381     -9633.5480
    2    0           2.0000       -42.640178     -1160.2983
    3    0           2.0000        -4.748114      -129.2028
    4    0           2.0000        -0.218493        -5.9455
    2    1           6.0000       -36.953528     -1005.5567
    3    1           6.0000        -3.063122       -83.3518
    3    2          10.0000        -0.371478       -10.1084

  Creating fixed part of basis set: Ionic, confined, hydrogenic.
 
  H                    hydrogenic:
 
  List of hydrogenic basis orbitals: 
    n    l      effective z      eigenvalue [eV]  inner max. [A]     outer max. [A]     outer radius [A]   
    2    0         2.100000       -14.9965           0.193243           1.317208           5.373006
    2    1         3.500000       -41.6672           0.602369           0.602369           4.056063
    1    0         0.850000        -9.8292           0.624871           0.624871           5.373006
    2    1         3.700000       -46.5653           0.573622           0.573622           3.910002
    2    0         1.200000        -4.5995           0.334980           2.228188           5.505995
    3    2         7.000000       -74.0753           0.680699           0.680699           3.769201
 
 
  C                    hydrogenic:
 
  List of hydrogenic basis orbitals: 
    n    l      effective z      eigenvalue [eV]  inner max. [A]     outer max. [A]     outer radius [A]   
    2    1         1.700000        -9.8152           1.245706           1.245706           5.401630
    3    2         6.000000       -54.4226           0.792453           0.792453           4.178599
    2    0         4.900000       -81.6681           0.082559           0.562749           3.353238
    4    3         9.800000       -81.6681           0.863254           0.863254           4.028125
    3    1         5.200000       -40.8774           0.305389           1.215618           4.898362
    3    0         4.300000       -27.9508           0.091041           1.610311           5.401630
    5    4        14.400000      -112.8510           0.917666           0.917666           3.883070
    3    2         6.200000       -58.1113           0.763917           0.763917           4.077671
 
 
  O                    hydrogenic:
 
  List of hydrogenic basis orbitals: 
    n    l      effective z      eigenvalue [eV]  inner max. [A]     outer max. [A]     outer radius [A]   
    2    1         1.800000       -11.0118           1.178562           1.178562           5.432602
    3    2         7.600000       -87.3182           0.624125           0.624125           3.541477
    3    0         6.400000       -61.9209           0.061167           1.081902           4.306578
    4    3        11.600000      -114.4238           0.731631           0.731631           3.585037
    3    1         6.200000       -58.1113           0.255680           1.030270           4.306578
    3    2         5.600000       -47.4081           0.847233           0.847233           4.413171
    5    4        17.600000      -168.5799           0.749740           0.749740           3.372465
    1    0         0.750000        -7.6499           0.705284           0.705284           5.366593
 
 
  N                    hydrogenic:
 
  List of hydrogenic basis orbitals: 
    n    l      effective z      eigenvalue [eV]  inner max. [A]     outer max. [A]     outer radius [A]   
    2    1         1.800000       -11.0118           1.177451           1.177451           5.427479
    3    2         6.800000       -69.9029           0.704619           0.704619           3.854246
    3    0         5.800000       -50.8549           0.067388           1.191934           4.629968
    4    3        10.800000       -99.1854           0.786571           0.786571           3.761152
    3    1         5.800000       -50.8549           0.274880           1.094176           4.518138
    1    0         0.800000        -8.7059           0.662839           0.662839           5.361532
    5    4        16.000000      -139.3222           0.825990           0.825990           3.625711
    3    2         4.900000       -36.2967           0.968267           0.968267           4.862000
 
 
  S                    ion:

  List of free ionic orbitals and eigenvalues:
    n    l      energy [Ha]    energy [eV]
    1    0       -89.703778     -2440.9640
    2    0        -8.775428      -238.7916
    3    0        -1.470343       -40.0101
    2    1        -6.747660      -183.6132
    3    1        -1.048627       -28.5346


  List of ionic basis orbitals and eigenvalues:
    n    l      energy [Ha]    energy [eV]    outer radius [A]
    3    2        -0.495605       -13.4861       5.386362
    3    0        -1.470336       -40.0099       3.967934

 
  S                    hydrogenic:
 
  List of hydrogenic basis orbitals: 
    n    l      effective z      eigenvalue [eV]  inner max. [A]     outer max. [A]     outer radius [A]   
    2    1         1.800000       -11.0118           1.168531           1.168531           5.452614
    4    3         7.000000       -41.6672           1.212182           1.212182           5.066981
    4    2         6.200000       -32.6848           0.582121           1.814567           5.386362
    5    4        10.800000       -63.4785           1.227092           1.227092           4.766538
 
 
  Zn                   hydrogenic:
 
  List of hydrogenic basis orbitals: 
    n    l      effective z      eigenvalue [eV]  inner max. [A]     outer max. [A]     outer radius [A]   
    2    1         1.700000        -9.8152           1.235824           1.235824           5.424690
    3    0         2.900000       -12.5649           0.135202           2.362362           5.491413
    4    1         5.400000       -24.7540           0.278118           2.305302           5.491413
    4    3         7.800000       -51.7355           1.080326           1.080326           4.684508
    3    2         4.500000       -30.6125           1.054232           1.054232           5.103037
 

  Adding cutoff potential to free-atom effective potential.
  Creating atomic-like basis functions for current effective potential.

  Species H                   :

  List of atomic basis orbitals and eigenvalues:
    n    l      energy [Ha]    energy [eV]    outer radius [A]
    1    0        -0.238386        -6.4868       5.373006


  Species C                   :

  List of atomic basis orbitals and eigenvalues:
    n    l      energy [Ha]    energy [eV]    outer radius [A]
    1    0       -10.049212      -273.4530       1.934409
    2    0        -0.504761       -13.7352       5.271162
    2    1        -0.193631        -5.2690       5.401630


  Species O                   :

  List of atomic basis orbitals and eigenvalues:
    n    l      energy [Ha]    energy [eV]    outer radius [A]
    1    0       -18.927378      -515.0401       1.415765
    2    0        -0.880539       -23.9607       5.048385
    2    1        -0.331811        -9.0290       5.301386


  Species N                   :

  List of atomic basis orbitals and eigenvalues:
    n    l      energy [Ha]    energy [eV]    outer radius [A]
    1    0       -14.144983      -384.9046       1.637919
    2    0        -0.682735       -18.5782       5.168461
    2    1        -0.260361        -7.0848       5.361532


  Species S                   :

  List of atomic basis orbitals and eigenvalues:
    n    l      energy [Ha]    energy [eV]    outer radius [A]
    1    0       -88.680731     -2413.1255       0.682391
    2    0        -7.781719      -211.7513       2.289014
    3    0        -0.633662       -17.2428       5.256262
    2    1        -5.751976      -156.5192       2.555240
    3    1        -0.257086        -6.9957       5.386362


  Species Zn                  :

  List of atomic basis orbitals and eigenvalues:
    n    l      energy [Ha]    energy [eV]    outer radius [A]
    1    0      -354.026381     -9633.5480       0.350836
    2    0       -42.640178     -1160.2983       1.028769
    3    0        -4.748114      -129.2028       2.943830
    4    0        -0.218493        -5.9455       5.424690
    2    1       -36.953528     -1005.5567       1.067199
    3    1        -3.063122       -83.3518       3.493350
    3    2        -0.371478       -10.1084       5.229343

  Assembling full basis from fixed parts.
  | Species H :   atomic orbital   1 s accepted.
  | Species H :    hydro orbital   2 s accepted.
  | Species H :    hydro orbital   1 s accepted.
  | Species H :    hydro orbital   2 s accepted.
  | Species H :    hydro orbital   2 p accepted.
  | Species H :    hydro orbital   2 p accepted.
  | Species H :    hydro orbital   3 d accepted.
  | Species C :   atomic orbital   1 s accepted.
  | Species C :    hydro orbital   2 s accepted.
  | Species C :   atomic orbital   2 s accepted.
  | Species C :    hydro orbital   3 s accepted.
  | Species C :    hydro orbital   3 p accepted.
  | Species C :   atomic orbital   2 p accepted.
  | Species C :    hydro orbital   2 p accepted.
  | Species C :    hydro orbital   3 d accepted.
  | Species C :    hydro orbital   3 d accepted.
  | Species C :    hydro orbital   4 f accepted.
  | Species C :    hydro orbital   5 g accepted.
  | Species O :   atomic orbital   1 s accepted.
  | Species O :    hydro orbital   3 s accepted.
  | Species O :   atomic orbital   2 s accepted.
  | Species O :    hydro orbital   1 s accepted.
  | Species O :    hydro orbital   3 p accepted.
  | Species O :   atomic orbital   2 p accepted.
  | Species O :    hydro orbital   2 p accepted.
  | Species O :    hydro orbital   3 d accepted.
  | Species O :    hydro orbital   3 d accepted.
  | Species O :    hydro orbital   4 f accepted.
  | Species O :    hydro orbital   5 g accepted.
  | Species N :   atomic orbital   1 s accepted.
  | Species N :    hydro orbital   3 s accepted.
  | Species N :   atomic orbital   2 s accepted.
  | Species N :    hydro orbital   1 s accepted.
  | Species N :    hydro orbital   3 p accepted.
  | Species N :   atomic orbital   2 p accepted.
  | Species N :    hydro orbital   2 p accepted.
  | Species N :    hydro orbital   3 d accepted.
  | Species N :    hydro orbital   3 d accepted.
  | Species N :    hydro orbital   4 f accepted.
  | Species N :    hydro orbital   5 g accepted.
  | Species S :   atomic orbital   1 s accepted.
  | Species S :   atomic orbital   2 s accepted.
  | Species S :    ionic orbital   3 s accepted.
  | Species S :   atomic orbital   3 s accepted.
  | Species S :   atomic orbital   2 p accepted.
  | Species S :   atomic orbital   3 p accepted.
  | Species S :    hydro orbital   2 p accepted.
  | Species S :    ionic orbital   3 d accepted.
  | Species S :    hydro orbital   4 d accepted.
  | Species S :    hydro orbital   4 f accepted.
  | Species S :    hydro orbital   5 g accepted.
  | Species Zn :   atomic orbital   1 s accepted.
  | Species Zn :   atomic orbital   2 s accepted.
  | Species Zn :   atomic orbital   3 s accepted.
  | Species Zn :   atomic orbital   4 s accepted.
  | Species Zn :    hydro orbital   3 s accepted.
  | Species Zn :   atomic orbital   2 p accepted.
  | Species Zn :   atomic orbital   3 p accepted.
  | Species Zn :    hydro orbital   2 p accepted.
  | Species Zn :    hydro orbital   4 p accepted.
  | Species Zn :    hydro orbital   3 d accepted.
  | Species Zn :   atomic orbital   3 d accepted.
  | Species Zn :    hydro orbital   4 f accepted.
 
  Basis size parameters after reduction:
  | Total number of radial functions:       63
  | Total number of basis functions :      628
 
  Per-task memory consumption for arrays in subroutine allocate_ext:
  |          22.746924MB.
  Testing on-site integration grid accuracy.
  |  Species  Function  <phi|h_atom|phi> (log., in eV)  <phi|h_atom|phi> (rad., in eV)
           1        1                 -6.4870767962                 -6.4871688290
           1        2                 13.5032046589                 13.5028982997
           1        3                 32.8195184817                 32.8119941656
           1        4                 33.8513856511                 33.7670005767 ***
           1        5                 28.8544614965                 28.8544615203
           1        6                 59.6326952547                 59.6327656460
           1        7                 60.2719308513                 60.2719305949
           2        8               -273.4529726040               -273.4529710510
           2        9                -10.7721037319                -10.7721022091
           2       10                 17.6044132601                 17.6044162068
           2       11                 53.7706460658                 53.7706913775
           2       12                 15.0973290362                 15.0973256023
           2       13                  3.8545134692                  3.8545724671
           2       14                 12.1156992592                 12.1182024429
           2       15                 29.4352039302                 29.4352041819
           2       16                 54.8741144708                 54.8740268730
           2       17                 59.3556032049                 59.3556031384
           2       18                 93.4551837154                 93.4551838010
           3       19               -515.0401491148               -515.0401445497
           3       20                 15.1629302771                 15.1629233103
           3       21                -21.6127103294                -21.6127145448
           3       22                 14.4001435709                 14.4001765990
           3       23                 20.8862585187                 20.8862589491
           3       24                 -2.4803658578                 -2.4803665016
           3       25                 13.8586387760                 13.8586021621
           3       26                 45.8331828880                 45.8331828942
           3       27                 52.1851961049                 52.1851977023
           3       28                 85.4133898762                 85.4133899075
           3       29                142.1023296234                142.1023296273
           4       30               -384.9045837902               -384.9045810034
           4       31                 12.5603464975                 12.5603454947
           4       32                -15.7898975009                -15.7898975784
           4       33                 26.9245114624                 26.9252865213
           4       34                 18.5932197356                 18.5932205973
           4       35                  1.2241635031                  1.2241662162
           4       36                 13.4399987726                 13.4405112381
           4       37                 35.9434723765                 35.9434722970
           4       38                 39.9236994474                 39.9237117159
           4       39                 72.9994981060                 72.9994982100
           4       40                116.4255814538                116.4255814827
           5       41              -2413.1254568977              -2413.1254096663
           5       42               -211.7513411281               -211.7513404762
           5       43                -16.9725280787                -16.9725279207
           5       44                  7.6024436204                  7.6024549058
           5       45               -156.5192206929               -156.5192205451
           5       46                 -6.9959757887                 -6.9959777656
           5       47                  6.8896462808                  6.8895564741
           5       48                  6.0214250550                  6.0214220199
           5       49                 19.6206468977                 19.6206494558
           5       50                 24.7008710785                 24.7008710738
           5       51                 47.5292252001                 47.5292260485
           6       52              -9633.5479876958              -9633.5475563010
           6       53              -1160.2982831063              -1160.2982770961
           6       54               -129.2027602749               -129.2027594162
           6       55                 -5.9470490494                 -5.9470486109
           6       56                  4.2835390364                  4.2835424513
           6       57              -1005.5566713135              -1005.5566708055
           6       58                -83.3517808569                -83.3517803427
           6       59                 -0.3820929573                 -0.3820906995
           6       60                 10.4944113494                 10.4944054783
           6       61                  7.5059805229                  7.5059804122
           6       62                 -1.2631783887                 -1.2631782177
           6       63                 31.6228954714                 31.6228956648
 * Note: Onsite integrals marked "***" above are less accurate than
 * onsite_accuracy_threshold =    0.03000 eV. Usually, this is harmless.
 * When in doubt, tighten the "radial" and/or "radial_multiplier" flags to check.

  Preparing densities etc. for the partition functions (integrals / Hartree potential).

  Preparations completed.
  max(cpu_time)          :      0.552 s.
  Wall clock time (cpu1) :      0.552 s.
------------------------------------------------------------

------------------------------------------------------------
          Begin self-consistency loop: Initialization.

          Date     :  20180917, Time     :  130538.441
------------------------------------------------------------

  Initializing index lists of integration centers etc. from given atomic structure:
  | Number of centers in hartree potential         :        23
  | Number of centers in hartree multipole         :        23
  | Number of centers in electron density summation:        23
  | Number of centers in basis integrals           :        23
  | Number of centers in integrals                 :        23
  | Number of centers in hamiltonian               :        23
  * Using 64 tasks for Scalapack Eigenvalue solver.
  Detailed listing of tasks and assigned k-points:
  (for non-periodic systems, the "k-point" denotes an internal label only)
   Task     0 k-point     1 on dra0277
   Task     1 k-point     1 on dra0277
   Task     2 k-point     1 on dra0277
   Task     3 k-point     1 on dra0277
   Task     4 k-point     1 on dra0277
   Task     5 k-point     1 on dra0277
   Task     6 k-point     1 on dra0277
   Task     7 k-point     1 on dra0277
   Task     8 k-point     1 on dra0277
   Task     9 k-point     1 on dra0277
   Task    10 k-point     1 on dra0277
   Task    11 k-point     1 on dra0277
   Task    12 k-point     1 on dra0277
   Task    13 k-point     1 on dra0277
   Task    14 k-point     1 on dra0277
   Task    15 k-point     1 on dra0277
   Task    16 k-point     1 on dra0277
   Task    17 k-point     1 on dra0277
   Task    18 k-point     1 on dra0277
   Task    19 k-point     1 on dra0277
   Task    20 k-point     1 on dra0277
   Task    21 k-point     1 on dra0277
   Task    22 k-point     1 on dra0277
   Task    23 k-point     1 on dra0277
   Task    24 k-point     1 on dra0277
   Task    25 k-point     1 on dra0277
   Task    26 k-point     1 on dra0277
   Task    27 k-point     1 on dra0277
   Task    28 k-point     1 on dra0277
   Task    29 k-point     1 on dra0277
   Task    30 k-point     1 on dra0277
   Task    31 k-point     1 on dra0277
   Task    32 k-point     1 on dra0278
   Task    33 k-point     1 on dra0278
   Task    34 k-point     1 on dra0278
   Task    35 k-point     1 on dra0278
   Task    36 k-point     1 on dra0278
   Task    37 k-point     1 on dra0278
   Task    38 k-point     1 on dra0278
   Task    39 k-point     1 on dra0278
   Task    40 k-point     1 on dra0278
   Task    41 k-point     1 on dra0278
   Task    42 k-point     1 on dra0278
   Task    43 k-point     1 on dra0278
   Task    44 k-point     1 on dra0278
   Task    45 k-point     1 on dra0278
   Task    46 k-point     1 on dra0278
   Task    47 k-point     1 on dra0278
   Task    48 k-point     1 on dra0278
   Task    49 k-point     1 on dra0278
   Task    50 k-point     1 on dra0278
   Task    51 k-point     1 on dra0278
   Task    52 k-point     1 on dra0278
   Task    53 k-point     1 on dra0278
   Task    54 k-point     1 on dra0278
   Task    55 k-point     1 on dra0278
   Task    56 k-point     1 on dra0278
   Task    57 k-point     1 on dra0278
   Task    58 k-point     1 on dra0278
   Task    59 k-point     1 on dra0278
   Task    60 k-point     1 on dra0278
   Task    61 k-point     1 on dra0278
   Task    62 k-point     1 on dra0278
   Task    63 k-point     1 on dra0278
  Tasks:    64 split into      8 X      8 BLACS grid
  Calculating block size based on n_basis =          628  max_nprow =            8  max_npcol =            8
  ScaLAPACK block size set to:           16
  Allocating        0.051 MB for ovlp
  Allocating        0.051 MB for ham
  Allocating        0.051 MB for eigenvec
  Required Scalapack workspace - INTEGER:            1  REAL:             1
  Partitioning the integration grid into batches with parallel hashing+maxmin method.
  | Number of batches:     3850
  | Maximal batch size:     199
  | Minimal batch size:       1
  | Average batch size:     102.023
  | Standard deviation of batch sizes:      31.718

  Integration load balanced across    64 MPI tasks.
  Work distribution over tasks is as follows:
  Task     0 has       6212 integration points.
  Task     1 has       6136 integration points.
  Task     2 has       6231 integration points.
  Task     3 has       6070 integration points.
  Task     4 has       6228 integration points.
  Task     5 has       6155 integration points.
  Task     6 has       6142 integration points.
  Task     7 has       6122 integration points.
  Task     8 has       6066 integration points.
  Task     9 has       6118 integration points.
  Task    10 has       6148 integration points.
  Task    11 has       6155 integration points.
  Task    12 has       6157 integration points.
  Task    13 has       6156 integration points.
  Task    14 has       6109 integration points.
  Task    15 has       6154 integration points.
  Task    16 has       6145 integration points.
  Task    17 has       6228 integration points.
  Task    18 has       6134 integration points.
  Task    19 has       6122 integration points.
  Task    20 has       6091 integration points.
  Task    21 has       6130 integration points.
  Task    22 has       6137 integration points.
  Task    23 has       6075 integration points.
  Task    24 has       6094 integration points.
  Task    25 has       6234 integration points.
  Task    26 has       6070 integration points.
  Task    27 has       6136 integration points.
  Task    28 has       6122 integration points.
  Task    29 has       6140 integration points.
  Task    30 has       6157 integration points.
  Task    31 has       6073 integration points.
  Task    32 has       6144 integration points.
  Task    33 has       6159 integration points.
  Task    34 has       6138 integration points.
  Task    35 has       6151 integration points.
  Task    36 has       6130 integration points.
  Task    37 has       6227 integration points.
  Task    38 has       6231 integration points.
  Task    39 has       6144 integration points.
  Task    40 has       6070 integration points.
  Task    41 has       6138 integration points.
  Task    42 has       6142 integration points.
  Task    43 has       6137 integration points.
  Task    44 has       6118 integration points.
  Task    45 has       6128 integration points.
  Task    46 has       6063 integration points.
  Task    47 has       6067 integration points.
  Task    48 has       6065 integration points.
  Task    49 has       6125 integration points.
  Task    50 has       6194 integration points.
  Task    51 has       6114 integration points.
  Task    52 has       6124 integration points.
  Task    53 has       6126 integration points.
  Task    54 has       6125 integration points.
  Task    55 has       6224 integration points.
  Task    56 has       6229 integration points.
  Task    57 has       6133 integration points.
  Task    58 has       6129 integration points.
  Task    59 has       6134 integration points.
  Task    60 has       6062 integration points.
  Task    61 has       6133 integration points.
  Task    62 has       6113 integration points.
  Task    63 has       6126 integration points.
  Initializing partition tables, free-atom densities, potentials, etc. across the integration grid (initialize_grid_storage).
  | initialize_grid_storage: Actual outermost partition radius vs. multipole_radius_free
  | (-- VB: in principle, multipole_radius_free should be larger, hence this output)
  | Species        1: Confinement radius =              6.000000000000000 AA, multipole_radius_free =              6.071692442739658 AA.
  | Species        1: outer_partition_radius set to              6.071692442739658 AA .
  | Species        2: Confinement radius =              6.000000000000000 AA, multipole_radius_free =              6.029870734432609 AA.
  | Species        2: outer_partition_radius set to              6.029870734432609 AA .
  | Species        3: Confinement radius =              6.000000000000000 AA, multipole_radius_free =              6.064445521808699 AA.
  | Species        3: outer_partition_radius set to              6.064445521808699 AA .
  | Species        4: Confinement radius =              6.000000000000000 AA, multipole_radius_free =              6.058726835495003 AA.
  | Species        4: outer_partition_radius set to              6.058726835495003 AA .
  | Species        5: Confinement radius =              6.000000000000000 AA, multipole_radius_free =              6.012827091137924 AA.
  | Species        5: outer_partition_radius set to              6.012827091137924 AA .
  | Species        6: Confinement radius =              6.000000000000000 AA, multipole_radius_free =              6.055612581282185 AA.
  | Species        6: outer_partition_radius set to              6.055612581282185 AA .
  | Original list of interatomic distances with          23 x         23 entries is created.
  | Net number of integration points:   392790
  | of which are non-zero points    :   315002
  Renormalizing the initial density to the exact electron count on the 3D integration grid.
  | Initial density: Formal number of electrons (from input files) :     123.0000000000
  | Integrated number of electrons on 3D grid     :     122.9999931698
  | Charge integration error                      :      -0.0000068302
  | Normalization factor for density and gradient :       1.0000000555
  Obtaining max. number of non-zero basis functions in each batch (get_n_compute_maxes).
  | Maximal number of non-zero basis functions:      608 in task     0
  | Maximal number of non-zero basis functions:      613 in task     1
  | Maximal number of non-zero basis functions:      610 in task     2
  | Maximal number of non-zero basis functions:      611 in task     3
  | Maximal number of non-zero basis functions:      614 in task     4
  | Maximal number of non-zero basis functions:      614 in task     5
  | Maximal number of non-zero basis functions:      598 in task     6
  | Maximal number of non-zero basis functions:      605 in task     7
  | Maximal number of non-zero basis functions:      604 in task     8
  | Maximal number of non-zero basis functions:      606 in task     9
  | Maximal number of non-zero basis functions:      614 in task    10
  | Maximal number of non-zero basis functions:      608 in task    11
  | Maximal number of non-zero basis functions:      598 in task    12
  | Maximal number of non-zero basis functions:      613 in task    13
  | Maximal number of non-zero basis functions:      594 in task    14
  | Maximal number of non-zero basis functions:      614 in task    15
  | Maximal number of non-zero basis functions:      608 in task    16
  | Maximal number of non-zero basis functions:      596 in task    17
  | Maximal number of non-zero basis functions:      612 in task    18
  | Maximal number of non-zero basis functions:      603 in task    19
  | Maximal number of non-zero basis functions:      612 in task    20
  | Maximal number of non-zero basis functions:      606 in task    21
  | Maximal number of non-zero basis functions:      608 in task    22
  | Maximal number of non-zero basis functions:      609 in task    23
  | Maximal number of non-zero basis functions:      614 in task    24
  | Maximal number of non-zero basis functions:      604 in task    25
  | Maximal number of non-zero basis functions:      613 in task    26
  | Maximal number of non-zero basis functions:      594 in task    27
  | Maximal number of non-zero basis functions:      606 in task    28
  | Maximal number of non-zero basis functions:      604 in task    29
  | Maximal number of non-zero basis functions:      596 in task    30
  | Maximal number of non-zero basis functions:      615 in task    31
  | Maximal number of non-zero basis functions:      614 in task    32
  | Maximal number of non-zero basis functions:      601 in task    33
  | Maximal number of non-zero basis functions:      600 in task    34
  | Maximal number of non-zero basis functions:      606 in task    35
  | Maximal number of non-zero basis functions:      606 in task    36
  | Maximal number of non-zero basis functions:      609 in task    37
  | Maximal number of non-zero basis functions:      610 in task    38
  | Maximal number of non-zero basis functions:      610 in task    39
  | Maximal number of non-zero basis functions:      586 in task    40
  | Maximal number of non-zero basis functions:      611 in task    41
  | Maximal number of non-zero basis functions:      612 in task    42
  | Maximal number of non-zero basis functions:      598 in task    43
  | Maximal number of non-zero basis functions:      597 in task    44
  | Maximal number of non-zero basis functions:      611 in task    45
  | Maximal number of non-zero basis functions:      599 in task    46
  | Maximal number of non-zero basis functions:      610 in task    47
  | Maximal number of non-zero basis functions:      613 in task    48
  | Maximal number of non-zero basis functions:      596 in task    49
  | Maximal number of non-zero basis functions:      603 in task    50
  | Maximal number of non-zero basis functions:      615 in task    51
  | Maximal number of non-zero basis functions:      596 in task    52
  | Maximal number of non-zero basis functions:      609 in task    53
  | Maximal number of non-zero basis functions:      604 in task    54
  | Maximal number of non-zero basis functions:      598 in task    55
  | Maximal number of non-zero basis functions:      608 in task    56
  | Maximal number of non-zero basis functions:      615 in task    57
  | Maximal number of non-zero basis functions:      610 in task    58
  | Maximal number of non-zero basis functions:      599 in task    59
  | Maximal number of non-zero basis functions:      614 in task    60
  | Maximal number of non-zero basis functions:      614 in task    61
  | Maximal number of non-zero basis functions:      601 in task    62
  | Maximal number of non-zero basis functions:      605 in task    63
  Selecting the method for density update.
  Loop over occupied states selected for charge density update.
  Allocating        0.583 MB for KS_eigenvector
  Integrating Hamiltonian matrix: batch-based integration.
[...]
  |   Free atom volume        :     23.74229847
  |   Hirshfeld volume        :     21.84270227
  |   Hirshfeld dipole vector :     -0.02020338      -0.00135472       0.03416301
  |   Hirshfeld dipole moment :      0.03971301
  |   Hirshfeld second moments:      0.00983119      -0.00781871       0.01683423
  |                                 -0.00781871       0.04326803       0.00092808
  |                                  0.01683423       0.00092808       0.02326975
  ----------------------------------------------------------------------
  | Atom     7: N
  |   Hirshfeld charge        :     -0.07438510
  |   Free atom volume        :     29.90025370
  |   Hirshfeld volume        :     24.78403707
  |   Hirshfeld dipole vector :     -0.02242496       0.00282972       0.01287869
  |   Hirshfeld dipole moment :      0.02601436
  |   Hirshfeld second moments:      0.10649864      -0.01210645      -0.00194776
  |                                 -0.01210645       0.13121579      -0.01005172
  |                                 -0.00194776      -0.01005172       0.12333154
  ----------------------------------------------------------------------
  | Atom     8: H
  |   Hirshfeld charge        :      0.15555972
  |   Free atom volume        :     10.31539447
  |   Hirshfeld volume        :      5.97354065
  |   Hirshfeld dipole vector :     -0.04117093       0.02671572       0.10777340
  |   Hirshfeld dipole moment :      0.11842247
  |   Hirshfeld second moments:      0.12119305      -0.00425502       0.00069533
  |                                 -0.00425502       0.12779266      -0.00451818
  |                                  0.00069533      -0.00451818       0.12429299
  ----------------------------------------------------------------------
  | Atom     9: C
  |   Hirshfeld charge        :      0.00594221
  |   Free atom volume        :     38.37861207
  |   Hirshfeld volume        :     32.47473188
  |   Hirshfeld dipole vector :      0.01546423       0.01421759       0.05055871
  |   Hirshfeld dipole moment :      0.05474911
  |   Hirshfeld second moments:      0.10165344      -0.01929668      -0.00586566
  |                                 -0.01929668       0.15937922      -0.00290781
  |                                 -0.00586566      -0.00290781       0.14484433
  ----------------------------------------------------------------------
  | Atom    10: H
  |   Hirshfeld charge        :      0.03936248
  |   Free atom volume        :     10.31539447
  |   Hirshfeld volume        :      7.22538213
  |   Hirshfeld dipole vector :     -0.01651368       0.07803999      -0.04135733
  |   Hirshfeld dipole moment :      0.08985194
  |   Hirshfeld second moments:      0.07699634      -0.00419252      -0.01071349
  |                                 -0.00419252       0.09524054       0.00304909
  |                                 -0.01071349       0.00304909       0.08841569
  ----------------------------------------------------------------------
  | Atom    11: C
  |   Hirshfeld charge        :     -0.06408024
  |   Free atom volume        :     38.37861207
  |   Hirshfeld volume        :     31.46143466
  |   Hirshfeld dipole vector :      0.00078357       0.01085728       0.01905048
  |   Hirshfeld dipole moment :      0.02194118
  |   Hirshfeld second moments:      0.12925446      -0.00498814      -0.00738032
  |                                 -0.00498814       0.15294690      -0.00266934
  |                                 -0.00738032      -0.00266934       0.15380869
  ----------------------------------------------------------------------
  | Atom    12: H
  |   Hirshfeld charge        :      0.05907322
  |   Free atom volume        :     10.31539447
  |   Hirshfeld volume        :      6.77919950
  |   Hirshfeld dipole vector :      0.01190057      -0.07221208       0.06776292
  |   Hirshfeld dipole moment :      0.09973977
  |   Hirshfeld second moments:      0.09273232       0.00435206      -0.00649793
  |                                  0.00435206       0.09898417       0.00313425
  |                                 -0.00649793       0.00313425       0.10308597
  ----------------------------------------------------------------------
  | Atom    13: H
  |   Hirshfeld charge        :      0.06750515
  |   Free atom volume        :     10.31539447
  |   Hirshfeld volume        :      6.29908842
  |   Hirshfeld dipole vector :     -0.04206120       0.06514865       0.06895940
  |   Hirshfeld dipole moment :      0.10377326
  |   Hirshfeld second moments:      0.10608457       0.00274508      -0.00160904
  |                                  0.00274508       0.11492585      -0.01120234
  |                                 -0.00160904      -0.01120234       0.10730417
  ----------------------------------------------------------------------
  | Atom    14: S
  |   Hirshfeld charge        :     -0.04272050
  |   Free atom volume        :     76.86690166
  |   Hirshfeld volume        :     70.74393189
  |   Hirshfeld dipole vector :     -0.05799331       0.01075730       0.11015381
  |   Hirshfeld dipole moment :      0.12495121
  |   Hirshfeld second moments:      0.12594182       0.01934270       0.02549916
  |                                  0.01934270      -0.02046251       0.05811595
  |                                  0.02549916       0.05811595       0.19204146
  ----------------------------------------------------------------------
  | Atom    15: C
  |   Hirshfeld charge        :      0.15934587
  |   Free atom volume        :     38.37861207
  |   Hirshfeld volume        :     33.16781814
  |   Hirshfeld dipole vector :      0.01573539       0.00906099      -0.02680524
  |   Hirshfeld dipole moment :      0.03237630
  |   Hirshfeld second moments:      0.17824287       0.05350175      -0.00499546
  |                                  0.05350175       0.11506784       0.00604548
  |                                 -0.00499546       0.00604548       0.12485107
  ----------------------------------------------------------------------
  | Atom    16: O
  |   Hirshfeld charge        :     -0.16963822
  |   Free atom volume        :     23.74229847
  |   Hirshfeld volume        :     21.62538320
  |   Hirshfeld dipole vector :     -0.00077107       0.01338246      -0.01162801
  |   Hirshfeld dipole moment :      0.01774529
  |   Hirshfeld second moments:      0.06505018       0.02340758      -0.00153139
  |                                  0.02340758       0.02327675       0.01061747
  |                                 -0.00153139       0.01061747       0.02253554
  ----------------------------------------------------------------------
  | Atom    17: N
  |   Hirshfeld charge        :     -0.07053584
  |   Free atom volume        :     29.90025370
  |   Hirshfeld volume        :     25.37815885
  |   Hirshfeld dipole vector :      0.04466106      -0.00331203      -0.01011038
  |   Hirshfeld dipole moment :      0.04591078
  |   Hirshfeld second moments:      0.08793198       0.01192128       0.00449007
  |                                  0.01192128       0.11936592      -0.01823979
  |                                  0.00449007      -0.01823979       0.10608869
  ----------------------------------------------------------------------
  | Atom    18: H
  |   Hirshfeld charge        :      0.14351745
  |   Free atom volume        :     10.31539447
  |   Hirshfeld volume        :      6.63961451
  |   Hirshfeld dipole vector :      0.02449365       0.09884077      -0.05006405
  |   Hirshfeld dipole moment :      0.11347178
  |   Hirshfeld second moments:      0.10759762      -0.00746240      -0.00684473
  |                                 -0.00746240       0.10606963      -0.01068396
  |                                 -0.00684473      -0.01068396       0.11225077
  ----------------------------------------------------------------------
  | Atom    19: C
  |   Hirshfeld charge        :     -0.04188803
  |   Free atom volume        :     38.37861207
  |   Hirshfeld volume        :     28.43496610
  |   Hirshfeld dipole vector :      0.00646827       0.01165216      -0.00899302
  |   Hirshfeld dipole moment :      0.01607750
  |   Hirshfeld second moments:      0.21267127      -0.00921138      -0.00727514
  |                                 -0.00921138       0.22838892       0.00601463
  |                                 -0.00727514       0.00601463       0.18950185
  ----------------------------------------------------------------------
  | Atom    20: H
  |   Hirshfeld charge        :      0.06631652
  |   Free atom volume        :     10.31539447
  |   Hirshfeld volume        :      6.17417202
  |   Hirshfeld dipole vector :     -0.00249635      -0.09760081       0.00864944
  |   Hirshfeld dipole moment :      0.09801511
  |   Hirshfeld second moments:      0.12553855      -0.00306346       0.00133856
  |                                 -0.00306346       0.10563707       0.00597793
  |                                  0.00133856       0.00597793       0.10036686
  ----------------------------------------------------------------------
  | Atom    21: H
  |   Hirshfeld charge        :      0.07027413
  |   Free atom volume        :     10.31539447
  |   Hirshfeld volume        :      5.56901896
  |   Hirshfeld dipole vector :     -0.00196948       0.00184174      -0.09971215
  |   Hirshfeld dipole moment :      0.09974860
  |   Hirshfeld second moments:      0.13032206      -0.00014706      -0.00088645
  |                                 -0.00014706       0.13524344       0.00068592
  |                                 -0.00088645       0.00068592       0.10558024
  ----------------------------------------------------------------------
  | Atom    22: H
  |   Hirshfeld charge        :      0.07629751
  |   Free atom volume        :     10.31539447
  |   Hirshfeld volume        :      6.08306884
  |   Hirshfeld dipole vector :      0.09649485       0.01495123       0.00667486
  |   Hirshfeld dipole moment :      0.09787415
  |   Hirshfeld second moments:      0.10619540      -0.00941359      -0.00480836
  |                                 -0.00941359       0.12488382      -0.00600950
  |                                 -0.00480836      -0.00600950       0.11310481
  ----------------------------------------------------------------------
  | Atom    23: Zn
  |   Hirshfeld charge        :      0.53074997
  |   Free atom volume        :     81.41249734
  |   Hirshfeld volume        :     62.73562186
  |   Hirshfeld dipole vector :      0.03965499      -0.07458950      -0.26104986
  |   Hirshfeld dipole moment :      0.27437773
  |   Hirshfeld second moments:      0.28755273      -0.00118137       0.11677130
  |                                 -0.00118137       0.55214136       0.00977465
  |                                  0.11677130       0.00977465       0.53009573
  ----------------------------------------------------------------------

   
  ESP charge fitting starts.
  | Calculation :  00000001  of  00000001
  | Full density
  Computing multipole expansion for total density.
  Generating points for esp charges.
  Partitioning the integration grid into batches with parallel hashing+maxmin method.
  | Number of batches:       63
  | Maximal batch size:      27
  | Minimal batch size:       2
  | Average batch size:      15.143
  | Standard deviation of batch sizes:       6.389

  Integration load balanced across    64 MPI tasks.
  Work distribution over tasks is as follows:
  Initializing partition tables, free-atom densities, potentials, etc. across the integration grid (initialize_grid_storage).
  | Original list of interatomic distances with          23 x         23 entries is created.
  | Net number of integration points:      954
  | of which are non-zero points    :      954
  Summing up potential from multipole expanded  density.
  Summing up the Hartree potential.
  Time summed over all CPUs for potential: real work        0.103 s, elapsed        0.631 s
  Fitting esp charges to potential.
  |
  | ESP charges fitted to the electrostatic potential :
  |
  | Atom         1: C, ESP charge:     -1.14101170
  |
  | Atom         2: H, ESP charge:      0.39836162
  |
  | Atom         3: H, ESP charge:      0.38368662
  |
  | Atom         4: H, ESP charge:      0.30395543
  |
  | Atom         5: C, ESP charge:     -0.02790203
  |
  | Atom         6: O, ESP charge:     -0.14159898
  |
  | Atom         7: N, ESP charge:      1.41747835
  |
  | Atom         8: H, ESP charge:      0.00069926
  |
  | Atom         9: C, ESP charge:     -2.58942101
  |
  | Atom        10: H, ESP charge:      0.79954019
  |
  | Atom        11: C, ESP charge:     -0.59987282
  |
  | Atom        12: H, ESP charge:      0.44568791
  |
  | Atom        13: H, ESP charge:      0.49240659
  |
  | Atom        14: S, ESP charge:     -0.01902264
  |
  | Atom        15: C, ESP charge:      0.20179229
  |
  | Atom        16: O, ESP charge:     -0.12577231
  |
  | Atom        17: N, ESP charge:      0.34188125
  |
  | Atom        18: H, ESP charge:      0.00068020
  |
  | Atom        19: C, ESP charge:      0.65525798
  |
  | Atom        20: H, ESP charge:     -0.14932797
  |
  | Atom        21: H, ESP charge:     -0.13357022
  |
  | Atom        22: H, ESP charge:     -0.11109050
  |
  | Atom        23: Zn, ESP charge:      0.59716247

  RRMS:       0.00079179

  Done.

------------------------------------------------------------------------------
  Final output of selected total energy values:

  The following output summarizes some interesting total energy values
  at the end of a run (AFTER all relaxation, molecular dynamics, etc.).

  | Total energy of the DFT / Hartree-Fock s.c.f. calculation      :         -73467.724940911 eV
  | Final zero-broadening corrected energy (caution - metals only) :         -73467.724940911 eV
  | For reference only, the value of 1 Hartree used in FHI-aims is :             27.211384500 eV

  Before relying on these values, please be sure to understand exactly which
  total energy value is referred to by a given number. Different objects may
  all carry the same name 'total energy'. Definitions:

  Total energy of the DFT / Hartree-Fock s.c.f. calculation:
  | Note that this energy does not include ANY quantities calculated after the
  | s.c.f. cycle, in particular not ANY RPA, MP2, etc. many-body perturbation terms.

  Final zero-broadening corrected energy:
  | For metallic systems only, a broadening of the occupation numbers at the Fermi
  | level can be extrapolated back to zero broadening by an electron-gas inspired
  | formula. For all systems that are not real metals, this value can be
  | meaningless and should be avoided.

------------------------------------------------------------------------------
  Methods described in the following list of references were used in this FHI-aims run.
  If you publish the results, please make sure to cite these reference if they apply.
  FHI-aims is an academic code, and for our developers (often, Ph.D. students
  and postdocs), scientific credit in the community is essential.
  Thank you for helping us!

  For any use of FHI-aims, please cite:

    Volker Blum, Ralf Gehrke, Felix Hanke, Paula Havu, Ville Havu,
    Xinguo Ren, Karsten Reuter, and Matthias Scheffler
    'Ab initio molecular simulations with numeric atom-centered orbitals'
    Computer Physics Communications 180, 2175-2196 (2009)
    http://dx.doi.org/10.1016/j.cpc.2009.06.022


  The scalable eigensolver library ELPA was used in your run.
  ELPA is essential especially for large systems on hundreds or thousands of CPUs.
  For ELPA, please cite:

    Andreas Marek, Volker Blum, Rainer Johanni, Ville Havu, Bruno Lang,
    Thomas Auckenthaler, Alexander Heinecke, Hans-Joachim Bungartz, and Hermann Lederer,
    'The ELPA Library - Scalable Parallel Eigenvalue Solutions
    for Electronic Structure Theory and Computational Science'
    The Journal of Physics: Condensed Matter 26, 213201 (2014).
    http://dx.doi.org/10.1088/0953-8984/26/21/213201


  The ELSI infrastructure was used in your run to solve the Kohn-Sham electronic structure.
  Please check out http://elsi-interchange.org to learn more.
  If scalability is important for your project, please acknowledge ELSI by citing:

    V. W-z. Yu, F. Corsetti, A. Garcia, W. P. Huhn, M. Jacquelin, W. Jia,
    B. Lange, L. Lin, J. Lu, W. Mi, A. Seifitokaldani, A. Vazquez-Mayagoitia,
    C. Yang, H. Yang, and V. Blum
    'ELSI: A unified software interface for Kohn-Sham electronic structure solvers'
    Computer Physics Communications 222, 267-285 (2018).
    http://dx.doi.org/10.1016/j.cpc.2017.09.007


  For the real-space grid partitioning and parallelization used in this calculation, please cite:

    Ville Havu, Volker Blum, Paula Havu, and Matthias Scheffler,
    'Efficient O(N) integration for all-electron electronic structure calculation'
    'using numerically tabulated basis functions'
    Journal of Computational Physics 228, 8367-8379 (2009).
    http://dx.doi.org/10.1016/j.jcp.2009.08.008

  Of course, there are many other important community references, e.g., those cited in the
  above references. Our list is limited to references that describe implementations in the
  FHI-aims code. The reason is purely practical (length of this list) - please credit others as well.

------------------------------------------------------------
          Leaving FHI-aims.
          Date     :  20180917, Time     :  130550.441

          Computational steps:
          | Number of self-consistency cycles          :           17
          | Number of SCF (re)initializations          :            1

          Detailed time accounting                     :  max(cpu_time)    wall_clock(cpu1)
          | Total time                                 :       12.635 s          12.695 s
          | Preparation time                           :        0.552 s           0.552 s
          | Boundary condition initalization           :        0.000 s           0.000 s
          | Grid partitioning                          :        0.240 s           0.240 s
          | Preloading free-atom quantities on grid    :        0.060 s           0.060 s
          | Free-atom superposition energy             :        0.013 s           0.013 s
          | Total time for integrations                :        4.407 s           4.407 s
          | Total time for solution of K.-S. equations :        0.735 s           0.748 s
          | Total time for density & force components  :        3.562 s           3.562 s
          | Total time for mixing & preconditioning    :        0.487 s           0.486 s
          | Total time for Hartree multipole update    :        0.088 s           0.092 s
          | Total time for Hartree multipole sum       :        2.183 s           2.181 s
          | Total time for total energy evaluation     :        0.006 s           0.010 s
          | Total time for scaled ZORA corrections     :        0.000 s           0.000 s
          | Total time for vdW correction              :        0.043 s           0.044 s

          Partial memory accounting:
          | Residual value for overall tracked memory usage across tasks :           0.000 MB (should be 0.000 MB)
          | Peak values for overall tracked memory usage (after allocating hessian_basis_wave):
          |   Minimum:       12.649 MB (on task 41)
          |   Maximum:       13.110 MB (on task 52)
          |   Average:       12.966 MB
          | Largest tracked array allocation (hessian_basis_wave):
          |   Minimum:        5.597 MB (on task 41)
          |   Maximum:        5.874 MB (on task 32)
          |   Average:        5.791 MB
          Note:  These values currently only include a subset of arrays which are explicitly tracked.
          The "true" memory usage will be greater.

          Have a nice day.
------------------------------------------------------------
